<?xml version="1.0"?>
<VTKFile type="UnstructuredGrid"  version="0.1"  >
<UnstructuredGrid>
<Piece  NumberOfPoints="1419" NumberOfCells="2698">
<Points>
<DataArray  type="Float64"  NumberOfComponents="3"  format="ascii">0 0 0  0 0.41 0  2.5 0 0  2.5 0.41 0  0.6 0.19 0  0.6 0.21 0  0.25 0.2 0  0.15 0.2 0  0.2489897948556636 0.21 0  0.2489897948556636 0.19 0  0.6 0.2 0  0 0.3807142857143437 0  0 0.3514285714286952 0  0 0.3221428571430699 0  0 0.29285714285744 0  0 0.2635714285718054 0  0 0.2342857142861561 0  0 0.2050000000005308 0  0 0.175714285714732 0  0 0.1464285714289574 0  0 0.1171428571431897 0  0 0.08785714285737878 0  0 0.05857142857161107 0  0 0.02928571428580012 0  0.03015443760436003 0 0  0.06140001986583606 0 0  0.09377624077125973 0 0  0.1273239957535082 0 0  0.1620856860351972 0 0  0.1981052433264291 0 0  0.235428184091502 0 0  0.2741016576309132 0 0  0.3141745521465447 0 0  0.3556974926295285 0 0  0.3987229542472677 0 0  0.4433053055141081 0 0  0.4895008759286886 0 0  0.5373680609405097 0 0  0.5869673343216626 0 0  0.6383613676634521 0 0  0.6916151138468254 0 0  0.7467958595648856 0 0  0.8039733463919316 0 0  0.8632198139502143 0 0  0.9246101326867038 0 0  0.9882218810934433 0 0  1.054135445558498 0 0  1.122434100542598 0 0  1.193204177141305 0 0  1.266535089879536 0 0  1.342519516046404 0 0  1.421253448503939 0 0  1.502836389106271 0 0  1.587371439758838 0 0  1.674965418777374 0 0  1.765729001825544 0 0  1.859776908880082 0 0  1.957227977487062 0 0  2.058205329869943 0 0  2.162836591189951 0 0  2.271253957290865 0 0  2.383594446803425 0 0  2.5 0.1024999999997612 0  2.5 0.2049999999994743 0  2.5 0.3074999999997183 0  2.383594446803656 0.41 0  2.271253957291315 0.41 0  2.162836591190598 0.41 0  2.058205329870775 0.41 0  1.957227977488067 0.41 0  1.859776908881246 0.41 0  1.765729001826854 0.41 0  1.674965418778818 0.41 0  1.58737143976041 0.41 0  1.502836389107956 0.41 0  1.421253448505726 0.41 0  1.342519516048286 0.41 0  1.266535089881505 0.41 0  1.193204177143353 0.41 0  1.122434100544716 0.41 0  1.05413544556068 0.41 0  0.9882218810956305 0.41 0  0.9246101326886647 0.41 0  0.8632198139519631 0.41 0  0.8039733463934788 0.41 0  0.7467958595662458 0.41 0  0.6916151138480078 0.41 0  0.6383613676644679 0.41 0  0.5869673343225223 0.41 0  0.5373680609412221 0.41 0  0.4895008759292634 0.41 0  0.4433053055145528 0.41 0  0.3987229542475914 0.41 0  0.3556974926297398 0.41 0  0.3141745521466497 0.41 0  0.2741016576310038 0.41 0  0.2354281840915826 0.41 0  0.1981052433265003 0.41 0  0.1620856860352591 0.41 0  0.1273239957535623 0.41 0  0.09377624077128965 0.41 0  0.06140001986584975 0.41 0  0.03015443760436654 0.41 0  0.2497468076502589 0.2050254481002335 0  0.2497468076502614 0.1949745518997913 0  0.2469965252529372 0.1829317073451959 0  0.2439893735792749 0.1762316384219906 0  0.2400332147834255 0.1700443375285386 0  0.2352133972704371 0.1645032867342007 0  0.2296339016332438 0.1597280261969788 0  0.2234150974217223 0.1558215752574715 0  0.2166911463437691 0.1528682099456123 0  0.2096071079204251 0.1509316448471593 0  0.2023158100364996 0.1500536585536553 0  0.194974551899914 0.1502531923497262 0  0.1877417105387872 0.1515259415822739 0  0.1807733240461124 0.153844448527136 0  0.1742197252835808 0.15715869474974 0  0.1682222986673531 0.1613971801805478 0  0.162910430003803 0.1664684656256651 0  0.1583987151779087 0.1722631454351573 0  0.1547844879126891 0.178656207771761 0  0.1521457199348551 0.1855097315605723 0  0.1505393388476355 0.1926758619366523 0  0.1505393388476328 0.2073241380633295 0  0.1521457199348437 0.2144902684393899 0  0.1547844879126531 0.221343792228163 0  0.1583987151778488 0.2277368545647528 0  0.1629104300036858 0.2335315343742052 0  0.1682222986671726 0.2386028198193036 0  0.1742197252833576 0.2428413052501257 0  0.1807733240458683 0.2461555514727623 0  0.1877417105384929 0.2484740584176516 0  0.1949745518995776 0.2497468076502398 0  0.202315810036185 0.2499463414463592 0  0.2096071079201568 0.2490683551528932 0  0.2166911463435495 0.2471317900544655 0  0.2234150974215506 0.2441784247426195 0  0.2296339016331197 0.2402719738031125 0  0.2352133972703547 0.2354967132658811 0  0.2400332147833751 0.2299556624715287 0  0.2439893735792577 0.2237683615780412 0  0.246996525252926 0.2170682926548348 0  0.25645809709277 0.21 0  0.2639263993298655 0.21 0  0.271394701566961 0.21 0  0.2788630038040554 0.21 0  0.2863313060411479 0.21 0  0.2937996082782405 0.21 0  0.301267910515333 0.21 0  0.3087362127524279 0.21 0  0.3162045149895234 0.21 0  0.3236728172265972 0.21 0  0.3311411194636928 0.21 0  0.3386094217007701 0.21 0  0.3460777239378666 0.21 0  0.3535460261749672 0.21 0  0.3610143284120516 0.21 0  0.3684826306491596 0.21 0  0.3759509328862226 0.21 0  0.383419235123329 0.21 0  0.3908875373604028 0.21 0  0.3983558395975142 0.21 0  0.4058241418345938 0.21 0  0.4132924440716992 0.21 0  0.4207607463087888 0.21 0  0.4282290485459029 0.21 0  0.4356973507830418 0.21 0  0.4431656530201649 0.21 0  0.4506339552573136 0.21 0  0.4581022574944306 0.21 0  0.4655705597315852 0.21 0  0.4730388619686996 0.21 0  0.480507164205851 0.21 0  0.4879754664429498 0.21 0  0.4954437686800938 0.21 0  0.502912070917267 0.21 0  0.5103803731544119 0.21 0  0.5178486753915261 0.21 0  0.5253169776286404 0.21 0  0.5327852798657868 0.21 0  0.5402535821029386 0.21 0  0.54772188434007 0.21 0  0.5551901865771842 0.21 0  0.5626584888143201 0.21 0  0.5701267910514778 0.21 0  0.5775950932886138 0.21 0  0.5850633955257281 0.21 0  0.5925316977628483 0.21 0  0.6 0.2050000000000054 0  0.6 0.1950000000000217 0  0.5925316977628897 0.19 0  0.5850633955257988 0.19 0  0.5775950932887378 0.19 0  0.5701267910515998 0.19 0  0.5626584888145268 0.19 0  0.5551901865773963 0.19 0  0.547721884340339 0.19 0  0.5402535821032429 0.19 0  0.5327852798661811 0.19 0  0.5253169776290537 0.19 0  0.5178486753919799 0.19 0  0.5103803731549078 0.19 0  0.502912070917822 0.19 0  0.4954437686807294 0.19 0  0.4879754664436223 0.19 0  0.4805071642065402 0.19 0  0.4730388619694271 0.19 0  0.4655705597323621 0.19 0  0.4581022574952563 0.19 0  0.4506339552581777 0.19 0  0.4431656530210671 0.19 0  0.4356973507839815 0.19 0  0.4282290485468779 0.19 0  0.4207607463097617 0.19 0  0.4132924440726327 0.19 0  0.4058241418354857 0.19 0  0.3983558395983636 0.19 0  0.3908875373612097 0.19 0  0.3834192351240934 0.19 0  0.3759509328869369 0.19 0  0.3684826306498175 0.19 0  0.361014328412667 0.19 0  0.3535460261755617 0.19 0  0.3460777239384295 0.19 0  0.3386094217012945 0.19 0  0.3311411194641595 0.19 0  0.3236728172270245 0.19 0  0.3162045149898895 0.19 0  0.3087362127527544 0.19 0  0.3012679105156187 0.19 0  0.2937996082784807 0.19 0  0.2863313060413428 0.19 0  0.2788630038042048 0.19 0  0.2713947015670686 0.19 0  0.2639263993299336 0.19 0  0.2564580970927985 0.19 0  0.2607803159922026 0.2000727136295815 0  0.5887803774232762 0.2001272386983733 0  0.5745072403740523 0.2002044435018727 0  0.5511891430099709 0.2001122610077113 0  0.2751288526855082 0.20000000000002 0  0.5365194309847112 0.1999999999999436 0  0.2894621222999649 0.1998691686390484 0  0.5215828265105155 0.1999999999999228 0  0.3127789816668748 0.1998657885438805 0  0.3274069683451451 0.2000000000000796 0  0.5066462220363641 0.199999999999908 0  0.3650630746574081 0.199866017807523 0  0.476773013087985 0.1999999999998713 0  0.3417402379596385 0.1998691686391011 0  0.3796850840047755 0.200000000000134 0  0.4618364086138087 0.1999999999998546 0  0.4917096175621762 0.1999999999998808 0  0.3946216884789568 0.2000000000001512 0  0.446899804139621 0.1999999999998389 0  0.4089549580935208 0.1998691686391595 0  0.4322718174608562 0.200127451265745 0  0.4201487168029707 0.1999966199048527 0  0.3528922713220932 0.2000185703532356 0  0.5633122436674589 0.1999814296467508 0  0.3006558810093873 0.1999966199048318 0  0.5815926498168407 0.1966545283159175 0  0.2677053789419034 0.1964246479135325 0  0.5290511287476175 0.1970915826863981 0  0.5439877332217911 0.197091582686394 0  0.2825131256993216 0.2035478995978015 0  0.3199386661080599 0.202908417313604 0  0.4842413153250809 0.1970915826863873 0  0.5141145242734466 0.1970915826863843 0  0.3722167817676917 0.2029084173136195 0  0.4693047108508938 0.1970915826863783 0  0.3348752705822316 0.202908417313609 0  0.3871533862418661 0.2029084173136212 0  0.4543681063767183 0.1970915826863795 0  0.4991779197992749 0.1970915826863902 0  0.4020059614928624 0.203547899597858 0  0.4394315019025246 0.1970915826863714 0  0.2550657455369551 0.2034088125358657 0  0.2548908499171161 0.1966940311614271 0  0.5946539510196798 0.2024302972968126 0  0.267698176732111 0.2039977513680092 0  0.4261685417851465 0.196409292431739 0  0.3590076176283495 0.196411355804271 0  0.5571672426447437 0.2036011176410121 0  0.3066757059912147 0.1964092924317024 0  0.594380730180568 0.1966558399668133 0  0.4842413153245942 0.2040749161535287 0  0.4693047108503577 0.2040749161535231 0  0.3871533862424271 0.1959250838464788 0  0.372246743208829 0.1959123236376545 0  0.5141145242731028 0.2040749161535395 0  0.4543681063761134 0.2040749161535186 0  0.4019979587101454 0.1959834479682427 0  0.4394608940728603 0.2040870543693135 0  0.5439623148931173 0.2040856076781014 0  0.5290511287473298 0.2040749161535501 0  0.4991779197988497 0.2040749161535382 0  0.3347912413592433 0.1959225448935183 0  0.3199680582793816 0.1959123018030061 0  0.2825051229162361 0.1959834479681729 0  0.3590471196690275 0.2036304442587945 0  0.5571594006495384 0.1963685282145804 0  0.3067669986803285 0.203627750582736 0  0.4262598344738712 0.2036568242185335 0  0.5814408164431408 0.2041285596160068 0  0.5688286748170428 0.1961819304477386 0  0.4145905603063645 0.2038180695522843 0  0.3473758401724931 0.2038180695522752 0  0.2950977245128307 0.2038180695522663 0  0.5688286748170693 0.203818069552238 0  0.2950977245127906 0.1961819304477774 0  0.3473758401723931 0.1961819304478349 0  0.4145905603061963 0.1961819304479011 0  0.2601812407614425 0.2056861609747042
[...]
<PointData  Vectors="f_46-2"> 
<DataArray  type="Float64"  Name="f_46-2"  NumberOfComponents="3" format="ascii">0.0000000000000000e+00 0.0000000000000000e+00 0.0000000000000000e+00  0.0000000000000000e+00 0.0000000000000000e+00 0.0000000000000000e+00  0.0000000000000000e+00 0.0000000000000000e+00 0.0000000000000000e+00  0.0000000000000000e+00 0.0000000000000000e+00 0.0000000000000000e+00  2.1290331197745425e-05 -3.2419777797178663e-04 0.0000000000000000e+00  4.6865523719464070e-05 -3.2495971615782981e-04 0.0000000000000000e+00  0.0000000000000000e+00 0.0000000000000000e+00 0.0000000000000000e+00  0.0000000000000000e+00 0.0000000000000000e+00 0.0000000000000000e+00  0.0000000000000000e+00 0.0000000000000000e+00 0.0000000000000000e+00  0.0000000000000000e+00 0.0000000000000000e+00 0.0000000000000000e+00  3.3750316256520111e-05 -3.2457955014424930e-04 0.0000000000000000e+00  0.0000000000000000e+00 0.0000000000000000e+00 0.0000000000000000e+00  0.0000000000000000e+00 0.0000000000000000e+00 0.0000000000000000e+00  0.0000000000000000e+00 0.0000000000000000e+00 0.0000000000000000e+00  0.0000000000000000e+00 0.0000000000000000e+00 0.0000000000000000e+00  0.0000000000000000e+00 0.0000000000000000e+00 0.0000000000000000e+00  0.0000000000000000e+00 0.0000000000000000e+00 0.0000000000000000e+00  0.0000000000000000e+00 0.0000000000000000e+00 0.0000000000000000e+00  0.0000000000000000e+00 0.0000000000000000e+00 0.0000000000000000e+00  0.0000000000000000e+00 0.0000000000000000e+00 0.0000000000000000e+00  0.0000000000000000e+00 0.0000000000000000e+00 0.0000000000000000e+00  0.0000000000000000e+00 0.0000000000000000e+00 0.0000000000000000e+00  0.0000000000000000e+00 0.0000000000000000e+00 0.0000000000000000e+00  0.0000000000000000e+00 0.0000000000000000e+00 0.0000000000000000e+00  0.0000000000000000e+00 0.0000000000000000e+00 0.0000000000000000e+00  0.0000000000000000e+00 0.0000000000000000e+00 0.0000000000000000e+00  0.0000000000000000e+00 0.0000000000000000e+00 0.0000000000000000e+00  0.0000000000000000e+00 0.0000000000000000e+00 0.0000000000000000e+00  0.0000000000000000e+00 0.0000000000000000e+00 0.0000000000000000e+00  0.0000000000000000e+00 0.0000000000000000e+00 0.0000000000000000e+00  0.0000000000000000e+00 0.0000000000000000e+00 0.0000000000000000e+00  0.0000000000000000e+00 0.0000000000000000e+00 0.0000000000000000e+00  0.0000000000000000e+00 0.0000000000000000e+00 0.0000000000000000e+00  0.0000000000000000e+00 0.0000000000000000e+00 0.0000000000000000e+00  0.0000000000000000e+00 0.0000000000000000e+00 0.0000000000000000e+00  -2.2260342332332546e-13 3.8352887431293612e-16 0.0000000000000000e+00  0.0000000000000000e+00 0.0000000000000000e+00 0.0000000000000000e+00  0.0000000000000000e+00 0.0000000000000000e+00 0.0000000000000000e+00  0.0000000000000000e+00 0.0000000000000000e+00 0.0000000000000000e+00  0.0000000000000000e+00 0.0000000000000000e+00 0.0000000000000000e+00  0.0000000000000000e+00 0.0000000000000000e+00 0.0000000000000000e+00  0.0000000000000000e+00 0.0000000000000000e+00 0.0000000000000000e+00  0.0000000000000000e+00 0.0000000000000000e+00 0.0000000000000000e+00  0.0000000000000000e+00 0.0000000000000000e+00 0.0000000000000000e+00  0.0000000000000000e+00 0.0000000000000000e+00 0.0000000000000000e+00  0.0000000000000000e+00 0.0000000000000000e+00 0.0000000000000000e+00  0.0000000000000000e+00 0.0000000000000000e+00 0.0000000000000000e+00  0.0000000000000000e+00 0.0000000000000000e+00 0.0000000000000000e+00  0.0000000000000000e+00 0.0000000000000000e+00 0.0000000000000000e+00  0.0000000000000000e+00 0.0000000000000000e+00 0.0000000000000000e+00  0.0000000000000000e+00 0.0000000000000000e+00 0.0000000000000000e+00  0.0000000000000000e+00 0.0000000000000000e+00 0.0000000000000000e+00  0.0000000000000000e+00 0.0000000000000000e+00 0.0000000000000000e+00  0.0000000000000000e+00 0.0000000000000000e+00 0.0000000000000000e+00  0.0000000000000000e+00 0.0000000000000000e+00 0.0000000000000000e+00  0.0000000000000000e+00 0.0000000000000000e+00 0.0000000000000000e+00  0.0000000000000000e+00 0.0000000000000000e+00 0.0000000000000000e+00  0.0000000000000000e+00 0.0000000000000000e+00 0.0000000000000000e+00  0.0000000000000000e+00 0.0000000000000000e+00 0.0000000000000000e+00  0.0000000000000000e+00 0.0000000000000000e+00 0.0000000000000000e+00  0.0000000000000000e+00 0.0000000000000000e+00 0.0000000000000000e+00  0.0000000000000000e+00 0.0000000000000000e+00 0.0000000000000000e+00  0.0000000000000000e+00 0.0000000000000000e+00 0.0000000000000000e+00  0.0000000000000000e+00 0.0000000000000000e+00 0.0000000000000000e+00  0.0000000000000000e+00 0.0000000000000000e+00 0.0000000000000000e+00  0.0000000000000000e+00 0.0000000000000000e+00 0.0000000000000000e+00  0.0000000000000000e+00 0.0000000000000000e+00 0.0000000000000000e+00  0.0000000000000000e+00 0.0000000000000000e+00 0.0000000000000000e+00  0.0000000000000000e+00 0.0000000000000000e+00 0.0000000000000000e+00  0.0000000000000000e+00 0.0000000000000000e+00 0.0000000000000000e+00  0.0000000000000000e+00 0.0000000000000000e+00 0.0000000000000000e+00  0.0000000000000000e+00 0.0000000000000000e+00 0.0000000000000000e+00  0.0000000000000000e+00 0.0000000000000000e+00 0.0000000000000000e+00  0.0000000000000000e+00 0.0000000000000000e+00 0.0000000000000000e+00  0.0000000000000000e+00 0.0000000000000000e+00 0.0000000000000000e+00  0.0000000000000000e+00 0.0000000000000000e+00 0.0000000000000000e+00  0.0000000000000000e+00 0.0000000000000000e+00 0.0000000000000000e+00  0.0000000000000000e+00 0.0000000000000000e+00 0.0000000000000000e+00  0.0000000000000000e+00 0.0000000000000000e+00 0.0000000000000000e+00  0.0000000000000000e+00 0.0000000000000000e+00 0.0000000000000000e+00  0.0000000000000000e+00 0.0000000000000000e+00 0.0000000000000000e+00  0.0000000000000000e+00 0.0000000000000000e+00 0.0000000000000000e+00  0.0000000000000000e+00 0.0000000000000000e+00 0.0000000000000000e+00  0.0000000000000000e+00 0.0000000000000000e+00 0.0000000000000000e+00  0.0000000000000000e+00 0.0000000000000000e+00 0.0000000000000000e+00  0.0000000000000000e+00 0.0000000000000000e+00 0.0000000000000000e+00  0.0000000000000000e+00 0.0000000000000000e+00 0.0000000000000000e+00  0.0000000000000000e+00 0.0000000000000000e+00 0.0000000000000000e+00  -2.4136219417256388e-13 0.0000000000000000e+00 0.0000000000000000e+00  0.0000000000000000e+00 0.0000000000000000e+00 0.0000000000000000e+00  0.0000000000000000e+00 0.0000000000000000e+00 0.0000000000000000e+00  0.0000000000000000e+00 0.0000000000000000e+00 0.0000000000000000e+00  0.0000000000000000e+00 0.0000000000000000e+00 0.0000000000000000e+00  0.0000000000000000e+00 0.0000000000000000e+00 0.0000000000000000e+00  7.3603774200581786e-13 -2.8504753549148749e-17 0.0000000000000000e+00  0.0000000000000000e+00 0.0000000000000000e+00 0.0000000000000000e+00  0.0000000000000000e+00 0.0000000000000000e+00 0.0000000000000000e+00  0.0000000000000000e+00 0.0000000000000000e+00 0.0000000000000000e+00  0.0000000000000000e+00 0.0000000000000000e+00 0.0000000000000000e+00  0.0000000000000000e+00 0.0000000000000000e+00 0.0000000000000000e+00  0.0000000000000000e+00 0.0000000000000000e+00 0.0000000000000000e+00  0.0000000000000000e+00 0.0000000000000000e+00 0.0000000000000000e+00  0.0000000000000000e+00 0.0000000000000000e+00 0.0000000000000000e+00  0.0000000000000000e+00 0.0000000000000000e+00 0.0000000000000000e+00  0.0000000000000000e+00 0.0000000000000000e+00 0.0000000000000000e+00  -6.6834174891556426e-13 1.2565661357784073e-14 0.0000000000000000e+00  0.0000000000000000e+00 0.0000000000000000e+00 0.0000000000000000e+00  0.0000000000000000e+00 0.0000000000000000e+00 0.0000000000000000e+00  0.0000000000000000e+00 0.0000000000000000e+00 0.0000000000000000e+00  0.0000000000000000e+00 0.0000000000000000e+00 0.0000000000000000e+00  7.9801102425753281e-15 -1.2362730533446559e-13 0.0000000000000000e+00  0.0000000000000000e+00 0.0000000000000000e+00 0.0000000000000000e+00  0.0000000000000000e+00 0.0000000000000000e+00 0.0000000000000000e+00  0.0000000000000000e+00 0.0000000000000000e+00 0.0000000000000000e+00  0.0000000000000000e+00 0.0000000000000000e+00 0.0000000000000000e+00  0.0000000000000000e+00 0.0000000000000000e+00 0.0000000000000000e+00  0.0000000000000000e+00 0.0000000000000000e+00 0.0000000000000000e+00  0.0000000000000000e+00 0.0000000000000000e+00 0.0000000000000000e+00  0.0000000000000000e+00 0.0000000000000000e+00 0.0000000000000000e+00  0.0000000000000000e+00 0.0000000000000000e+00 0.0000000000000000e+00  0.0000000000000000e+00 0.0000000000000000e+00 0.0000000000000000e+00  0.0000000000000000e+00 0.0000000000000000e+00 0.0000000000000000e+00  0.0000000000000000e+00 0.0000000000000000e+00 0.0000000000000000e+00  0.0000000000000000e+00 0.0000000000000000e+00 0.0000000000000000e+00  0.0000000000000000e+00 0.0000000000000000e+00 0.0000000000000000e+00  0.0000000000000000e+00 0.0000000000000000e+00 0.0000000000000000e+00  0.0000000000000000e+00 0.0000000000000000e+00 0.0000000000000000e+00  0.0000000000000000e+00 0.0000000000000000e+00 0.0000000000000000e+00  0.0000000000000000e+00 0.0000000000000000e+00 0.0000000000000000e+00  0.0000000000000000e+00 0.0000000000000000e+00 0.0000000000000000e+00  0.0000000000000000e+00 0.0000000000000000e+00 0.0000000000000000e+00  0.0000000000000000e+00 0.0000000000000000e+00 0.0000000000000000e+00  0.0000000000000000e+00 0.0000000000000000e+00 0.0000000000000000e+00  0.0000000000000000e+00 0.0000000000000000e+00 0.0000000000000000e+00  0.0000000000000000e+00 0.0000000000000000e+00 0.0000000000000000e+00  0.0000000000000000e+00 0.0000000000000000e+00 0.0000000000000000e+00  0.0000000000000000e+00 0.0000000000000000e+00 0.0000000000000000e+00  0.0000000000000000e+00 0.0000000000000000e+00 0.0000000000000000e+00  0.0000000000000000e+00 0.0000000000000000e+00 0.0000000000000000e+00  0.0000000000000000e+00 0.0000000000000000e+00 0.0000000000000000e+00  0.0000000000000000e+00 0.0000000000000000e+00 0.0000000000000000e+00  0.0000000000000000e+00 0.0000000000000000e+00 0.0000000000000000e+00  5.6025533844007200e-13 -6.7906292654581327e-14 0.0000000000000000e+00  1.4038964649061075e-06 -1.4352730295799467e-06 0.0000000000000000e+00  2.9821058730088267e-06 -2.1187690165581187e-06 0.0000000000000000e+00  4.5947161692959227e-06 -3.1929792930376764e-06 0.0000000000000000e+00  6.3184715190741792e-06 -4.7089632112372029e-06 0.0000000000000000e+00  7.9694357714808536e-06 -6.6588504415016917e-06 0.0000000000000000e+00  9.7281090012128450e-06 -9.0849741844666328e-06 0.0000000000000000e+00  1.1367528656036587e-05 -1.1872959884579662e-05 0.0000000000000000e+00  1.3004949077712939e-05 -1.5147590316055067e-05 0.0000000000000000e+00  1.4737351793829456e-05 -1.8800797099524162e-05 0.0000000000000000e+00  1.6313155208295944e-05 -2.2851899896819563e-05 0.0000000000000000e+00  1.8004582865851988e-05 -2.7311370169375949e-05 0.0000000000000000e+00  1.9529061474926372e-05 -3.2140139536699402e-05 0.0000000000000000e+00  2.1132745993728654e-05 -3.7343604553080792e-05 0.0000000000000000e+00  2.2603675923271096e-05 -4.2848833761035399e-05 0.0000000000000000e+00  2.4041663134376559e-05 -4.8731607899956323e-05 0.0000000000000000e+00  2.5524017737421393e-05 -5.4906907388986342e-05 0.0000000000000000e+00  2.6857629473019655e-05 -6.1369192512664665e-05 0.0000000000000000e+00  2.8243331924998599e-05 -6.8141811523349941e-05 0.0000000000000000e+00  2.9483342834583614e-05 -7.5158029988007047e-05 0.0000000000000000e+00  3.0757808885992784e-05 -8.2442137930622118e-05 0.0000000000000000e+00  3.1917855433520283e-05 -8.9946035262776080e-05 0.0000000000000000e+00  3.3075087108366680e-05 -9.7691607841201861e-05 0.0000000000000000e+00  3.4137084435031905e-05 -1.0560468961118656e-04 0.0000000000000000e+00  3.5152743901190517e-05 -1.1373192568747380e-04 0.0000000000000000e+00  3.6167023520120795e-05 -1.2201199379208871e-04 0.0000000000000000e+00  3.7093935437107622e-05 -1.3044837366523026e-04 0.0000000000000000e+00  3.7985149452725609e-05 -1.3905137972408085e-04 0.0000000000000000e+00  3.8815454889093658e-05 -1.4775491856286327e-04 0.0000000000000000e+00  3.9608836910960588e-05 -1.5660195091990526e-04 0.0000000000000000e+00  4.0346039609584590e-05 -1.6552528909687201e-04 0.0000000000000000e+00  4.1046354187544988e-05 -1.7456680557173106e-04 0.0000000000000000e+00  4.1693890418355953e-05 -1.8366162910126520e-04 0.0000000000000000e+00  4.2304915730955095e-05 -1.9285281044941136e-04 0.0000000000000000e+00  4.2866707158011306e-05 -2.0207778325323519e-04 0.0000000000000000e+00  4.3391076159115071e-05 -2.1138137136439853e-04 0.0000000000000000e+00  4.3870660780209099e-05 -2.2070324018058415e-04 0.0000000000000000e+00  4.4314116226178905e-05 -2.3008699054871624e-04 0.0000000000000000e+00  4.4715533250788491e-05 -2.3947705362035391e-04 0.0000000000000000e+00  4.5080718416454407e-05 -2.4891635453132228e-04 0.0000000000000000e+00  4.5404667882055631e-05 -2.5835128669381130e-04 0.0000000000000000e+00  4.5688386421272964e-05 -2.6781845193783575e-04 0.0000000000000000e+00  4.5939695842512830e-05 -2.7728721748348232e-04 0.0000000000000000e+00  4.6152274066856552e-05 -2.8676988107495755e-04 0.0000000000000000e+00  4.6344031678781867e-05 -2.9625699594703540e-04 0.0000000000000000e+00  4.6493135048903697e-05 -3.0573648629698361e-04 0.0000000000000000e+00  4.6645422839312133e-05 -3.1525921290303594e-04 0.0000000000000000e+00  4.0197010586799681e-05 -3.2476397122748981e-04 0.0000000000000000e+00  2.7423157913502436e-05 -3.2439890754825616e-04 0.0000000000000000e+00  2.1087880872726757e-05 -3.1481292443719528e-04 0.0000000000000000e+00  2.0960796714669972e-05 -3.0524932896887363e-04 0.0000000000000000e+00  2.0831257290285263e-05 -2.9566751545120879e-04 0.0000000000000000e+00  2.0667302123682064e-05 -2.8610899495889048e-04 0.0000000000000000e+00  2.0481737731146360e-05 -2.7655774131219330e-04 0.0000000000000000e+00  2.0261774363714222e-05 -2.6701847942999982e-04 0.0000000000000000e+00  2.0022569541570507e-05 -2.5749736945239406e-04 0.0000000000000000e+00  1.9745836213041710e-05 -2.4797859385747241e-04 0.0000000000000000e+00  1.9450619514148177e-05 -2.3850123379683976e-04 0.0000000000000000e+00  1.9121385589357968e-05 -2.2902746452857977e-04 0.0000000000000000e+00  1.8780342769817849e-05 -2.1960590264046129e-04 0.0000000000000000e+00  1.8403829802156655e-05 -2.1020021631740113e-04 0.0000000000000000e+00  1.8021997720735527e-05 -2.0085945810415138e-04 0.0000000000000000e+00  1.7602070121474703e-05 -1.9155102894678015e-04 0.0000000000000000e+00  1.7185461230564899e-05 -1.8232304120916458e-04 0.0000000000000000e+00  1.6726203160204949e-05 -1.7314575522354373e-04 0.0000000000000000e+00  1.6279471634460728e-05 -1.6406786823273850e-04 0.0000000000000000e+00  1.5784907057892386e-05 -1.5506216673144804e-04 0.0000000000000000e+00  1.5312477999319781e-05 -1.4617856566379213e-04 0.0000000000000000e+00  1.4785933549567845e-05 -1.3739293893698457e-04 0.0000000000000000e+00  1.4293519435677429e-05 -1.2875533966965030e-04 0.0000000000000000e+00  1.3739236821305186e-05 -1.2024485199255110e-04 0.0000000000000000e+00  1.3221788426260391e-05 -1.1190674647960782e-04 0.0000000000000000e+00  1.2653683605491232e-05 -1.0372069470148449e-04 0.0000000000000000e+00  1.2069754377500960e-05 -9.5754484081548682e-05 0.0000000000000000e+00  1.1530667809806945e-05 -8.7952722711095953e-05 0.0000000000000000e+00  1.0941556372929091e-05 -8.0386212393134438e-05 0.0000000000000000e+00  1.0373394106163467e-05 -7.3059047639081868e-05 0.0000000000000000e+00  9.7712730750301923e-06 -6.5978453114095396e-05 0.0000000000000000e+00  9.1899425680522799e-06 -5.9176289421237624e-05 0.0000000000000000e+00  8.5764644374170769e-06 -5.2641500923011593e-05 0.0000000000000000e+00  8.0162109955758822e-06 -4.6452011044107870e-05 0.0000000000000000e+00  7.3827237794242437e-06 -4.0525841459569343e-05 0.0000000000000000e+00  6.7438450747809071e-06 -3.4994060516816382e-05 0.0000000000000000e+00  6.1873595892433704e-06 -2.9744402152838047e-05 0.0000000000000000e+00  5.5796004204933096e-06 -2.4901563212255131e-05 0.0000000000000000e+00  5.0125251049785343e-06 -2.0436530413183575e-05 0.0000000000000000e+00  4.4144416856075758e-06 -1.6357110187062842e-05 0.0000000000000000e+00  3.8983007557776668e-06 -1.2732220196700750e-05 0.0000000000000000e+00  3.2970016485656312e-06 -9.4592127580087514e-06 0.0000000000000000e+00  2.7007712903869309e-06 -6.6871961776111827e-06 0.0000000000000000e+00  2.2178654352770006e-06 -4.2714079359658242e-06 0.0000000000000000e+00  1.6692295851080059e-06 -2.3296366859347742e-06 0.0000000000000000e+00  1.2199391533739074e-06 -8.4179273610233264e-07 0.0000000000000000e+00  7.1849884577514359e-07 1.7121092343631127e-07 0.0000000000000000e+00  3.6657768607841832e-07 6.8171555353119602e-07 0.0000000000000000e+00  1.2384788639509759e-06 -3.6848701907870013e-07 0.0000000000000000e+00  3.3831929898835595e-05 -3.1023821710100640e-04 0.0000000000000000e+00  3.3727787426345825e-05 -2.9202256072554262e-04 0.0000000000000000e+00  3.2932973058293035e-05 -2.6232405300445329e-04 0.0000000000000000e+00  3.4362952676054968e-06 -2.4220810162958422e-06 0.0000000000000000e+00  3.2196266100188713e-05 -2.4369919313540033e-04 0.0000000000000000e+00  5.5189239159315230e-06 -6.1145184909082137e-06 0.0000000000000000e+00  3.1470655970709143e-05 -2.2482820137750023e-04 0.0000000000000000e+00  8.9698868020746055e-06 -1.5571411555548583e-05 0.0000000000000000e+00  1.1201160767432624e-05 -2.3579392392198282e-05 0.0000000000000000e+00  3.0620286839703291e-05 -2.0609120039707504e-04 0.0000000000000000e+00  1.6433036670989057e-05 -5.0684646607851563e-05 0.0000000000000000e+00  2.8549440095539280e-05 -1.6925818604489781e-04 0.0000000000000000e+00  1.3198347599834158e-05 -3.2830535642335136e-05 0.0000000000000000e+00  1.8473484484526971e-05 -6.3452783267134259e-05 0.0000000000000000e+00  2.7330475497263147e-05 -1.5131314856129920e-04 0.0000000000000000e+00  2.9646274610295353e-05 -1.8754478627962436e-04 0.0000000000000000e+00  2.0346455304771947e-05 -7.7570403638656683e-05 0.0000000000000000e+00  2.5988556612135254e-05 -1.3380602210150253e-04 0.0000000000000000e+00  2.1906974719471037e-05 -9.2023163157677591e-05 0.0000000000000000e+00  2.4703112001701063e-05 -1.1719823710168181e-04 0.0000000000000000e+00  2.3270326038545153e-05 -1.0391230035990527e-04 0.0000000000000000e+00  1.4872853456621085e-05 -4.1031770083188150e-05 0.0000000000000000e+00  3.3143057071117673e-05 -2.7774860766339695e-04 0.0000000000000000e+00  7.2213298844525851e-06 -1.0216964807218134e-05 0.0000000000000000e+00  2.9323919042837815e-05 -3.0097643121379964e-04 0.0000000000000000e+00  1.8116934807218989e-06 -7.6479448849281921e-07 0.0000000000000000e+00  2.8182606166250595e-05 -2.3410499100915449e-04 0.0000000000000000e+00  2.8827223720151793e-05 -2.5304160940662327e-04 0.0000000000000000e+00  5.4407789126783516e-06 -4.5973322825257830e-06 0.0000000000000000e+00  1.1677837237839990e-05 -1.9693833264827339e-05 0.0000000000000000e+00  2.5565593593119702e-05 -1.7817084883672073e-04 0.0000000000000000e+00  2.7422242363880876e-05 -2.1527807339913321e-04 0.0000000000000000e+00  2.0019722181743059e-05 -5.7147525365046687e-05 0.0000000000000000e+00  2.4476130157460938e-05 -1.6002846276193003e-04 0.0000000000000000e+00  1.4158579072028166e-05 -2.8619155694552579e-05 0.0000000000000000e+00  2.2153385641377301e-05 -7.0715936108511917e-05 0.0000000000000000e+00  2.3282427124057970e-05 -1.4227429846628813e-04 0.0000000000000000e+00  2.6548681073730718e-05 -1.9661226194487842e-04 0.0000000000000000e+00  2.4792037184760573e-05 -8.5304270675307412e-05 0.0000000000000000e+00  2.1985379266221765e-05 -1.2501115605174175e-04 0.0000000000000000e+00  5.5856109011566121e-07 -3.2100330371600001e-07 0.0000000000000000e+00  3.6236213031211345e-07 1.9500893757001265e-07 0.0000000000000000e+00  3.6819754642659310e-05 -3.1779849054909234e-04 0.0000000000000000e+00  2.8973075580402610e-06 -1.6893537878874839e-06 0.0000000000000000e+00  2.0