<?xml version="1.0"?>
<VTKFile type="UnstructuredGrid"  version="0.1"  >
<UnstructuredGrid>
<Piece  NumberOfPoints="1419" NumberOfCells="2698">
<Points>
<DataArray  type="Float64"  NumberOfComponents="3"  format="ascii">0 0 0  0 0.41 0  2.5 0 0  2.5 0.41 0  0.6 0.19 0  0.6 0.21 0  0.25 0.2 0  0.15 0.2 0  0.2489897948556636 0.21 0  0.2489897948556636 0.19 0  0.6 0.2 0  0 0.3807142857143437 0  0 0.3514285714286952 0  0 0.3221428571430699 0  0 0.29285714285744 0  0 0.2635714285718054 0  0 0.2342857142861561 0  0 0.2050000000005308 0  0 0.175714285714732 0  0 0.1464285714289574 0  0 0.1171428571431897 0  0 0.08785714285737878 0  0 0.05857142857161107 0  0 0.02928571428580012 0  0.03015443760436003 0 0  0.06140001986583606 0 0  0.09377624077125973 0 0  0.1273239957535082 0 0  0.1620856860351972 0 0  0.1981052433264291 0 0  0.235428184091502 0 0  0.2741016576309132 0 0  0.3141745521465447 0 0  0.3556974926295285 0 0  0.3987229542472677 0 0  0.4433053055141081 0 0  0.4895008759286886 0 0  0.5373680609405097 0 0  0.5869673343216626 0 0  0.6383613676634521 0 0  0.6916151138468254 0 0  0.7467958595648856 0 0  0.8039733463919316 0 0  0.8632198139502143 0 0  0.9246101326867038 0 0  0.9882218810934433 0 0  1.054135445558498 0 0  1.122434100542598 0 0  1.193204177141305 0 0  1.266535089879536 0 0  1.342519516046404 0 0  1.421253448503939 0 0  1.502836389106271 0 0  1.587371439758838 0 0  1.674965418777374 0 0  1.765729001825544 0 0  1.859776908880082 0 0  1.957227977487062 0 0  2.058205329869943 0 0  2.162836591189951 0 0  2.271253957290865 0 0  2.383594446803425 0 0  2.5 0.1024999999997612 0  2.5 0.2049999999994743 0  2.5 0.3074999999997183 0  2.383594446803656 0.41 0  2.271253957291315 0.41 0  2.162836591190598 0.41 0  2.058205329870775 0.41 0  1.957227977488067 0.41 0  1.859776908881246 0.41 0  1.765729001826854 0.41 0  1.674965418778818 0.41 0  1.58737143976041 0.41 0  1.502836389107956 0.41 0  1.421253448505726 0.41 0  1.342519516048286 0.41 0  1.266535089881505 0.41 0  1.193204177143353 0.41 0  1.122434100544716 0.41 0  1.05413544556068 0.41 0  0.9882218810956305 0.41 0  0.9246101326886647 0.41 0  0.8632198139519631 0.41 0  0.8039733463934788 0.41 0  0.7467958595662458 0.41 0  0.6916151138480078 0.41 0  0.6383613676644679 0.41 0  0.5869673343225223 0.41 0  0.5373680609412221 0.41 0  0.4895008759292634 0.41 0  0.4433053055145528 0.41 0  0.3987229542475914 0.41 0  0.3556974926297398 0.41 0  0.3141745521466497 0.41 0  0.2741016576310038 0.41 0  0.2354281840915826 0.41 0  0.1981052433265003 0.41 0  0.1620856860352591 0.41 0  0.1273239957535623 0.41 0  0.09377624077128965 0.41 0  0.06140001986584975 0.41 0  0.03015443760436654 0.41 0  0.2497468076502589 0.2050254481002335 0  0.2497468076502614 0.1949745518997913 0  0.2469965252529372 0.1829317073451959 0  0.2439893735792749 0.1762316384219906 0  0.2400332147834255 0.1700443375285386 0  0.2352133972704371 0.1645032867342007 0  0.2296339016332438 0.1597280261969788 0  0.2234150974217223 0.1558215752574715 0  0.2166911463437691 0.1528682099456123 0  0.2096071079204251 0.1509316448471593 0  0.2023158100364996 0.1500536585536553 0  0.194974551899914 0.1502531923497262 0  0.1877417105387872 0.1515259415822739 0  0.1807733240461124 0.153844448527136 0  0.1742197252835808 0.15715869474974 0  0.1682222986673531 0.1613971801805478 0  0.162910430003803 0.1664684656256651 0  0.1583987151779087 0.1722631454351573 0  0.1547844879126891 0.178656207771761 0  0.1521457199348551 0.1855097315605723 0  0.1505393388476355 0.1926758619366523 0  0.1505393388476328 0.2073241380633295 0  0.1521457199348437 0.2144902684393899 0  0.1547844879126531 0.221343792228163 0  0.1583987151778488 0.2277368545647528 0  0.1629104300036858 0.2335315343742052 0  0.1682222986671726 0.2386028198193036 0  0.1742197252833576 0.2428413052501257 0  0.1807733240458683 0.2461555514727623 0  0.1877417105384929 0.2484740584176516 0  0.1949745518995776 0.2497468076502398 0  0.202315810036185 0.2499463414463592 0  0.2096071079201568 0.2490683551528932 0  0.2166911463435495 0.2471317900544655 0  0.2234150974215506 0.2441784247426195 0  0.2296339016331197 0.2402719738031125 0  0.2352133972703547 0.2354967132658811 0  0.2400332147833751 0.2299556624715287 0  0.2439893735792577 0.2237683615780412 0  0.246996525252926 0.2170682926548348 0  0.25645809709277 0.21 0  0.2639263993298655 0.21 0  0.271394701566961 0.21 0  0.2788630038040554 0.21 0  0.2863313060411479 0.21 0  0.2937996082782405 0.21 0  0.301267910515333 0.21 0  0.3087362127524279 0.21 0  0.3162045149895234 0.21 0  0.3236728172265972 0.21 0  0.3311411194636928 0.21 0  0.3386094217007701 0.21 0  0.3460777239378666 0.21 0  0.3535460261749672 0.21 0  0.3610143284120516 0.21 0  0.3684826306491596 0.21 0  0.3759509328862226 0.21 0  0.383419235123329 0.21 0  0.3908875373604028 0.21 0  0.3983558395975142 0.21 0  0.4058241418345938 0.21 0  0.4132924440716992 0.21 0  0.4207607463087888 0.21 0  0.4282290485459029 0.21 0  0.4356973507830418 0.21 0  0.4431656530201649 0.21 0  0.4506339552573136 0.21 0  0.4581022574944306 0.21 0  0.4655705597315852 0.21 0  0.4730388619686996 0.21 0  0.480507164205851 0.21 0  0.4879754664429498 0.21 0  0.4954437686800938 0.21 0  0.502912070917267 0.21 0  0.5103803731544119 0.21 0  0.5178486753915261 0.21 0  0.5253169776286404 0.21 0  0.5327852798657868 0.21 0  0.5402535821029386 0.21 0  0.54772188434007 0.21 0  0.5551901865771842 0.21 0  0.5626584888143201 0.21 0  0.5701267910514778 0.21 0  0.5775950932886138 0.21 0  0.5850633955257281 0.21 0  0.5925316977628483 0.21 0  0.6 0.2050000000000054 0  0.6 0.1950000000000217 0  0.5925316977628897 0.19 0  0.5850633955257988 0.19 0  0.5775950932887378 0.19 0  0.5701267910515998 0.19 0  0.5626584888145268 0.19 0  0.5551901865773963 0.19 0  0.547721884340339 0.19 0  0.5402535821032429 0.19 0  0.5327852798661811 0.19 0  0.5253169776290537 0.19 0  0.5178486753919799 0.19 0  0.5103803731549078 0.19 0  0.502912070917822 0.19 0  0.4954437686807294 0.19 0  0.4879754664436223 0.19 0  0.4805071642065402 0.19 0  0.4730388619694271 0.19 0  0.4655705597323621 0.19 0  0.4581022574952563 0.19 0  0.4506339552581777 0.19 0  0.4431656530210671 0.19 0  0.4356973507839815 0.19 0  0.4282290485468779 0.19 0  0.4207607463097617 0.19 0  0.4132924440726327 0.19 0  0.4058241418354857 0.19 0  0.3983558395983636 0.19 0  0.3908875373612097 0.19 0  0.3834192351240934 0.19 0  0.3759509328869369 0.19 0  0.3684826306498175 0.19 0  0.361014328412667 0.19 0  0.3535460261755617 0.19 0  0.3460777239384295 0.19 0  0.3386094217012945 0.19 0  0.3311411194641595 0.19 0  0.3236728172270245 0.19 0  0.3162045149898895 0.19 0  0.3087362127527544 0.19 0  0.3012679105156187 0.19 0  0.2937996082784807 0.19 0  0.2863313060413428 0.19 0  0.2788630038042048 0.19 0  0.2713947015670686 0.19 0  0.2639263993299336 0.19 0  0.2564580970927985 0.19 0  0.2607803159922026 0.2000727136295815 0  0.5887803774232762 0.2001272386983733 0  0.5745072403740523 0.2002044435018727 0  0.5511891430099709 0.2001122610077113 0  0.2751288526855082 0.20000000000002 0  0.5365194309847112 0.1999999999999436 0  0.2894621222999649 0.1998691686390484 0  0.5215828265105155 0.1999999999999228 0  0.3127789816668748 0.1998657885438805 0  0.3274069683451451 0.2000000000000796 0  0.5066462220363641 0.199999999999908 0  0.3650630746574081 0.199866017807523 0  0.476773013087985 0.1999999999998713 0  0.3417402379596385 0.1998691686391011 0  0.3796850840047755 0.200000000000134 0  0.4618364086138087 0.1999999999998546 0  0.4917096175621762 0.1999999999998808 0  0.3946216884789568 0.2000000000001512 0  0.446899804139621 0.1999999999998389 0  0.4089549580935208 0.1998691686391595 0  0.4322718174608562 0.200127451265745 0  0.4201487168029707 0.1999966199048527 0  0.3528922713220932 0.2000185703532356 0  0.5633122436674589 0.1999814296467508 0  0.3006558810093873 0.1999966199048318 0  0.5815926498168407 0.1966545283159175 0  0.2677053789419034 0.1964246479135325 0  0.5290511287476175 0.1970915826863981 0  0.5439877332217911 0.197091582686394 0  0.2825131256993216 0.2035478995978015 0  0.3199386661080599 0.202908417313604 0  0.4842413153250809 0.1970915826863873 0  0.5141145242734466 0.1970915826863843 0  0.3722167817676917 0.2029084173136195 0  0.4693047108508938 0.1970915826863783 0  0.3348752705822316 0.202908417313609 0  0.3871533862418661 0.2029084173136212 0  0.4543681063767183 0.1970915826863795 0  0.4991779197992749 0.1970915826863902 0  0.4020059614928624 0.203547899597858 0  0.4394315019025246 0.1970915826863714 0  0.2550657455369551 0.2034088125358657 0  0.2548908499171161 0.1966940311614271 0  0.5946539510196798 0.2024302972968126 0  0.267698176732111 0.2039977513680092 0  0.4261685417851465 0.196409292431739 0  0.3590076176283495 0.196411355804271 0  0.5571672426447437 0.2036011176410121 0  0.3066757059912147 0.1964092924317024 0  0.594380730180568 0.1966558399668133 0  0.4842413153245942 0.2040749161535287 0  0.4693047108503577 0.2040749161535231 0  0.3871533862424271 0.1959250838464788 0  0.372246743208829 0.1959123236376545 0  0.5141145242731028 0.2040749161535395 0  0.4543681063761134 0.2040749161535186 0  0.4019979587101454 0.1959834479682427 0  0.4394608940728603 0.2040870543693135 0  0.5439623148931173 0.2040856076781014 0  0.5290511287473298 0.2040749161535501 0  0.4991779197988497 0.2040749161535382 0  0.3347912413592433 0.1959225448935183 0  0.3199680582793816 0.1959123018030061 0  0.2825051229162361 0.1959834479681729 0  0.3590471196690275 0.2036304442587945 0  0.5571594006495384 0.1963685282145804 0  0.3067669986803285 0.203627750582736 0  0.4262598344738712 0.2036568242185335 0  0.5814408164431408 0.2041285596160068 0  0.5688286748170428 0.1961819304477386 0  0.4145905603063645 0.2038180695522843 0  0.3473758401724931 0.2038180695522752 0  0.2950977245128307 0.2038180695522663 0  0.5688286748170693 0.203818069552238 0  0.2950977245127906 0.1961819304477774 0  0.3473758401723931 0.1961819304478349 0  0.4145905603061963 0.1961819304479011 0  0.2601812407614425 0.2056861609747042
[...]
<PointData  Vectors="f_46-2"> 
<DataArray  type="Float64"  Name="f_46-2"  NumberOfComponents="3" format="ascii">0.0000000000000000e+00 0.0000000000000000e+00 0.0000000000000000e+00  0.0000000000000000e+00 0.0000000000000000e+00 0.0000000000000000e+00  0.0000000000000000e+00 0.0000000000000000e+00 0.0000000000000000e+00  0.0000000000000000e+00 0.0000000000000000e+00 0.0000000000000000e+00  2.6987490164967982e-05 -2.7869712865607706e-04 0.0000000000000000e+00  4.8711152942838714e-05 -2.7952912056655851e-04 0.0000000000000000e+00  0.0000000000000000e+00 0.0000000000000000e+00 0.0000000000000000e+00  0.0000000000000000e+00 0.0000000000000000e+00 0.0000000000000000e+00  0.0000000000000000e+00 0.0000000000000000e+00 0.0000000000000000e+00  0.0000000000000000e+00 0.0000000000000000e+00 0.0000000000000000e+00  3.7490914439761849e-05 -2.7911471402658738e-04 0.0000000000000000e+00  0.0000000000000000e+00 0.0000000000000000e+00 0.0000000000000000e+00  0.0000000000000000e+00 0.0000000000000000e+00 0.0000000000000000e+00  0.0000000000000000e+00 0.0000000000000000e+00 0.0000000000000000e+00  0.0000000000000000e+00 0.0000000000000000e+00 0.0000000000000000e+00  0.0000000000000000e+00 0.0000000000000000e+00 0.0000000000000000e+00  0.0000000000000000e+00 0.0000000000000000e+00 0.0000000000000000e+00  0.0000000000000000e+00 0.0000000000000000e+00 0.0000000000000000e+00  0.0000000000000000e+00 0.0000000000000000e+00 0.0000000000000000e+00  0.0000000000000000e+00 0.0000000000000000e+00 0.0000000000000000e+00  0.0000000000000000e+00 0.0000000000000000e+00 0.0000000000000000e+00  0.0000000000000000e+00 0.0000000000000000e+00 0.0000000000000000e+00  0.0000000000000000e+00 0.0000000000000000e+00 0.0000000000000000e+00  0.0000000000000000e+00 0.0000000000000000e+00 0.0000000000000000e+00  0.0000000000000000e+00 0.0000000000000000e+00 0.0000000000000000e+00  0.0000000000000000e+00 0.0000000000000000e+00 0.0000000000000000e+00  0.0000000000000000e+00 0.0000000000000000e+00 0.0000000000000000e+00  0.0000000000000000e+00 0.0000000000000000e+00 0.0000000000000000e+00  0.0000000000000000e+00 0.0000000000000000e+00 0.0000000000000000e+00  0.0000000000000000e+00 0.0000000000000000e+00 0.0000000000000000e+00  0.0000000000000000e+00 0.0000000000000000e+00 0.0000000000000000e+00  0.0000000000000000e+00 0.0000000000000000e+00 0.0000000000000000e+00  0.0000000000000000e+00 0.0000000000000000e+00 0.0000000000000000e+00  0.0000000000000000e+00 0.0000000000000000e+00 0.0000000000000000e+00  0.0000000000000000e+00 0.0000000000000000e+00 0.0000000000000000e+00  3.2966916078556558e-14 0.0000000000000000e+00 0.0000000000000000e+00  0.0000000000000000e+00 0.0000000000000000e+00 0.0000000000000000e+00  0.0000000000000000e+00 0.0000000000000000e+00 0.0000000000000000e+00  0.0000000000000000e+00 0.0000000000000000e+00 0.0000000000000000e+00  0.0000000000000000e+00 0.0000000000000000e+00 0.0000000000000000e+00  0.0000000000000000e+00 0.0000000000000000e+00 0.0000000000000000e+00  0.0000000000000000e+00 0.0000000000000000e+00 0.0000000000000000e+00  0.0000000000000000e+00 0.0000000000000000e+00 0.0000000000000000e+00  0.0000000000000000e+00 0.0000000000000000e+00 0.0000000000000000e+00  0.0000000000000000e+00 0.0000000000000000e+00 0.0000000000000000e+00  0.0000000000000000e+00 0.0000000000000000e+00 0.0000000000000000e+00  0.0000000000000000e+00 0.0000000000000000e+00 0.0000000000000000e+00  0.0000000000000000e+00 0.0000000000000000e+00 0.0000000000000000e+00  0.0000000000000000e+00 0.0000000000000000e+00 0.0000000000000000e+00  0.0000000000000000e+00 0.0000000000000000e+00 0.0000000000000000e+00  0.0000000000000000e+00 0.0000000000000000e+00 0.0000000000000000e+00  0.0000000000000000e+00 0.0000000000000000e+00 0.0000000000000000e+00  0.0000000000000000e+00 0.0000000000000000e+00 0.0000000000000000e+00  0.0000000000000000e+00 0.0000000000000000e+00 0.0000000000000000e+00  0.0000000000000000e+00 0.0000000000000000e+00 0.0000000000000000e+00  0.0000000000000000e+00 0.0000000000000000e+00 0.0000000000000000e+00  0.0000000000000000e+00 0.0000000000000000e+00 0.0000000000000000e+00  0.0000000000000000e+00 0.0000000000000000e+00 0.0000000000000000e+00  0.0000000000000000e+00 0.0000000000000000e+00 0.0000000000000000e+00  0.0000000000000000e+00 0.0000000000000000e+00 0.0000000000000000e+00  0.0000000000000000e+00 0.0000000000000000e+00 0.0000000000000000e+00  0.0000000000000000e+00 0.0000000000000000e+00 0.0000000000000000e+00  0.0000000000000000e+00 0.0000000000000000e+00 0.0000000000000000e+00  0.0000000000000000e+00 0.0000000000000000e+00 0.0000000000000000e+00  0.0000000000000000e+00 0.0000000000000000e+00 0.0000000000000000e+00  0.0000000000000000e+00 0.0000000000000000e+00 0.0000000000000000e+00  0.0000000000000000e+00 0.0000000000000000e+00 0.0000000000000000e+00  0.0000000000000000e+00 0.0000000000000000e+00 0.0000000000000000e+00  0.0000000000000000e+00 0.0000000000000000e+00 0.0000000000000000e+00  0.0000000000000000e+00 0.0000000000000000e+00 0.0000000000000000e+00  0.0000000000000000e+00 0.0000000000000000e+00 0.0000000000000000e+00  0.0000000000000000e+00 0.0000000000000000e+00 0.0000000000000000e+00  0.0000000000000000e+00 0.0000000000000000e+00 0.0000000000000000e+00  0.0000000000000000e+00 0.0000000000000000e+00 0.0000000000000000e+00  0.0000000000000000e+00 0.0000000000000000e+00 0.0000000000000000e+00  0.0000000000000000e+00 0.0000000000000000e+00 0.0000000000000000e+00  0.0000000000000000e+00 0.0000000000000000e+00 0.0000000000000000e+00  0.0000000000000000e+00 0.0000000000000000e+00 0.0000000000000000e+00  0.0000000000000000e+00 0.0000000000000000e+00 0.0000000000000000e+00  0.0000000000000000e+00 0.0000000000000000e+00 0.0000000000000000e+00  0.0000000000000000e+00 0.0000000000000000e+00 0.0000000000000000e+00  0.0000000000000000e+00 0.0000000000000000e+00 0.0000000000000000e+00  0.0000000000000000e+00 0.0000000000000000e+00 0.0000000000000000e+00  0.0000000000000000e+00 0.0000000000000000e+00 0.0000000000000000e+00  0.0000000000000000e+00 0.0000000000000000e+00 0.0000000000000000e+00  0.0000000000000000e+00 0.0000000000000000e+00 0.0000000000000000e+00  0.0000000000000000e+00 0.0000000000000000e+00 0.0000000000000000e+00  0.0000000000000000e+00 0.0000000000000000e+00 0.0000000000000000e+00  -1.3023665238354854e-13 0.0000000000000000e+00 0.0000000000000000e+00  0.0000000000000000e+00 0.0000000000000000e+00 0.0000000000000000e+00  0.0000000000000000e+00 0.0000000000000000e+00 0.0000000000000000e+00  0.0000000000000000e+00 0.0000000000000000e+00 0.0000000000000000e+00  0.0000000000000000e+00 0.0000000000000000e+00 0.0000000000000000e+00  0.0000000000000000e+00 0.0000000000000000e+00 0.0000000000000000e+00  -5.2493367627502537e-13 -9.4716632960349264e-17 0.0000000000000000e+00  0.0000000000000000e+00 0.0000000000000000e+00 0.0000000000000000e+00  0.0000000000000000e+00 0.0000000000000000e+00 0.0000000000000000e+00  0.0000000000000000e+00 0.0000000000000000e+00 0.0000000000000000e+00  0.0000000000000000e+00 0.0000000000000000e+00 0.0000000000000000e+00  0.0000000000000000e+00 0.0000000000000000e+00 0.0000000000000000e+00  0.0000000000000000e+00 0.0000000000000000e+00 0.0000000000000000e+00  0.0000000000000000e+00 0.0000000000000000e+00 0.0000000000000000e+00  0.0000000000000000e+00 0.0000000000000000e+00 0.0000000000000000e+00  0.0000000000000000e+00 0.0000000000000000e+00 0.0000000000000000e+00  0.0000000000000000e+00 0.0000000000000000e+00 0.0000000000000000e+00  8.4334172229331027e-14 -1.0684510372335938e-13 0.0000000000000000e+00  0.0000000000000000e+00 0.0000000000000000e+00 0.0000000000000000e+00  0.0000000000000000e+00 0.0000000000000000e+00 0.0000000000000000e+00  0.0000000000000000e+00 0.0000000000000000e+00 0.0000000000000000e+00  0.0000000000000000e+00 0.0000000000000000e+00 0.0000000000000000e+00  0.0000000000000000e+00 0.0000000000000000e+00 0.0000000000000000e+00  0.0000000000000000e+00 0.0000000000000000e+00 0.0000000000000000e+00  0.0000000000000000e+00 0.0000000000000000e+00 0.0000000000000000e+00  0.0000000000000000e+00 0.0000000000000000e+00 0.0000000000000000e+00  0.0000000000000000e+00 0.0000000000000000e+00 0.0000000000000000e+00  0.0000000000000000e+00 0.0000000000000000e+00 0.0000000000000000e+00  0.0000000000000000e+00 0.0000000000000000e+00 0.0000000000000000e+00  0.0000000000000000e+00 0.0000000000000000e+00 0.0000000000000000e+00  0.0000000000000000e+00 0.0000000000000000e+00 0.0000000000000000e+00  0.0000000000000000e+00 0.0000000000000000e+00 0.0000000000000000e+00  0.0000000000000000e+00 0.0000000000000000e+00 0.0000000000000000e+00  0.0000000000000000e+00 0.0000000000000000e+00 0.0000000000000000e+00  0.0000000000000000e+00 0.0000000000000000e+00 0.0000000000000000e+00  0.0000000000000000e+00 0.0000000000000000e+00 0.0000000000000000e+00  0.0000000000000000e+00 0.0000000000000000e+00 0.0000000000000000e+00  0.0000000000000000e+00 0.0000000000000000e+00 0.0000000000000000e+00  0.0000000000000000e+00 0.0000000000000000e+00 0.0000000000000000e+00  0.0000000000000000e+00 0.0000000000000000e+00 0.0000000000000000e+00  0.0000000000000000e+00 0.0000000000000000e+00 0.0000000000000000e+00  0.0000000000000000e+00 0.0000000000000000e+00 0.0000000000000000e+00  0.0000000000000000e+00 0.0000000000000000e+00 0.0000000000000000e+00  0.0000000000000000e+00 0.0000000000000000e+00 0.0000000000000000e+00  0.0000000000000000e+00 0.0000000000000000e+00 0.0000000000000000e+00  0.0000000000000000e+00 0.0000000000000000e+00 0.0000000000000000e+00  0.0000000000000000e+00 0.0000000000000000e+00 0.0000000000000000e+00  0.0000000000000000e+00 0.0000000000000000e+00 0.0000000000000000e+00  0.0000000000000000e+00 0.0000000000000000e+00 0.0000000000000000e+00  0.0000000000000000e+00 0.0000000000000000e+00 0.0000000000000000e+00  0.0000000000000000e+00 0.0000000000000000e+00 0.0000000000000000e+00  0.0000000000000000e+00 0.0000000000000000e+00 0.0000000000000000e+00  0.0000000000000000e+00 0.0000000000000000e+00 0.0000000000000000e+00  0.0000000000000000e+00 0.0000000000000000e+00 0.0000000000000000e+00  1.2617809883724165e-12 -6.8381976906675355e-14 0.0000000000000000e+00  1.5207818184642279e-06 -1.6058705855511640e-06 0.0000000000000000e+00  3.2135615357469869e-06 -2.2785951636895501e-06 0.0000000000000000e+00  4.9496628894341524e-06 -3.2904286649936244e-06 0.0000000000000000e+00  6.7866787910394662e-06 -4.6953011780269259e-06 0.0000000000000000e+00  8.5522873738939925e-06 -6.4827771406638744e-06 0.0000000000000000e+00  1.0402732844538905e-05 -8.6943714185956086e-06 0.0000000000000000e+00  1.2139800916395427e-05 -1.1219381640652790e-05 0.0000000000000000e+00  1.3863373678095673e-05 -1.4164943162369700e-05 0.0000000000000000e+00  1.5659072845197177e-05 -1.7436414432566773e-05 0.0000000000000000e+00  1.7306305725216349e-05 -2.1042225259263566e-05 0.0000000000000000e+00  1.9039632806917410e-05 -2.5000515981401602e-05 0.0000000000000000e+00  2.0618999547850357e-05 -2.9261932379153058e-05 0.0000000000000000e+00  2.2250568407695619e-05 -3.3841124037585158e-05 0.0000000000000000e+00  2.3761320150389562e-05 -3.8671041421483515e-05 0.0000000000000000e+00  2.5231720549166597e-05 -4.3812187124153229e-05 0.0000000000000000e+00  2.6729080951084202e-05 -4.9197007358723707e-05 0.0000000000000000e+00  2.8091258823695097e-05 -5.4811571720549857e-05 0.0000000000000000e+00  2.9484643220080183e-05 -6.0687029520584555e-05 0.0000000000000000e+00  3.0748989337804908e-05 -6.6752735891896492e-05 0.0000000000000000e+00  3.2031230023253848e-05 -7.3042951087452213e-05 0.0000000000000000e+00  3.3210830550141434e-05 -7.9503507203860130e-05 0.0000000000000000e+00  3.4376799791277488e-05 -8.6162988631503979e-05 0.0000000000000000e+00  3.5459408348170545e-05 -9.2956698709175013e-05 0.0000000000000000e+00  3.6495477174821563e-05 -9.9921001038191269e-05 0.0000000000000000e+00  3.7523417826599586e-05 -1.0701009337947670e-04 0.0000000000000000e+00  3.8471232192694635e-05 -1.1421978744282188e-04 0.0000000000000000e+00  3.9381557558160436e-05 -1.2156872822397205e-04 0.0000000000000000e+00  4.0234887836545657e-05 -1.2899168218715492e-04 0.0000000000000000e+00  4.1050114331555035e-05 -1.3653465190902923e-04 0.0000000000000000e+00  4.1812316974004138e-05 -1.4413263795957991e-04 0.0000000000000000e+00  4.2536804523986216e-05 -1.5182991436318079e-04 0.0000000000000000e+00  4.3210769610013408e-05 -1.5956337555992009e-04 0.0000000000000000e+00  4.3847419380998491e-05 -1.6737884317401567e-04 0.0000000000000000e+00  4.4436253818049579e-05 -1.7521482118516859e-04 0.0000000000000000e+00  4.4986604772061761e-05 -1.8311924428098678e-04 0.0000000000000000e+00  4.5492913349826872e-05 -1.9103193056388166e-04 0.0000000000000000e+00  4.5961950726886685e-05 -1.9899957452146474e-04 0.0000000000000000e+00  4.6388873493206562e-05 -2.0696635870574894e-04 0.0000000000000000e+00  4.6778079909857179e-05 -2.1497826576933666e-04 0.0000000000000000e+00  4.7125086506620457e-05 -2.2298067302467631e-04 0.0000000000000000e+00  4.7429583228447697e-05 -2.3101241796997794e-04 0.0000000000000000e+00  4.7700879684760827e-05 -2.3904333711646160e-04 0.0000000000000000e+00  4.7931314826956923e-05 -2.4708634710898954e-04 0.0000000000000000e+00  4.8139488036106225e-05 -2.5513255721544250e-04 0.0000000000000000e+00  4.8302395636981265e-05 -2.6316906329062269e-04 0.0000000000000000e+00  4.8469453057281835e-05 -2.7125188161987565e-04 0.0000000000000000e+00  4.2980067768866831e-05 -2.7931586402182032e-04 0.0000000000000000e+00  3.2132551626369112e-05 -2.7891741052856096e-04 0.0000000000000000e+00  2.6762976190321783e-05 -2.7076712370668139e-04 0.0000000000000000e+00  2.6620854719689308e-05 -2.6263953338078860e-04 0.0000000000000000e+00  2.6476055535182330e-05 -2.5449133443364779e-04 0.0000000000000000e+00  2.6292585317210097e-05 -2.4636739820780239e-04 0.0000000000000000e+00  2.6085495445656505e-05 -2.3824998180528692e-04 0.0000000000000000e+00  2.5839990617820339e-05 -2.3014270014803435e-04 0.0000000000000000e+00  2.5571339044328521e-05 -2.2205217710045220e-04 0.0000000000000000e+00  2.5262065962016410e-05 -2.1395960852313426e-04 0.0000000000000000e+00  2.4928862760427786e-05 -2.0590647510330837e-04 0.0000000000000000e+00  2.4559542412050445e-05 -1.9784968931730812e-04 0.0000000000000000e+00  2.4171919759964208e-05 -1.8984118252332360e-04 0.0000000000000000e+00  2.3747336169016264e-05 -1.8183856686827932e-04 0.0000000000000000e+00  2.3309493970568795e-05 -1.7389407962714509e-04 0.0000000000000000e+00  2.2832963063484918e-05 -1.6596884911340053e-04 0.0000000000000000e+00  2.2350424200202764e-05 -1.5811374453163576e-04 0.0000000000000000e+00  2.1825555708669478e-05 -1.5029232945915110e-04 0.0000000000000000e+00  2.1302262222446329e-05 -1.4255600905805561e-04 0.0000000000000000e+00  2.0732749605865021e-05 -1.3487034185898528e-04 0.0000000000000000e+00  2.0172486033068541e-05 -1.2728801056053899e-04 0.0000000000000000e+00  1.9561051891781373e-05 -1.1977750732201148e-04 0.0000000000000000e+00  1.8968610684416002e-05 -1.1239111355287010e-04 0.0000000000000000e+00  1.8318497139209939e-05 -1.0510005950521131e-04 0.0000000000000000e+00  1.7688486044134845e-05 -9.7950754339144462e-05 0.0000000000000000e+00  1.7011254489984479e-05 -9.0921115351739302e-05 0.0000000000000000e+00  1.6312363724037165e-05 -8.4068077344372113e-05 0.0000000000000000e+00  1.5643664487467135e-05 -7.7347579422109363e-05 0.0000000000000000e+00  1.4924528614152093e-05 -7.0812565183794377e-05 0.0000000000000000e+00  1.4213964291585579e-05 -6.4476189528413767e-05 0.0000000000000000e+00  1.3467472000202837e-05 -5.8332580458131407e-05 0.0000000000000000e+00  1.2729365855872315e-05 -5.2420866902333369e-05 0.0000000000000000e+00  1.1956112473502749e-05 -4.6720163146323389e-05 0.0000000000000000e+00  1.1216772103083250e-05 -4.1306668535378146e-05 0.0000000000000000e+00  1.0411077950549731e-05 -3.6107195068894148e-05 0.0000000000000000e+00  9.5918831722291461e-06 -3.1235255262809677e-05 0.0000000000000000e+00  8.8356295381823966e-06 -2.6597912328033903e-05 0.0000000000000000e+00  8.0270733636489262e-06 -2.2298564630620375e-05 0.0000000000000000e+00  7.2450089612334472e-06 -1.8322763229404256e-05 0.0000000000000000e+00  6.4303014922490116e-06 -1.4669181006716398e-05 0.0000000000000000e+00  5.6789267334515027e-06 -1.1407364877062542e-05 0.0000000000000000e+00  4.8518248081075097e-06 -8.4483255014141603e-06 0.0000000000000000e+00  4.0256405483701756e-06 -5.9256810637796094e-06 0.0000000000000000e+00  3.2985728827800425e-06 -3.7165607269906247e-06 0.0000000000000000e+00  2.5146601487598928e-06 -1.9250673486693696e-06 0.0000000000000000e+00  1.8261305540402998e-06 -5.4047638227482178e-07 0.0000000000000000e+00  1.1035675438560968e-06 4.0332947671139651e-07 0.0000000000000000e+00  5.4431206678812865e-07 8.7179041412180166e-07 0.0000000000000000e+00  1.4396557087019152e-06 -3.7142987708415083e-07 0.0000000000000000e+00  3.7537858653489758e-05 -2.6693421216560310e-04 0.0000000000000000e+00  3.7397199498046780e-05 -2.5146798084609001e-04 0.0000000000000000e+00  3.6554100653581189e-05 -2.2625367911164497e-04 0.0000000000000000e+00  3.9987528137341001e-06 -2.3008232751757880e-06 0.0000000000000000e+00  3.5783276806077672e-05 -2.1043731842618197e-04 0.0000000000000000e+00  6.4179493304806294e-06 -5.6993894469170818e-06 0.0000000000000000e+00  3.4991505654980280e-05 -1.9440856843411751e-04 0.0000000000000000e+00  1.0369300225986499e-05 -1.4259567931768110e-05 0.0000000000000000e+00  1.2867826361662975e-05 -2.1415541035834326e-05 0.0000000000000000e+00  3.4065268657953184e-05 -1.7848625236678123e-04 0.0000000000000000e+00  1.8689497642276722e-05 -4.5269583969869744e-05 0.0000000000000000e+00  3.1815263346893926e-05 -1.4714855132213312e-04 0.0000000000000000e+00  1.5117121165727728e-05 -2.9604138693908361e-05 0.0000000000000000e+00  2.0894026380097468e-05 -5.6388857514425329e-05 0.0000000000000000e+00  3.0493714820810749e-05 -1.3185263845260858e-04 0.0000000000000000e+00  3.3006122204597985e-05 -1.6271470949709137e-04 0.0000000000000000e+00  2.2930996303017028e-05 -6.8616479970088381e-05 0.0000000000000000e+00  2.9040782136959619e-05 -1.1690483180824147e-04 0.0000000000000000e+00  2.4653432099683040e-05 -8.1077491044500902e-05 0.0000000000000000e+00  2.7617882933313979e-05 -1.0269763286400776e-04 0.0000000000000000e+00  2.6099927663252735e-05 -9.1299689645232544e-05 0.0000000000000000e+00  1.6944388800664799e-05 -3.6821940793268192e-05 0.0000000000000000e+00  3.6825730747871916e-05 -2.3934793804232833e-04 0.0000000000000000e+00  8.3609430851781846e-06 -9.4341366520427392e-06 0.0000000000000000e+00  3.3689799807779260e-05 -2.5904953804730519e-04 0.0000000000000000e+00  2.2309335558029118e-06 -6.4739125138014856e-07 0.0000000000000000e+00  3.2290009099178921e-05 -2.0225376687756932e-04 0.0000000000000000e+00  3.2999660086481026e-05 -2.1833969557012527e-04 0.0000000000000000e+00  6.0996605899010511e-06 -4.4120517018401183e-06 0.0000000000000000e+00  1.3037464515480746e-05 -1.8035534640386537e-05 0.0000000000000000e+00  2.9407037024790445e-05 -1.5469080398776614e-04 0.0000000000000000e+00  3.1452866602829017e-05 -1.8625508929356587e-04 0.0000000000000000e+00  2.2025288438956405e-05 -5.0977453771461937e-05 0.0000000000000000e+00  2.8205129321297179e-05 -1.3923380753179200e-04 0.0000000000000000e+00  1.5739875863131279e-05 -2.5965964409035148e-05 0.0000000000000000e+00  2.4293027786055350e-05 -6.2754185788837659e-05 0.0000000000000000e+00  2.6886843328965620e-05 -1.2408471330712536e-04 0.0000000000000000e+00  3.0490651362033396e-05 -1.7038411952482731e-04 0.0000000000000000e+00  2.6963225941115825e-05 -7.5370446781006483e-05 0.0000000000000000e+00  2.5453168057437366e-05 -1.0932679969018055e-04 0.0000000000000000e+00  6.2732811584456727e-07 -3.7447072445578210e-07 0.0000000000000000e+00  4.3982432718222564e-07 2.2784244274311659e-07 0.0000000000000000e+00  4.0087681690572891e-05 -2.7336788993107442e-04 0.0000000000000000e+00  3.2376761299152399e-06 -1.7282764094376853e-06 0.0000000000000000e+00  2.34