<?xml version="1.0"?>
<VTKFile type="UnstructuredGrid"  version="0.1"  >
<UnstructuredGrid>
<Piece  NumberOfPoints="1419" NumberOfCells="2698">
<Points>
<DataArray  type="Float64"  NumberOfComponents="3"  format="ascii">0 0 0  0 0.41 0  2.5 0 0  2.5 0.41 0  0.6 0.19 0  0.6 0.21 0  0.25 0.2 0  0.15 0.2 0  0.2489897948556636 0.21 0  0.2489897948556636 0.19 0  0.6 0.2 0  0 0.3807142857143437 0  0 0.3514285714286952 0  0 0.3221428571430699 0  0 0.29285714285744 0  0 0.2635714285718054 0  0 0.2342857142861561 0  0 0.2050000000005308 0  0 0.175714285714732 0  0 0.1464285714289574 0  0 0.1171428571431897 0  0 0.08785714285737878 0  0 0.05857142857161107 0  0 0.02928571428580012 0  0.03015443760436003 0 0  0.06140001986583606 0 0  0.09377624077125973 0 0  0.1273239957535082 0 0  0.1620856860351972 0 0  0.1981052433264291 0 0  0.235428184091502 0 0  0.2741016576309132 0 0  0.3141745521465447 0 0  0.3556974926295285 0 0  0.3987229542472677 0 0  0.4433053055141081 0 0  0.4895008759286886 0 0  0.5373680609405097 0 0  0.5869673343216626 0 0  0.6383613676634521 0 0  0.6916151138468254 0 0  0.7467958595648856 0 0  0.8039733463919316 0 0  0.8632198139502143 0 0  0.9246101326867038 0 0  0.9882218810934433 0 0  1.054135445558498 0 0  1.122434100542598 0 0  1.193204177141305 0 0  1.266535089879536 0 0  1.342519516046404 0 0  1.421253448503939 0 0  1.502836389106271 0 0  1.587371439758838 0 0  1.674965418777374 0 0  1.765729001825544 0 0  1.859776908880082 0 0  1.957227977487062 0 0  2.058205329869943 0 0  2.162836591189951 0 0  2.271253957290865 0 0  2.383594446803425 0 0  2.5 0.1024999999997612 0  2.5 0.2049999999994743 0  2.5 0.3074999999997183 0  2.383594446803656 0.41 0  2.271253957291315 0.41 0  2.162836591190598 0.41 0  2.058205329870775 0.41 0  1.957227977488067 0.41 0  1.859776908881246 0.41 0  1.765729001826854 0.41 0  1.674965418778818 0.41 0  1.58737143976041 0.41 0  1.502836389107956 0.41 0  1.421253448505726 0.41 0  1.342519516048286 0.41 0  1.266535089881505 0.41 0  1.193204177143353 0.41 0  1.122434100544716 0.41 0  1.05413544556068 0.41 0  0.9882218810956305 0.41 0  0.9246101326886647 0.41 0  0.8632198139519631 0.41 0  0.8039733463934788 0.41 0  0.7467958595662458 0.41 0  0.6916151138480078 0.41 0  0.6383613676644679 0.41 0  0.5869673343225223 0.41 0  0.5373680609412221 0.41 0  0.4895008759292634 0.41 0  0.4433053055145528 0.41 0  0.3987229542475914 0.41 0  0.3556974926297398 0.41 0  0.3141745521466497 0.41 0  0.2741016576310038 0.41 0  0.2354281840915826 0.41 0  0.1981052433265003 0.41 0  0.1620856860352591 0.41 0  0.1273239957535623 0.41 0  0.09377624077128965 0.41 0  0.06140001986584975 0.41 0  0.03015443760436654 0.41 0  0.2497468076502589 0.2050254481002335 0  0.2497468076502614 0.1949745518997913 0  0.2469965252529372 0.1829317073451959 0  0.2439893735792749 0.1762316384219906 0  0.2400332147834255 0.1700443375285386 0  0.2352133972704371 0.1645032867342007 0  0.2296339016332438 0.1597280261969788 0  0.2234150974217223 0.1558215752574715 0  0.2166911463437691 0.1528682099456123 0  0.2096071079204251 0.1509316448471593 0  0.2023158100364996 0.1500536585536553 0  0.194974551899914 0.1502531923497262 0  0.1877417105387872 0.1515259415822739 0  0.1807733240461124 0.153844448527136 0  0.1742197252835808 0.15715869474974 0  0.1682222986673531 0.1613971801805478 0  0.162910430003803 0.1664684656256651 0  0.1583987151779087 0.1722631454351573 0  0.1547844879126891 0.178656207771761 0  0.1521457199348551 0.1855097315605723 0  0.1505393388476355 0.1926758619366523 0  0.1505393388476328 0.2073241380633295 0  0.1521457199348437 0.2144902684393899 0  0.1547844879126531 0.221343792228163 0  0.1583987151778488 0.2277368545647528 0  0.1629104300036858 0.2335315343742052 0  0.1682222986671726 0.2386028198193036 0  0.1742197252833576 0.2428413052501257 0  0.1807733240458683 0.2461555514727623 0  0.1877417105384929 0.2484740584176516 0  0.1949745518995776 0.2497468076502398 0  0.202315810036185 0.2499463414463592 0  0.2096071079201568 0.2490683551528932 0  0.2166911463435495 0.2471317900544655 0  0.2234150974215506 0.2441784247426195 0  0.2296339016331197 0.2402719738031125 0  0.2352133972703547 0.2354967132658811 0  0.2400332147833751 0.2299556624715287 0  0.2439893735792577 0.2237683615780412 0  0.246996525252926 0.2170682926548348 0  0.25645809709277 0.21 0  0.2639263993298655 0.21 0  0.271394701566961 0.21 0  0.2788630038040554 0.21 0  0.2863313060411479 0.21 0  0.2937996082782405 0.21 0  0.301267910515333 0.21 0  0.3087362127524279 0.21 0  0.3162045149895234 0.21 0  0.3236728172265972 0.21 0  0.3311411194636928 0.21 0  0.3386094217007701 0.21 0  0.3460777239378666 0.21 0  0.3535460261749672 0.21 0  0.3610143284120516 0.21 0  0.3684826306491596 0.21 0  0.3759509328862226 0.21 0  0.383419235123329 0.21 0  0.3908875373604028 0.21 0  0.3983558395975142 0.21 0  0.4058241418345938 0.21 0  0.4132924440716992 0.21 0  0.4207607463087888 0.21 0  0.4282290485459029 0.21 0  0.4356973507830418 0.21 0  0.4431656530201649 0.21 0  0.4506339552573136 0.21 0  0.4581022574944306 0.21 0  0.4655705597315852 0.21 0  0.4730388619686996 0.21 0  0.480507164205851 0.21 0  0.4879754664429498 0.21 0  0.4954437686800938 0.21 0  0.502912070917267 0.21 0  0.5103803731544119 0.21 0  0.5178486753915261 0.21 0  0.5253169776286404 0.21 0  0.5327852798657868 0.21 0  0.5402535821029386 0.21 0  0.54772188434007 0.21 0  0.5551901865771842 0.21 0  0.5626584888143201 0.21 0  0.5701267910514778 0.21 0  0.5775950932886138 0.21 0  0.5850633955257281 0.21 0  0.5925316977628483 0.21 0  0.6 0.2050000000000054 0  0.6 0.1950000000000217 0  0.5925316977628897 0.19 0  0.5850633955257988 0.19 0  0.5775950932887378 0.19 0  0.5701267910515998 0.19 0  0.5626584888145268 0.19 0  0.5551901865773963 0.19 0  0.547721884340339 0.19 0  0.5402535821032429 0.19 0  0.5327852798661811 0.19 0  0.5253169776290537 0.19 0  0.5178486753919799 0.19 0  0.5103803731549078 0.19 0  0.502912070917822 0.19 0  0.4954437686807294 0.19 0  0.4879754664436223 0.19 0  0.4805071642065402 0.19 0  0.4730388619694271 0.19 0  0.4655705597323621 0.19 0  0.4581022574952563 0.19 0  0.4506339552581777 0.19 0  0.4431656530210671 0.19 0  0.4356973507839815 0.19 0  0.4282290485468779 0.19 0  0.4207607463097617 0.19 0  0.4132924440726327 0.19 0  0.4058241418354857 0.19 0  0.3983558395983636 0.19 0  0.3908875373612097 0.19 0  0.3834192351240934 0.19 0  0.3759509328869369 0.19 0  0.3684826306498175 0.19 0  0.361014328412667 0.19 0  0.3535460261755617 0.19 0  0.3460777239384295 0.19 0  0.3386094217012945 0.19 0  0.3311411194641595 0.19 0  0.3236728172270245 0.19 0  0.3162045149898895 0.19 0  0.3087362127527544 0.19 0  0.3012679105156187 0.19 0  0.2937996082784807 0.19 0  0.2863313060413428 0.19 0  0.2788630038042048 0.19 0  0.2713947015670686 0.19 0  0.2639263993299336 0.19 0  0.2564580970927985 0.19 0  0.2607803159922026 0.2000727136295815 0  0.5887803774232762 0.2001272386983733 0  0.5745072403740523 0.2002044435018727 0  0.5511891430099709 0.2001122610077113 0  0.2751288526855082 0.20000000000002 0  0.5365194309847112 0.1999999999999436 0  0.2894621222999649 0.1998691686390484 0  0.5215828265105155 0.1999999999999228 0  0.3127789816668748 0.1998657885438805 0  0.3274069683451451 0.2000000000000796 0  0.5066462220363641 0.199999999999908 0  0.3650630746574081 0.199866017807523 0  0.476773013087985 0.1999999999998713 0  0.3417402379596385 0.1998691686391011 0  0.3796850840047755 0.200000000000134 0  0.4618364086138087 0.1999999999998546 0  0.4917096175621762 0.1999999999998808 0  0.3946216884789568 0.2000000000001512 0  0.446899804139621 0.1999999999998389 0  0.4089549580935208 0.1998691686391595 0  0.4322718174608562 0.200127451265745 0  0.4201487168029707 0.1999966199048527 0  0.3528922713220932 0.2000185703532356 0  0.5633122436674589 0.1999814296467508 0  0.3006558810093873 0.1999966199048318 0  0.5815926498168407 0.1966545283159175 0  0.2677053789419034 0.1964246479135325 0  0.5290511287476175 0.1970915826863981 0  0.5439877332217911 0.197091582686394 0  0.2825131256993216 0.2035478995978015 0  0.3199386661080599 0.202908417313604 0  0.4842413153250809 0.1970915826863873 0  0.5141145242734466 0.1970915826863843 0  0.3722167817676917 0.2029084173136195 0  0.4693047108508938 0.1970915826863783 0  0.3348752705822316 0.202908417313609 0  0.3871533862418661 0.2029084173136212 0  0.4543681063767183 0.1970915826863795 0  0.4991779197992749 0.1970915826863902 0  0.4020059614928624 0.203547899597858 0  0.4394315019025246 0.1970915826863714 0  0.2550657455369551 0.2034088125358657 0  0.2548908499171161 0.1966940311614271 0  0.5946539510196798 0.2024302972968126 0  0.267698176732111 0.2039977513680092 0  0.4261685417851465 0.196409292431739 0  0.3590076176283495 0.196411355804271 0  0.5571672426447437 0.2036011176410121 0  0.3066757059912147 0.1964092924317024 0  0.594380730180568 0.1966558399668133 0  0.4842413153245942 0.2040749161535287 0  0.4693047108503577 0.2040749161535231 0  0.3871533862424271 0.1959250838464788 0  0.372246743208829 0.1959123236376545 0  0.5141145242731028 0.2040749161535395 0  0.4543681063761134 0.2040749161535186 0  0.4019979587101454 0.1959834479682427 0  0.4394608940728603 0.2040870543693135 0  0.5439623148931173 0.2040856076781014 0  0.5290511287473298 0.2040749161535501 0  0.4991779197988497 0.2040749161535382 0  0.3347912413592433 0.1959225448935183 0  0.3199680582793816 0.1959123018030061 0  0.2825051229162361 0.1959834479681729 0  0.3590471196690275 0.2036304442587945 0  0.5571594006495384 0.1963685282145804 0  0.3067669986803285 0.203627750582736 0  0.4262598344738712 0.2036568242185335 0  0.5814408164431408 0.2041285596160068 0  0.5688286748170428 0.1961819304477386 0  0.4145905603063645 0.2038180695522843 0  0.3473758401724931 0.2038180695522752 0  0.2950977245128307 0.2038180695522663 0  0.5688286748170693 0.203818069552238 0  0.2950977245127906 0.1961819304477774 0  0.3473758401723931 0.1961819304478349 0  0.4145905603061963 0.1961819304479011 0  0.2601812407614425 0.2056861609747042
[...]
<PointData  Vectors="f_46-2"> 
<DataArray  type="Float64"  Name="f_46-2"  NumberOfComponents="3" format="ascii">0.0000000000000000e+00 0.0000000000000000e+00 0.0000000000000000e+00  0.0000000000000000e+00 0.0000000000000000e+00 0.0000000000000000e+00  0.0000000000000000e+00 0.0000000000000000e+00 0.0000000000000000e+00  0.0000000000000000e+00 0.0000000000000000e+00 0.0000000000000000e+00  1.7066210061522785e-05 -3.5241804582746933e-04 0.0000000000000000e+00  4.5575391149757701e-05 -3.5313917067104835e-04 0.0000000000000000e+00  0.0000000000000000e+00 0.0000000000000000e+00 0.0000000000000000e+00  0.0000000000000000e+00 0.0000000000000000e+00 0.0000000000000000e+00  0.0000000000000000e+00 0.0000000000000000e+00 0.0000000000000000e+00  0.0000000000000000e+00 0.0000000000000000e+00 0.0000000000000000e+00  3.1012713927736963e-05 -3.5277869188521881e-04 0.0000000000000000e+00  0.0000000000000000e+00 0.0000000000000000e+00 0.0000000000000000e+00  0.0000000000000000e+00 0.0000000000000000e+00 0.0000000000000000e+00  0.0000000000000000e+00 0.0000000000000000e+00 0.0000000000000000e+00  0.0000000000000000e+00 0.0000000000000000e+00 0.0000000000000000e+00  0.0000000000000000e+00 0.0000000000000000e+00 0.0000000000000000e+00  0.0000000000000000e+00 0.0000000000000000e+00 0.0000000000000000e+00  0.0000000000000000e+00 0.0000000000000000e+00 0.0000000000000000e+00  0.0000000000000000e+00 0.0000000000000000e+00 0.0000000000000000e+00  0.0000000000000000e+00 0.0000000000000000e+00 0.0000000000000000e+00  0.0000000000000000e+00 0.0000000000000000e+00 0.0000000000000000e+00  0.0000000000000000e+00 0.0000000000000000e+00 0.0000000000000000e+00  0.0000000000000000e+00 0.0000000000000000e+00 0.0000000000000000e+00  0.0000000000000000e+00 0.0000000000000000e+00 0.0000000000000000e+00  0.0000000000000000e+00 0.0000000000000000e+00 0.0000000000000000e+00  0.0000000000000000e+00 0.0000000000000000e+00 0.0000000000000000e+00  0.0000000000000000e+00 0.0000000000000000e+00 0.0000000000000000e+00  0.0000000000000000e+00 0.0000000000000000e+00 0.0000000000000000e+00  0.0000000000000000e+00 0.0000000000000000e+00 0.0000000000000000e+00  0.0000000000000000e+00 0.0000000000000000e+00 0.0000000000000000e+00  0.0000000000000000e+00 0.0000000000000000e+00 0.0000000000000000e+00  0.0000000000000000e+00 0.0000000000000000e+00 0.0000000000000000e+00  0.0000000000000000e+00 0.0000000000000000e+00 0.0000000000000000e+00  0.0000000000000000e+00 0.0000000000000000e+00 0.0000000000000000e+00  0.0000000000000000e+00 0.0000000000000000e+00 0.0000000000000000e+00  1.5351510168556461e-13 0.0000000000000000e+00 0.0000000000000000e+00  0.0000000000000000e+00 0.0000000000000000e+00 0.0000000000000000e+00  0.0000000000000000e+00 0.0000000000000000e+00 0.0000000000000000e+00  0.0000000000000000e+00 0.0000000000000000e+00 0.0000000000000000e+00  0.0000000000000000e+00 0.0000000000000000e+00 0.0000000000000000e+00  0.0000000000000000e+00 0.0000000000000000e+00 0.0000000000000000e+00  0.0000000000000000e+00 0.0000000000000000e+00 0.0000000000000000e+00  0.0000000000000000e+00 0.0000000000000000e+00 0.0000000000000000e+00  0.0000000000000000e+00 0.0000000000000000e+00 0.0000000000000000e+00  0.0000000000000000e+00 0.0000000000000000e+00 0.0000000000000000e+00  0.0000000000000000e+00 0.0000000000000000e+00 0.0000000000000000e+00  0.0000000000000000e+00 0.0000000000000000e+00 0.0000000000000000e+00  0.0000000000000000e+00 0.0000000000000000e+00 0.0000000000000000e+00  0.0000000000000000e+00 0.0000000000000000e+00 0.0000000000000000e+00  0.0000000000000000e+00 0.0000000000000000e+00 0.0000000000000000e+00  0.0000000000000000e+00 0.0000000000000000e+00 0.0000000000000000e+00  0.0000000000000000e+00 0.0000000000000000e+00 0.0000000000000000e+00  0.0000000000000000e+00 0.0000000000000000e+00 0.0000000000000000e+00  0.0000000000000000e+00 0.0000000000000000e+00 0.0000000000000000e+00  0.0000000000000000e+00 0.0000000000000000e+00 0.0000000000000000e+00  0.0000000000000000e+00 0.0000000000000000e+00 0.0000000000000000e+00  0.0000000000000000e+00 0.0000000000000000e+00 0.0000000000000000e+00  0.0000000000000000e+00 0.0000000000000000e+00 0.0000000000000000e+00  0.0000000000000000e+00 0.0000000000000000e+00 0.0000000000000000e+00  0.0000000000000000e+00 0.0000000000000000e+00 0.0000000000000000e+00  0.0000000000000000e+00 0.0000000000000000e+00 0.0000000000000000e+00  0.0000000000000000e+00 0.0000000000000000e+00 0.0000000000000000e+00  0.0000000000000000e+00 0.0000000000000000e+00 0.0000000000000000e+00  0.0000000000000000e+00 0.0000000000000000e+00 0.0000000000000000e+00  0.0000000000000000e+00 0.0000000000000000e+00 0.0000000000000000e+00  0.0000000000000000e+00 0.0000000000000000e+00 0.0000000000000000e+00  0.0000000000000000e+00 0.0000000000000000e+00 0.0000000000000000e+00  0.0000000000000000e+00 0.0000000000000000e+00 0.0000000000000000e+00  0.0000000000000000e+00 0.0000000000000000e+00 0.0000000000000000e+00  0.0000000000000000e+00 0.0000000000000000e+00 0.0000000000000000e+00  0.0000000000000000e+00 0.0000000000000000e+00 0.0000000000000000e+00  0.0000000000000000e+00 0.0000000000000000e+00 0.0000000000000000e+00  0.0000000000000000e+00 0.0000000000000000e+00 0.0000000000000000e+00  0.0000000000000000e+00 0.0000000000000000e+00 0.0000000000000000e+00  0.0000000000000000e+00 0.0000000000000000e+00 0.0000000000000000e+00  0.0000000000000000e+00 0.0000000000000000e+00 0.0000000000000000e+00  0.0000000000000000e+00 0.0000000000000000e+00 0.0000000000000000e+00  0.0000000000000000e+00 0.0000000000000000e+00 0.0000000000000000e+00  0.0000000000000000e+00 0.0000000000000000e+00 0.0000000000000000e+00  0.0000000000000000e+00 0.0000000000000000e+00 0.0000000000000000e+00  0.0000000000000000e+00 0.0000000000000000e+00 0.0000000000000000e+00  0.0000000000000000e+00 0.0000000000000000e+00 0.0000000000000000e+00  0.0000000000000000e+00 0.0000000000000000e+00 0.0000000000000000e+00  0.0000000000000000e+00 0.0000000000000000e+00 0.0000000000000000e+00  0.0000000000000000e+00 0.0000000000000000e+00 0.0000000000000000e+00  0.0000000000000000e+00 0.0000000000000000e+00 0.0000000000000000e+00  0.0000000000000000e+00 0.0000000000000000e+00 0.0000000000000000e+00  0.0000000000000000e+00 0.0000000000000000e+00 0.0000000000000000e+00  5.5601679586779067e-16 0.0000000000000000e+00 0.0000000000000000e+00  0.0000000000000000e+00 0.0000000000000000e+00 0.0000000000000000e+00  0.0000000000000000e+00 0.0000000000000000e+00 0.0000000000000000e+00  0.0000000000000000e+00 0.0000000000000000e+00 0.0000000000000000e+00  0.0000000000000000e+00 0.0000000000000000e+00 0.0000000000000000e+00  0.0000000000000000e+00 0.0000000000000000e+00 0.0000000000000000e+00  4.5117772194126634e-13 -8.0678783589710440e-18 0.0000000000000000e+00  0.0000000000000000e+00 0.0000000000000000e+00 0.0000000000000000e+00  0.0000000000000000e+00 0.0000000000000000e+00 0.0000000000000000e+00  0.0000000000000000e+00 0.0000000000000000e+00 0.0000000000000000e+00  0.0000000000000000e+00 0.0000000000000000e+00 0.0000000000000000e+00  0.0000000000000000e+00 0.0000000000000000e+00 0.0000000000000000e+00  0.0000000000000000e+00 0.0000000000000000e+00 0.0000000000000000e+00  0.0000000000000000e+00 0.0000000000000000e+00 0.0000000000000000e+00  0.0000000000000000e+00 0.0000000000000000e+00 0.0000000000000000e+00  0.0000000000000000e+00 0.0000000000000000e+00 0.0000000000000000e+00  0.0000000000000000e+00 0.0000000000000000e+00 0.0000000000000000e+00  -3.1293074717717769e-13 -2.0658108848697602e-14 0.0000000000000000e+00  0.0000000000000000e+00 0.0000000000000000e+00 0.0000000000000000e+00  0.0000000000000000e+00 0.0000000000000000e+00 0.0000000000000000e+00  0.0000000000000000e+00 0.0000000000000000e+00 0.0000000000000000e+00  0.0000000000000000e+00 0.0000000000000000e+00 0.0000000000000000e+00  -9.0120684814840795e-13 4.3791881519035101e-17 0.0000000000000000e+00  0.0000000000000000e+00 0.0000000000000000e+00 0.0000000000000000e+00  0.0000000000000000e+00 0.0000000000000000e+00 0.0000000000000000e+00  0.0000000000000000e+00 0.0000000000000000e+00 0.0000000000000000e+00  0.0000000000000000e+00 0.0000000000000000e+00 0.0000000000000000e+00  0.0000000000000000e+00 0.0000000000000000e+00 0.0000000000000000e+00  0.0000000000000000e+00 0.0000000000000000e+00 0.0000000000000000e+00  0.0000000000000000e+00 0.0000000000000000e+00 0.0000000000000000e+00  0.0000000000000000e+00 0.0000000000000000e+00 0.0000000000000000e+00  0.0000000000000000e+00 0.0000000000000000e+00 0.0000000000000000e+00  0.0000000000000000e+00 0.0000000000000000e+00 0.0000000000000000e+00  0.0000000000000000e+00 0.0000000000000000e+00 0.0000000000000000e+00  0.0000000000000000e+00 0.0000000000000000e+00 0.0000000000000000e+00  0.0000000000000000e+00 0.0000000000000000e+00 0.0000000000000000e+00  0.0000000000000000e+00 0.0000000000000000e+00 0.0000000000000000e+00  0.0000000000000000e+00 0.0000000000000000e+00 0.0000000000000000e+00  0.0000000000000000e+00 0.0000000000000000e+00 0.0000000000000000e+00  0.0000000000000000e+00 0.0000000000000000e+00 0.0000000000000000e+00  0.0000000000000000e+00 0.0000000000000000e+00 0.0000000000000000e+00  0.0000000000000000e+00 0.0000000000000000e+00 0.0000000000000000e+00  0.0000000000000000e+00 0.0000000000000000e+00 0.0000000000000000e+00  0.0000000000000000e+00 0.0000000000000000e+00 0.0000000000000000e+00  0.0000000000000000e+00 0.0000000000000000e+00 0.0000000000000000e+00  0.0000000000000000e+00 0.0000000000000000e+00 0.0000000000000000e+00  0.0000000000000000e+00 0.0000000000000000e+00 0.0000000000000000e+00  0.0000000000000000e+00 0.0000000000000000e+00 0.0000000000000000e+00  0.0000000000000000e+00 0.0000000000000000e+00 0.0000000000000000e+00  0.0000000000000000e+00 0.0000000000000000e+00 0.0000000000000000e+00  0.0000000000000000e+00 0.0000000000000000e+00 0.0000000000000000e+00  0.0000000000000000e+00 0.0000000000000000e+00 0.0000000000000000e+00  0.0000000000000000e+00 0.0000000000000000e+00 0.0000000000000000e+00  0.0000000000000000e+00 0.0000000000000000e+00 0.0000000000000000e+00  3.6457733498899636e-12 9.8945433402109697e-14 0.0000000000000000e+00  1.2411828636988090e-06 -1.2394521478805870e-06 0.0000000000000000e+00  2.6570011383210300e-06 -1.8317310751182042e-06 0.0000000000000000e+00  4.1162818555239117e-06 -2.8051740359091423e-06 0.0000000000000000e+00  5.6961062498044989e-06 -4.2092164098764284e-06 0.0000000000000000e+00  7.2162852445239527e-06 -6.0544189924988290e-06 0.0000000000000000e+00  8.8617660138642581e-06 -8.3844771151839002e-06 0.0000000000000000e+00  1.0395155287751221e-05 -1.1095944578675342e-05 0.0000000000000000e+00  1.1940172172064612e-05 -1.4325789598035292e-05 0.0000000000000000e+00  1.3599766884850839e-05 -1.7964885126292040e-05 0.0000000000000000e+00  1.5105476052908013e-05 -2.2045633326703228e-05 0.0000000000000000e+00  1.6753299527108337e-05 -2.6574618484331586e-05 0.0000000000000000e+00  1.8229849738630752e-05 -3.1527624730060494e-05 0.0000000000000000e+00  1.9812810239610949e-05 -3.6903892566327457e-05 0.0000000000000000e+00  2.1256689391620827e-05 -4.2628638961239373e-05 0.0000000000000000e+00  2.2678120613032994e-05 -4.8793627839466409e-05 0.0000000000000000e+00  2.4164000542335200e-05 -5.5299340015546867e-05 0.0000000000000000e+00  2.5491026666429597e-05 -6.2150966921584825e-05 0.0000000000000000e+00  2.6894558770287032e-05 -6.9364096461868843e-05 0.0000000000000000e+00  2.8137227075897048e-05 -7.6879196565091549e-05 0.0000000000000000e+00  2.9434589738396311e-05 -8.4709383360567620e-05 0.0000000000000000e+00  3.0606240782843152e-05 -9.2815579360078993e-05 0.0000000000000000e+00  3.1789161899292716e-05 -1.0121238952354812e-04 0.0000000000000000e+00  3.2863845774754066e-05 -1.0981582513542374e-04 0.0000000000000000e+00  3.3893361482655734e-05 -1.1868497483230184e-04 0.0000000000000000e+00  3.4929963587933834e-05 -1.2774093040788593e-04 0.0000000000000000e+00  3.5870571691151816e-05 -1.3699636373014210e-04 0.0000000000000000e+00  3.6777286606635211e-05 -1.4645283219712427e-04 0.0000000000000000e+00  3.7617789165365762e-05 -1.5604248920993554e-04 0.0000000000000000e+00  3.8422058114418611e-05 -1.6580597814647158e-04 0.0000000000000000e+00  3.9164979826789013e-05 -1.7567225582736952e-04 0.0000000000000000e+00  3.9870948881795243e-05 -1.8568183928137596e-04 0.0000000000000000e+00  4.0519606197311467e-05 -1.9576596503009279e-04 0.0000000000000000e+00  4.1131316756726334e-05 -2.0596631662131928e-04 0.0000000000000000e+00  4.1690089067578124e-05 -2.1621671634262902e-04 0.0000000000000000e+00  4.2210900228129364e-05 -2.2656063941632972e-04 0.0000000000000000e+00  4.2684038081136179e-05 -2.3693484299830699e-04 0.0000000000000000e+00  4.3120591817129347e-05 -2.4738154473904079e-04 0.0000000000000000e+00  4.3513142317431625e-05 -2.5784295703841416e-04 0.0000000000000000e+00  4.3869279282172397e-05 -2.6836056656284312e-04 0.0000000000000000e+00  4.4183225432671344e-05 -2.7887949291594618e-04 0.0000000000000000e+00  4.4457541653364323e-05 -2.8943540202780368e-04 0.0000000000000000e+00  4.4698699827648785e-05 -2.9999570924897970e-04 0.0000000000000000e+00  4.4901659294549763e-05 -3.1057270532840555e-04 0.0000000000000000e+00  4.5084428079501640e-05 -3.2115564341915877e-04 0.0000000000000000e+00  4.5225462321150203e-05 -3.3173294968276141e-04 0.0000000000000000e+00  4.5368764363612596e-05 -3.4235209556922374e-04 0.0000000000000000e+00  3.8189379077126687e-05 -3.5295348141875120e-04 0.0000000000000000e+00  2.3948432128533818e-05 -3.5260775753623649e-04 0.0000000000000000e+00  1.6878279042574461e-05 -3.4192742004826837e-04 0.0000000000000000e+00  1.6761448343466676e-05 -3.3126981619965471e-04 0.0000000000000000e+00  1.6642408569507380e-05 -3.2059579387777186e-04 0.0000000000000000e+00  1.6492136703987950e-05 -3.0994502064037483e-04 0.0000000000000000e+00  1.6321542947558778e-05 -2.9930267268188268e-04 0.0000000000000000e+00  1.6119377052602244e-05 -2.8867494994939041e-04 0.0000000000000000e+00  1.5901435787126236e-05 -2.7806772528416861e-04 0.0000000000000000e+00  1.5647581513323932e-05 -2.6746799388574109e-04 0.0000000000000000e+00  1.5380447195175671e-05 -2.5691376307917477e-04 0.0000000000000000e+00  1.5079884698902235e-05 -2.4637151855921396e-04 0.0000000000000000e+00  1.4774106667308308e-05 -2.3588834127219086e-04 0.0000000000000000e+00  1.4432654981669228e-05 -2.2543301596437054e-04 0.0000000000000000e+00  1.4094244676545674e-05 -2.1505324807030086e-04 0.0000000000000000e+00  1.3716517464669964e-05 -2.0472197447823172e-04 0.0000000000000000e+00  1.3352307394767071e-05 -1.9448622141320950e-04 0.0000000000000000e+00  1.2943039215808794e-05 -1.8432233163839595e-04 0.0000000000000000e+00  1.2558460428537814e-05 -1.7427790969280958e-04 0.0000000000000000e+00  1.2122281485999381e-05 -1.6433249826594136e-04 0.0000000000000000e+00  1.1722786019918004e-05 -1.5453456441549441e-04 0.0000000000000000e+00  1.1264022680139014e-05 -1.4486709412769641e-04 0.0000000000000000e+00  1.0856544702011334e-05 -1.3537879238345837e-04 0.0000000000000000e+00  1.0380743685015373e-05 -1.2605650209189593e-04 0.0000000000000000e+00  9.9604583325400418e-06 -1.1694486187936773e-04 0.0000000000000000e+00  9.4844841875791900e-06 -1.0802457330047607e-04 0.0000000000000000e+00  8.9985345207056252e-06 -9.9375620461046056e-05 0.0000000000000000e+00  8.5735692792602479e-06 -9.0928972211099353e-05 0.0000000000000000e+00  8.0978365678190554e-06 -8.2774610720583972e-05 0.0000000000000000e+00  7.6558112784148650e-06 -7.4906007161549962e-05 0.0000000000000000e+00  7.1809008317672538e-06 -6.7342900090747710e-05 0.0000000000000000e+00  6.7388115415044327e-06 -6.0108659423457768e-05 0.0000000000000000e+00  6.2662244504581472e-06 -5.3200337342037143e-05 0.0000000000000000e+00  5.8640821990991552e-06 -4.6696143345204360e-05 0.0000000000000000e+00  5.3801386416202952e-06 -4.0503171521368013e-05 0.0000000000000000e+00  4.8959680423281500e-06 -3.4767029696489267e-05 0.0000000000000000e+00  4.5092755675539131e-06 -2.9355835463242146e-05 0.0000000000000000e+00  4.0676370112508441e-06 -2.4408680768905526e-05 0.0000000000000000e+00  3.6739081790665406e-06 -1.9883276316736537e-05 0.0000000000000000e+00  3.2449981328168865e-06 -1.5788096466398605e-05 0.0000000000000000e+00  2.9034889037662644e-06 -1.2188689189347375e-05 0.0000000000000000e+00  2.4654332985722923e-06 -8.9682020328420767e-06 0.0000000000000000e+00  2.0272306825287446e-06 -6.2784544276875249e-06 0.0000000000000000e+00  1.6995885975575449e-06 -3.9604530389919219e-06 0.0000000000000000e+00  1.2923508706223297e-06 -2.1272358103041029e-06 0.0000000000000000e+00  9.6979201919323042e-07 -7.5156765021622665e-07 0.0000000000000000e+00  5.7871339804040354e-07 1.6889612845543092e-07 0.0000000000000000e+00  3.0725206844904180e-07 6.1138499990483319e-07 0.0000000000000000e+00  1.0846256369808212e-06 -2.8279988675178576e-07 0.0000000000000000e+00  3.1119613503175641e-05 -3.3679131206904809e-04 0.0000000000000000e+00  3.1040693298691996e-05 -3.1648217280069908e-04 0.0000000000000000e+00  3.0273008519189487e-05 -2.8337464400051896e-04 0.0000000000000000e+00  3.0083529583591751e-06 -2.1319900271977386e-06 0.0000000000000000e+00  2.9553187049447000e-05 -2.6262207686710720e-04 0.0000000000000000e+00  4.8325265976255293e-06 -5.6080684270280593e-06 0.0000000000000000e+00  2.8865986946521256e-05 -2.4160871084527786e-04 0.0000000000000000e+00  7.8796932227109972e-06 -1.4852313627412165e-05 0.0000000000000000e+00  9.8827789868251535e-06 -2.2898154417776407e-05 0.0000000000000000e+00  2.8058592008662078e-05 -2.2076666938467901e-04 0.0000000000000000e+00  1.4633459489036770e-05 -5.0970848475632203e-05 0.0000000000000000e+00  2.6086592434387887e-05 -1.7990214200871432e-04 0.0000000000000000e+00  1.1675128936008250e-05 -3.2361318839236850e-05 0.0000000000000000e+00  1.6542056746167778e-05 -6.4486440686656728e-05 0.0000000000000000e+00  2.4923862205131735e-05 -1.6007014476238522e-04 0.0000000000000000e+00  2.7131858558664604e-05 -2.0016850918957771e-04 0.0000000000000000e+00  1.8295487094654640e-05 -7.9586202202038824e-05 0.0000000000000000e+00  2.3643749211153617e-05 -1.4079106110717911e-04 0.0000000000000000e+00  1.9747384083702176e-05 -9.5179854350989820e-05 0.0000000000000000e+00  2.2439054619335361e-05 -1.2258112545905547e-04 0.0000000000000000e+00  2.1057566816159271e-05 -1.0809034054433250e-04 0.0000000000000000e+00  1.3216996605170700e-05 -4.0864297624960478e-05 0.0000000000000000e+00  3.0441759770141422e-05 -3.0056963281191267e-04 0.0000000000000000e+00  6.3376034687340332e-06 -9.5774490060801836e-06 0.0000000000000000e+00  2.6108361153058836e-05 -3.2647937548163706e-04 0.0000000000000000e+00  1.5574555505040429e-06 -6.4042428211766053e-07 0.0000000000000000e+00  2.5142657268669809e-05 -2.5196065880919998e-04 0.0000000000000000e+00  2.5746089545317186e-05 -2.7305240553875180e-04 0.0000000000000000e+00  4.8369322327875986e-06 -4.1395037462790497e-06 0.0000000000000000e+00  1.0486232278873769e-05 -1.8937673310419682e-05 0.0000000000000000e+00  2.2693724907395861e-05 -1.8980508881313179e-04 0.0000000000000000e+00  2.4430729266954149e-05 -2.3100915734777279e-04 0.0000000000000000e+00  1.8304663678021034e-05 -5.7753752714800016e-05 0.0000000000000000e+00  2.1676326089069328e-05 -1.6972780388685037e-04 0.0000000000000000e+00  1.2777761151784701e-05 -2.7994681980191124e-05 0.0000000000000000e+00  2.0349063878036955e-05 -7.2198796903006775e-05 0.0000000000000000e+00  2.0564057331286794e-05 -1.5014261109371602e-04 0.0000000000000000e+00  2.3613081482448439e-05 -2.1026374622732947e-04 0.0000000000000000e+00  2.2967917272689959e-05 -8.7869120672233092e-05 0.0000000000000000e+00  1.9358637466282130e-05 -1.3117518178987469e-04 0.0000000000000000e+00  4.9311519215728506e-07 -2.5829694348438437e-07 0.0000000000000000e+00  3.1397671604380082e-07 1.9240991266409954e-07 0.0000000000000000e+00  3.4441564181856348e-05 -3.4521077213957703e-04 0.0000000000000000e+00  2.5675280934142238e-06 -1.4486685750374575e-06 0.0000000000000000e+00  1.740