<?xml version="1.0"?>
<VTKFile type="UnstructuredGrid"  version="0.1"  >
<UnstructuredGrid>
<Piece  NumberOfPoints="1419" NumberOfCells="2698">
<Points>
<DataArray  type="Float64"  NumberOfComponents="3"  format="ascii">0 0 0  0 0.41 0  2.5 0 0  2.5 0.41 0  0.6 0.19 0  0.6 0.21 0  0.25 0.2 0  0.15 0.2 0  0.2489897948556636 0.21 0  0.2489897948556636 0.19 0  0.6 0.2 0  0 0.3807142857143437 0  0 0.3514285714286952 0  0 0.3221428571430699 0  0 0.29285714285744 0  0 0.2635714285718054 0  0 0.2342857142861561 0  0 0.2050000000005308 0  0 0.175714285714732 0  0 0.1464285714289574 0  0 0.1171428571431897 0  0 0.08785714285737878 0  0 0.05857142857161107 0  0 0.02928571428580012 0  0.03015443760436003 0 0  0.06140001986583606 0 0  0.09377624077125973 0 0  0.1273239957535082 0 0  0.1620856860351972 0 0  0.1981052433264291 0 0  0.235428184091502 0 0  0.2741016576309132 0 0  0.3141745521465447 0 0  0.3556974926295285 0 0  0.3987229542472677 0 0  0.4433053055141081 0 0  0.4895008759286886 0 0  0.5373680609405097 0 0  0.5869673343216626 0 0  0.6383613676634521 0 0  0.6916151138468254 0 0  0.7467958595648856 0 0  0.8039733463919316 0 0  0.8632198139502143 0 0  0.9246101326867038 0 0  0.9882218810934433 0 0  1.054135445558498 0 0  1.122434100542598 0 0  1.193204177141305 0 0  1.266535089879536 0 0  1.342519516046404 0 0  1.421253448503939 0 0  1.502836389106271 0 0  1.587371439758838 0 0  1.674965418777374 0 0  1.765729001825544 0 0  1.859776908880082 0 0  1.957227977487062 0 0  2.058205329869943 0 0  2.162836591189951 0 0  2.271253957290865 0 0  2.383594446803425 0 0  2.5 0.1024999999997612 0  2.5 0.2049999999994743 0  2.5 0.3074999999997183 0  2.383594446803656 0.41 0  2.271253957291315 0.41 0  2.162836591190598 0.41 0  2.058205329870775 0.41 0  1.957227977488067 0.41 0  1.859776908881246 0.41 0  1.765729001826854 0.41 0  1.674965418778818 0.41 0  1.58737143976041 0.41 0  1.502836389107956 0.41 0  1.421253448505726 0.41 0  1.342519516048286 0.41 0  1.266535089881505 0.41 0  1.193204177143353 0.41 0  1.122434100544716 0.41 0  1.05413544556068 0.41 0  0.9882218810956305 0.41 0  0.9246101326886647 0.41 0  0.8632198139519631 0.41 0  0.8039733463934788 0.41 0  0.7467958595662458 0.41 0  0.6916151138480078 0.41 0  0.6383613676644679 0.41 0  0.5869673343225223 0.41 0  0.5373680609412221 0.41 0  0.4895008759292634 0.41 0  0.4433053055145528 0.41 0  0.3987229542475914 0.41 0  0.3556974926297398 0.41 0  0.3141745521466497 0.41 0  0.2741016576310038 0.41 0  0.2354281840915826 0.41 0  0.1981052433265003 0.41 0  0.1620856860352591 0.41 0  0.1273239957535623 0.41 0  0.09377624077128965 0.41 0  0.06140001986584975 0.41 0  0.03015443760436654 0.41 0  0.2497468076502589 0.2050254481002335 0  0.2497468076502614 0.1949745518997913 0  0.2469965252529372 0.1829317073451959 0  0.2439893735792749 0.1762316384219906 0  0.2400332147834255 0.1700443375285386 0  0.2352133972704371 0.1645032867342007 0  0.2296339016332438 0.1597280261969788 0  0.2234150974217223 0.1558215752574715 0  0.2166911463437691 0.1528682099456123 0  0.2096071079204251 0.1509316448471593 0  0.2023158100364996 0.1500536585536553 0  0.194974551899914 0.1502531923497262 0  0.1877417105387872 0.1515259415822739 0  0.1807733240461124 0.153844448527136 0  0.1742197252835808 0.15715869474974 0  0.1682222986673531 0.1613971801805478 0  0.162910430003803 0.1664684656256651 0  0.1583987151779087 0.1722631454351573 0  0.1547844879126891 0.178656207771761 0  0.1521457199348551 0.1855097315605723 0  0.1505393388476355 0.1926758619366523 0  0.1505393388476328 0.2073241380633295 0  0.1521457199348437 0.2144902684393899 0  0.1547844879126531 0.221343792228163 0  0.1583987151778488 0.2277368545647528 0  0.1629104300036858 0.2335315343742052 0  0.1682222986671726 0.2386028198193036 0  0.1742197252833576 0.2428413052501257 0  0.1807733240458683 0.2461555514727623 0  0.1877417105384929 0.2484740584176516 0  0.1949745518995776 0.2497468076502398 0  0.202315810036185 0.2499463414463592 0  0.2096071079201568 0.2490683551528932 0  0.2166911463435495 0.2471317900544655 0  0.2234150974215506 0.2441784247426195 0  0.2296339016331197 0.2402719738031125 0  0.2352133972703547 0.2354967132658811 0  0.2400332147833751 0.2299556624715287 0  0.2439893735792577 0.2237683615780412 0  0.246996525252926 0.2170682926548348 0  0.25645809709277 0.21 0  0.2639263993298655 0.21 0  0.271394701566961 0.21 0  0.2788630038040554 0.21 0  0.2863313060411479 0.21 0  0.2937996082782405 0.21 0  0.301267910515333 0.21 0  0.3087362127524279 0.21 0  0.3162045149895234 0.21 0  0.3236728172265972 0.21 0  0.3311411194636928 0.21 0  0.3386094217007701 0.21 0  0.3460777239378666 0.21 0  0.3535460261749672 0.21 0  0.3610143284120516 0.21 0  0.3684826306491596 0.21 0  0.3759509328862226 0.21 0  0.383419235123329 0.21 0  0.3908875373604028 0.21 0  0.3983558395975142 0.21 0  0.4058241418345938 0.21 0  0.4132924440716992 0.21 0  0.4207607463087888 0.21 0  0.4282290485459029 0.21 0  0.4356973507830418 0.21 0  0.4431656530201649 0.21 0  0.4506339552573136 0.21 0  0.4581022574944306 0.21 0  0.4655705597315852 0.21 0  0.4730388619686996 0.21 0  0.480507164205851 0.21 0  0.4879754664429498 0.21 0  0.4954437686800938 0.21 0  0.502912070917267 0.21 0  0.5103803731544119 0.21 0  0.5178486753915261 0.21 0  0.5253169776286404 0.21 0  0.5327852798657868 0.21 0  0.5402535821029386 0.21 0  0.54772188434007 0.21 0  0.5551901865771842 0.21 0  0.5626584888143201 0.21 0  0.5701267910514778 0.21 0  0.5775950932886138 0.21 0  0.5850633955257281 0.21 0  0.5925316977628483 0.21 0  0.6 0.2050000000000054 0  0.6 0.1950000000000217 0  0.5925316977628897 0.19 0  0.5850633955257988 0.19 0  0.5775950932887378 0.19 0  0.5701267910515998 0.19 0  0.5626584888145268 0.19 0  0.5551901865773963 0.19 0  0.547721884340339 0.19 0  0.5402535821032429 0.19 0  0.5327852798661811 0.19 0  0.5253169776290537 0.19 0  0.5178486753919799 0.19 0  0.5103803731549078 0.19 0  0.502912070917822 0.19 0  0.4954437686807294 0.19 0  0.4879754664436223 0.19 0  0.4805071642065402 0.19 0  0.4730388619694271 0.19 0  0.4655705597323621 0.19 0  0.4581022574952563 0.19 0  0.4506339552581777 0.19 0  0.4431656530210671 0.19 0  0.4356973507839815 0.19 0  0.4282290485468779 0.19 0  0.4207607463097617 0.19 0  0.4132924440726327 0.19 0  0.4058241418354857 0.19 0  0.3983558395983636 0.19 0  0.3908875373612097 0.19 0  0.3834192351240934 0.19 0  0.3759509328869369 0.19 0  0.3684826306498175 0.19 0  0.361014328412667 0.19 0  0.3535460261755617 0.19 0  0.3460777239384295 0.19 0  0.3386094217012945 0.19 0  0.3311411194641595 0.19 0  0.3236728172270245 0.19 0  0.3162045149898895 0.19 0  0.3087362127527544 0.19 0  0.3012679105156187 0.19 0  0.2937996082784807 0.19 0  0.2863313060413428 0.19 0  0.2788630038042048 0.19 0  0.2713947015670686 0.19 0  0.2639263993299336 0.19 0  0.2564580970927985 0.19 0  0.2607803159922026 0.2000727136295815 0  0.5887803774232762 0.2001272386983733 0  0.5745072403740523 0.2002044435018727 0  0.5511891430099709 0.2001122610077113 0  0.2751288526855082 0.20000000000002 0  0.5365194309847112 0.1999999999999436 0  0.2894621222999649 0.1998691686390484 0  0.5215828265105155 0.1999999999999228 0  0.3127789816668748 0.1998657885438805 0  0.3274069683451451 0.2000000000000796 0  0.5066462220363641 0.199999999999908 0  0.3650630746574081 0.199866017807523 0  0.476773013087985 0.1999999999998713 0  0.3417402379596385 0.1998691686391011 0  0.3796850840047755 0.200000000000134 0  0.4618364086138087 0.1999999999998546 0  0.4917096175621762 0.1999999999998808 0  0.3946216884789568 0.2000000000001512 0  0.446899804139621 0.1999999999998389 0  0.4089549580935208 0.1998691686391595 0  0.4322718174608562 0.200127451265745 0  0.4201487168029707 0.1999966199048527 0  0.3528922713220932 0.2000185703532356 0  0.5633122436674589 0.1999814296467508 0  0.3006558810093873 0.1999966199048318 0  0.5815926498168407 0.1966545283159175 0  0.2677053789419034 0.1964246479135325 0  0.5290511287476175 0.1970915826863981 0  0.5439877332217911 0.197091582686394 0  0.2825131256993216 0.2035478995978015 0  0.3199386661080599 0.202908417313604 0  0.4842413153250809 0.1970915826863873 0  0.5141145242734466 0.1970915826863843 0  0.3722167817676917 0.2029084173136195 0  0.4693047108508938 0.1970915826863783 0  0.3348752705822316 0.202908417313609 0  0.3871533862418661 0.2029084173136212 0  0.4543681063767183 0.1970915826863795 0  0.4991779197992749 0.1970915826863902 0  0.4020059614928624 0.203547899597858 0  0.4394315019025246 0.1970915826863714 0  0.2550657455369551 0.2034088125358657 0  0.2548908499171161 0.1966940311614271 0  0.5946539510196798 0.2024302972968126 0  0.267698176732111 0.2039977513680092 0  0.4261685417851465 0.196409292431739 0  0.3590076176283495 0.196411355804271 0  0.5571672426447437 0.2036011176410121 0  0.3066757059912147 0.1964092924317024 0  0.594380730180568 0.1966558399668133 0  0.4842413153245942 0.2040749161535287 0  0.4693047108503577 0.2040749161535231 0  0.3871533862424271 0.1959250838464788 0  0.372246743208829 0.1959123236376545 0  0.5141145242731028 0.2040749161535395 0  0.4543681063761134 0.2040749161535186 0  0.4019979587101454 0.1959834479682427 0  0.4394608940728603 0.2040870543693135 0  0.5439623148931173 0.2040856076781014 0  0.5290511287473298 0.2040749161535501 0  0.4991779197988497 0.2040749161535382 0  0.3347912413592433 0.1959225448935183 0  0.3199680582793816 0.1959123018030061 0  0.2825051229162361 0.1959834479681729 0  0.3590471196690275 0.2036304442587945 0  0.5571594006495384 0.1963685282145804 0  0.3067669986803285 0.203627750582736 0  0.4262598344738712 0.2036568242185335 0  0.5814408164431408 0.2041285596160068 0  0.5688286748170428 0.1961819304477386 0  0.4145905603063645 0.2038180695522843 0  0.3473758401724931 0.2038180695522752 0  0.2950977245128307 0.2038180695522663 0  0.5688286748170693 0.203818069552238 0  0.2950977245127906 0.1961819304477774 0  0.3473758401723931 0.1961819304478349 0  0.4145905603061963 0.1961819304479011 0  0.2601812407614425 0.2056861609747042
[...]
<PointData  Vectors="f_46-2"> 
<DataArray  type="Float64"  Name="f_46-2"  NumberOfComponents="3" format="ascii">0.0000000000000000e+00 0.0000000000000000e+00 0.0000000000000000e+00  0.0000000000000000e+00 0.0000000000000000e+00 0.0000000000000000e+00  0.0000000000000000e+00 0.0000000000000000e+00 0.0000000000000000e+00  0.0000000000000000e+00 0.0000000000000000e+00 0.0000000000000000e+00  1.7130292039717282e-05 -2.1369765104625274e-04 0.0000000000000000e+00  3.7780440680079498e-05 -2.1436393650006326e-04 0.0000000000000000e+00  0.0000000000000000e+00 0.0000000000000000e+00 0.0000000000000000e+00  0.0000000000000000e+00 0.0000000000000000e+00 0.0000000000000000e+00  0.0000000000000000e+00 0.0000000000000000e+00 0.0000000000000000e+00  0.0000000000000000e+00 0.0000000000000000e+00 0.0000000000000000e+00  2.7163943167772883e-05 -2.1403007055918914e-04 0.0000000000000000e+00  0.0000000000000000e+00 0.0000000000000000e+00 0.0000000000000000e+00  0.0000000000000000e+00 0.0000000000000000e+00 0.0000000000000000e+00  0.0000000000000000e+00 0.0000000000000000e+00 0.0000000000000000e+00  0.0000000000000000e+00 0.0000000000000000e+00 0.0000000000000000e+00  0.0000000000000000e+00 0.0000000000000000e+00 0.0000000000000000e+00  0.0000000000000000e+00 0.0000000000000000e+00 0.0000000000000000e+00  0.0000000000000000e+00 0.0000000000000000e+00 0.0000000000000000e+00  0.0000000000000000e+00 0.0000000000000000e+00 0.0000000000000000e+00  0.0000000000000000e+00 0.0000000000000000e+00 0.0000000000000000e+00  0.0000000000000000e+00 0.0000000000000000e+00 0.0000000000000000e+00  0.0000000000000000e+00 0.0000000000000000e+00 0.0000000000000000e+00  0.0000000000000000e+00 0.0000000000000000e+00 0.0000000000000000e+00  0.0000000000000000e+00 0.0000000000000000e+00 0.0000000000000000e+00  0.0000000000000000e+00 0.0000000000000000e+00 0.0000000000000000e+00  0.0000000000000000e+00 0.0000000000000000e+00 0.0000000000000000e+00  0.0000000000000000e+00 0.0000000000000000e+00 0.0000000000000000e+00  0.0000000000000000e+00 0.0000000000000000e+00 0.0000000000000000e+00  0.0000000000000000e+00 0.0000000000000000e+00 0.0000000000000000e+00  0.0000000000000000e+00 0.0000000000000000e+00 0.0000000000000000e+00  0.0000000000000000e+00 0.0000000000000000e+00 0.0000000000000000e+00  0.0000000000000000e+00 0.0000000000000000e+00 0.0000000000000000e+00  0.0000000000000000e+00 0.0000000000000000e+00 0.0000000000000000e+00  0.0000000000000000e+00 0.0000000000000000e+00 0.0000000000000000e+00  0.0000000000000000e+00 0.0000000000000000e+00 0.0000000000000000e+00  -1.0764513262929630e-13 2.6055185099870946e-18 0.0000000000000000e+00  0.0000000000000000e+00 0.0000000000000000e+00 0.0000000000000000e+00  0.0000000000000000e+00 0.0000000000000000e+00 0.0000000000000000e+00  0.0000000000000000e+00 0.0000000000000000e+00 0.0000000000000000e+00  0.0000000000000000e+00 0.0000000000000000e+00 0.0000000000000000e+00  0.0000000000000000e+00 0.0000000000000000e+00 0.0000000000000000e+00  0.0000000000000000e+00 0.0000000000000000e+00 0.0000000000000000e+00  0.0000000000000000e+00 0.0000000000000000e+00 0.0000000000000000e+00  0.0000000000000000e+00 0.0000000000000000e+00 0.0000000000000000e+00  0.0000000000000000e+00 0.0000000000000000e+00 0.0000000000000000e+00  0.0000000000000000e+00 0.0000000000000000e+00 0.0000000000000000e+00  0.0000000000000000e+00 0.0000000000000000e+00 0.0000000000000000e+00  0.0000000000000000e+00 0.0000000000000000e+00 0.0000000000000000e+00  0.0000000000000000e+00 0.0000000000000000e+00 0.0000000000000000e+00  0.0000000000000000e+00 0.0000000000000000e+00 0.0000000000000000e+00  0.0000000000000000e+00 0.0000000000000000e+00 0.0000000000000000e+00  0.0000000000000000e+00 0.0000000000000000e+00 0.0000000000000000e+00  0.0000000000000000e+00 0.0000000000000000e+00 0.0000000000000000e+00  0.0000000000000000e+00 0.0000000000000000e+00 0.0000000000000000e+00  0.0000000000000000e+00 0.0000000000000000e+00 0.0000000000000000e+00  0.0000000000000000e+00 0.0000000000000000e+00 0.0000000000000000e+00  0.0000000000000000e+00 0.0000000000000000e+00 0.0000000000000000e+00  0.0000000000000000e+00 0.0000000000000000e+00 0.0000000000000000e+00  0.0000000000000000e+00 0.0000000000000000e+00 0.0000000000000000e+00  0.0000000000000000e+00 0.0000000000000000e+00 0.0000000000000000e+00  0.0000000000000000e+00 0.0000000000000000e+00 0.0000000000000000e+00  0.0000000000000000e+00 0.0000000000000000e+00 0.0000000000000000e+00  0.0000000000000000e+00 0.0000000000000000e+00 0.0000000000000000e+00  0.0000000000000000e+00 0.0000000000000000e+00 0.0000000000000000e+00  0.0000000000000000e+00 0.0000000000000000e+00 0.0000000000000000e+00  0.0000000000000000e+00 0.0000000000000000e+00 0.0000000000000000e+00  0.0000000000000000e+00 0.0000000000000000e+00 0.0000000000000000e+00  0.0000000000000000e+00 0.0000000000000000e+00 0.0000000000000000e+00  0.0000000000000000e+00 0.0000000000000000e+00 0.0000000000000000e+00  0.0000000000000000e+00 0.0000000000000000e+00 0.0000000000000000e+00  0.0000000000000000e+00 0.0000000000000000e+00 0.0000000000000000e+00  0.0000000000000000e+00 0.0000000000000000e+00 0.0000000000000000e+00  0.0000000000000000e+00 0.0000000000000000e+00 0.0000000000000000e+00  0.0000000000000000e+00 0.0000000000000000e+00 0.0000000000000000e+00  0.0000000000000000e+00 0.0000000000000000e+00 0.0000000000000000e+00  0.0000000000000000e+00 0.0000000000000000e+00 0.0000000000000000e+00  0.0000000000000000e+00 0.0000000000000000e+00 0.0000000000000000e+00  0.0000000000000000e+00 0.0000000000000000e+00 0.0000000000000000e+00  0.0000000000000000e+00 0.0000000000000000e+00 0.0000000000000000e+00  0.0000000000000000e+00 0.0000000000000000e+00 0.0000000000000000e+00  0.0000000000000000e+00 0.0000000000000000e+00 0.0000000000000000e+00  0.0000000000000000e+00 0.0000000000000000e+00 0.0000000000000000e+00  0.0000000000000000e+00 0.0000000000000000e+00 0.0000000000000000e+00  0.0000000000000000e+00 0.0000000000000000e+00 0.0000000000000000e+00  0.0000000000000000e+00 0.0000000000000000e+00 0.0000000000000000e+00  0.0000000000000000e+00 0.0000000000000000e+00 0.0000000000000000e+00  0.0000000000000000e+00 0.0000000000000000e+00 0.0000000000000000e+00  0.0000000000000000e+00 0.0000000000000000e+00 0.0000000000000000e+00  -5.9853425600841652e-12 0.0000000000000000e+00 0.0000000000000000e+00  0.0000000000000000e+00 0.0000000000000000e+00 0.0000000000000000e+00  0.0000000000000000e+00 0.0000000000000000e+00 0.0000000000000000e+00  0.0000000000000000e+00 0.0000000000000000e+00 0.0000000000000000e+00  0.0000000000000000e+00 0.0000000000000000e+00 0.0000000000000000e+00  0.0000000000000000e+00 0.0000000000000000e+00 0.0000000000000000e+00  6.0749750848810604e-13 1.6102152811237761e-17 0.0000000000000000e+00  0.0000000000000000e+00 0.0000000000000000e+00 0.0000000000000000e+00  0.0000000000000000e+00 0.0000000000000000e+00 0.0000000000000000e+00  0.0000000000000000e+00 0.0000000000000000e+00 0.0000000000000000e+00  0.0000000000000000e+00 0.0000000000000000e+00 0.0000000000000000e+00  0.0000000000000000e+00 0.0000000000000000e+00 0.0000000000000000e+00  0.0000000000000000e+00 0.0000000000000000e+00 0.0000000000000000e+00  0.0000000000000000e+00 0.0000000000000000e+00 0.0000000000000000e+00  0.0000000000000000e+00 0.0000000000000000e+00 0.0000000000000000e+00  0.0000000000000000e+00 0.0000000000000000e+00 0.0000000000000000e+00  0.0000000000000000e+00 0.0000000000000000e+00 0.0000000000000000e+00  -2.2243046900498177e-14 -6.1361970677186248e-14 0.0000000000000000e+00  0.0000000000000000e+00 0.0000000000000000e+00 0.0000000000000000e+00  0.0000000000000000e+00 0.0000000000000000e+00 0.0000000000000000e+00  0.0000000000000000e+00 0.0000000000000000e+00 0.0000000000000000e+00  0.0000000000000000e+00 0.0000000000000000e+00 0.0000000000000000e+00  7.1651532137483368e-15 0.0000000000000000e+00 0.0000000000000000e+00  0.0000000000000000e+00 0.0000000000000000e+00 0.0000000000000000e+00  0.0000000000000000e+00 0.0000000000000000e+00 0.0000000000000000e+00  0.0000000000000000e+00 0.0000000000000000e+00 0.0000000000000000e+00  0.0000000000000000e+00 0.0000000000000000e+00 0.0000000000000000e+00  0.0000000000000000e+00 0.0000000000000000e+00 0.0000000000000000e+00  0.0000000000000000e+00 0.0000000000000000e+00 0.0000000000000000e+00  0.0000000000000000e+00 0.0000000000000000e+00 0.0000000000000000e+00  0.0000000000000000e+00 0.0000000000000000e+00 0.0000000000000000e+00  0.0000000000000000e+00 0.0000000000000000e+00 0.0000000000000000e+00  0.0000000000000000e+00 0.0000000000000000e+00 0.0000000000000000e+00  0.0000000000000000e+00 0.0000000000000000e+00 0.0000000000000000e+00  0.0000000000000000e+00 0.0000000000000000e+00 0.0000000000000000e+00  0.0000000000000000e+00 0.0000000000000000e+00 0.0000000000000000e+00  0.0000000000000000e+00 0.0000000000000000e+00 0.0000000000000000e+00  0.0000000000000000e+00 0.0000000000000000e+00 0.0000000000000000e+00  0.0000000000000000e+00 0.0000000000000000e+00 0.0000000000000000e+00  0.0000000000000000e+00 0.0000000000000000e+00 0.0000000000000000e+00  0.0000000000000000e+00 0.0000000000000000e+00 0.0000000000000000e+00  0.0000000000000000e+00 0.0000000000000000e+00 0.0000000000000000e+00  0.0000000000000000e+00 0.0000000000000000e+00 0.0000000000000000e+00  0.0000000000000000e+00 0.0000000000000000e+00 0.0000000000000000e+00  0.0000000000000000e+00 0.0000000000000000e+00 0.0000000000000000e+00  0.0000000000000000e+00 0.0000000000000000e+00 0.0000000000000000e+00  0.0000000000000000e+00 0.0000000000000000e+00 0.0000000000000000e+00  0.0000000000000000e+00 0.0000000000000000e+00 0.0000000000000000e+00  0.0000000000000000e+00 0.0000000000000000e+00 0.0000000000000000e+00  0.0000000000000000e+00 0.0000000000000000e+00 0.0000000000000000e+00  0.0000000000000000e+00 0.0000000000000000e+00 0.0000000000000000e+00  0.0000000000000000e+00 0.0000000000000000e+00 0.0000000000000000e+00  0.0000000000000000e+00 0.0000000000000000e+00 0.0000000000000000e+00  0.0000000000000000e+00 0.0000000000000000e+00 0.0000000000000000e+00  -1.3371424746001379e-14 -2.2367289732213824e-11 0.0000000000000000e+00  5.3579481602927288e-07 -5.7921949639926136e-07 0.0000000000000000e+00  1.1919388406593767e-06 -4.4054155632135480e-07 0.0000000000000000e+00  1.9839120148787966e-06 -2.9576854172261340e-07 0.0000000000000000e+00  2.8808092436314721e-06 -1.7527637479463564e-07 0.0000000000000000e+00  3.8294275414666457e-06 -1.9014840449677442e-07 0.0000000000000000e+00  4.8793148516645895e-06 -3.6307079331617241e-07 0.0000000000000000e+00  5.9250680348705171e-06 -6.9980497427425232e-07 0.0000000000000000e+00  7.0168845721123920e-06 -1.2860629605869296e-06 0.0000000000000000e+00  8.2063281736946950e-06 -2.0956869404670719e-06 0.0000000000000000e+00  9.3423127465593591e-06 -3.1775791290782759e-06 0.0000000000000000e+00  1.0602399458045720e-05 -4.5475378115766220e-06 0.0000000000000000e+00  1.1773880931577497e-05 -6.2274367297469107e-06 0.0000000000000000e+00  1.3054758764054080e-05 -8.2245312017522963e-06 0.0000000000000000e+00  1.4250716358325055e-05 -1.0503023046755372e-05 0.0000000000000000e+00  1.5453162614002785e-05 -1.3152951453899266e-05 0.0000000000000000e+00  1.6735244008202253e-05 -1.6102380576676313e-05 0.0000000000000000e+00  1.7900386541486571e-05 -1.9377383693067896e-05 0.0000000000000000e+00  1.9162493469288988e-05 -2.2989755073512978e-05 0.0000000000000000e+00  2.0291107785815744e-05 -2.6914483034314638e-05 0.0000000000000000e+00  2.1498246126468497e-05 -3.1152313779430664e-05 0.0000000000000000e+00  2.2597565089630234e-05 -3.5695142069055193e-05 0.0000000000000000e+00  2.3735380503003064e-05 -4.0549712308304904e-05 0.0000000000000000e+00  2.4770053924508567e-05 -4.5638884089437278e-05 0.0000000000000000e+00  2.5775261717545523e-05 -5.1036252128944625e-05 0.0000000000000000e+00  2.6806314663738740e-05 -5.6650872764024986e-05 0.0000000000000000e+00  2.7746885659621723e-05 -6.2514461956620016e-05 0.0000000000000000e+00  2.8666122886853088e-05 -6.8615402561576812e-05 0.0000000000000000e+00  2.9521801246689850e-05 -7.4897321120987966e-05 0.0000000000000000e+00  3.0350729183930260e-05 -8.1392031828652353e-05 0.0000000000000000e+00  3.1117021099796058e-05 -8.8033089858900081e-05 0.0000000000000000e+00  3.1852745465877686e-05 -9.4855183271874726e-05 0.0000000000000000e+00  3.2527795251999502e-05 -1.0179046887922695e-04 0.0000000000000000e+00  3.3169251267872591e-05 -1.0887583783860502e-04 0.0000000000000000e+00  3.3753922943085063e-05 -1.1604330801273327e-04 0.0000000000000000e+00  3.4301486247076128e-05 -1.2333261401094515e-04 0.0000000000000000e+00  3.4796308929191680e-05 -1.3067678459607784e-04 0.0000000000000000e+00  3.5254152568770787e-05 -1.3811578058704166e-04 0.0000000000000000e+00  3.5663229210827727e-05 -1.4558716734918198e-04 0.0000000000000000e+00  3.6034859543395059e-05 -1.5313078252116312e-04 0.0000000000000000e+00  3.6360124637746010e-05 -1.6068721830308301e-04 0.0000000000000000e+00  3.6644852868321603e-05 -1.6829202709274947e-04 0.0000000000000000e+00  3.6892722734463821e-05 -1.7590685051903224e-04 0.0000000000000000e+00  3.7100727352166886e-05 -1.8354452215589828e-04 0.0000000000000000e+00  3.7288182258117188e-05 -1.9119097599500667e-04 0.0000000000000000e+00  3.7432518144050964e-05 -1.9883457720959617e-04 0.0000000000000000e+00  3.7577111467750865e-05 -2.0651951107729480e-04 0.0000000000000000e+00  3.2372801507820889e-05 -2.1419178767194202e-04 0.0000000000000000e+00  2.2061325421001250e-05 -2.1387240816622105e-04 0.0000000000000000e+00  1.6947316284430469e-05 -2.0613242991741066e-04 0.0000000000000000e+00  1.6831839121857921e-05 -1.9841012080584075e-04 0.0000000000000000e+00  1.6714421445575659e-05 -1.9067321103534947e-04 0.0000000000000000e+00  1.6569672723193808e-05 -1.8296074909146133e-04 0.0000000000000000e+00  1.6405979639609948e-05 -1.7525937659697613e-04 0.0000000000000000e+00  1.6214226563916571e-05 -1.6757870299643948e-04 0.0000000000000000e+00  1.6012459408714801e-05 -1.5992467215734886e-04 0.0000000000000000e+00  1.5776116915251615e-05 -1.5228930274740712e-04 0.0000000000000000e+00  1.5535739015713607e-05 -1.4471043610721267e-04 0.0000000000000000e+00  1.5261537262362771e-05 -1.3716140482675004e-04 0.0000000000000000e+00  1.4993969735511528e-05 -1.2968811032302137e-04 0.0000000000000000e+00  1.4689363339515209e-05 -1.2226778712716156e-04 0.0000000000000000e+00  1.4402806397598426e-05 -1.1494601837709486e-04 0.0000000000000000e+00  1.4074093240490212e-05 -1.0770506234539299e-04 0.0000000000000000e+00  1.3776223168798930e-05 -1.0058904792690643e-04 0.0000000000000000e+00  1.3428752607417726e-05 -9.3583973258716215e-05 0.0000000000000000e+00  1.3124942821207353e-05 -8.6733310497586204e-05 0.0000000000000000e+00  1.2763856544757960e-05 -8.0026722813012863e-05 0.0000000000000000e+00  1.2460077053460430e-05 -7.3505861935097862e-05 0.0000000000000000e+00  1.2090008005357854e-05 -6.7163370860642144e-05 0.0000000000000000e+00  1.1791625527151670e-05 -6.1040005385903486e-05 0.0000000000000000e+00  1.1417268629110492e-05 -5.5131199545026503e-05 0.0000000000000000e+00  1.1116365949577648e-05 -4.9473076800106197e-05 0.0000000000000000e+00  1.0753440992524770e-05 -4.4044604999440059e-05 0.0000000000000000e+00  1.0384464620354505e-05 -3.8928282499412952e-05 0.0000000000000000e+00  1.0083695983220420e-05 -3.4040667168332007e-05 0.0000000000000000e+00  9.7288232751774269e-06 -2.9475374616131218e-05 0.0000000000000000e+00  9.4081512778343454e-06 -2.5211276898753309e-05 0.0000000000000000e+00  9.0502202126556004e-06 -2.1263253505460435e-05 0.0000000000000000e+00  8.7187650161452962e-06 -1.7642034402733403e-05 0.0000000000000000e+00  8.3505588193791217e-06 -1.4333865178245450e-05 0.0000000000000000e+00  8.0329746294349685e-06 -1.1396362893871663e-05 0.0000000000000000e+00  7.6314780970345642e-06 -8.7332746318650035e-06 0.0000000000000000e+00  7.2150884352198206e-06 -6.4529210937665714e-06 0.0000000000000000e+00  6.8601548305936285e-06 -4.4358272254448760e-06 0.0000000000000000e+00  6.4382844992248064e-06 -2.7658996287441104e-06 0.0000000000000000e+00  6.0254846396938589e-06 -1.4030523678547573e-06 0.0000000000000000e+00  5.5619071785196891e-06 -3.1657031297380673e-07 0.0000000000000000e+00  5.1124118274082421e-06 4.6545475240716308e-07 0.0000000000000000e+00  4.5811339173474666e-06 1.0422801301737255e-06 0.0000000000000000e+00  4.0151197909626469e-06 1.3621535153087661e-06 0.0000000000000000e+00  3.4582071816254325e-06 1.5201372181540670e-06 0.0000000000000000e+00  2.8227871271513299e-06 1.5214910159091343e-06 0.0000000000000000e+00  2.1621778439762576e-06 1.3937998141882506e-06 0.0000000000000000e+00  1.4517375086385980e-06 1.2021124364174436e-06 0.0000000000000000e+00  7.3084451088120676e-07 9.3592793014542200e-07 0.0000000000000000e+00  8.8118883935516090e-07 2.7431139334829762e-07 0.0000000000000000e+00  2.7214308832007480e-05 -2.0245066559706484e-04 0.0000000000000000e+00  2.7100218172671628e-05 -1.8774994413520745e-04 0.0000000000000000e+00  2.6372739162731251e-05 -1.6382871303664037e-04 0.0000000000000000e+00  2.4588983959091443e-06 6.7315800978914323e-07 0.0000000000000000e+00  2.5705261675928009e-05 -1.4889386325168038e-04 0.0000000000000000e+00  3.9766896434071495e-06 7.3556244176548529e-07 0.0000000000000000e+00  2.5030371701419246e-05 -1.3385919278724670e-04 0.0000000000000000e+00  6.4821840753397766e-06 -6.3046654084322935e-07 0.0000000000000000e+00  8.0918587775554760e-06 -2.7513495531479147e-06 0.0000000000000000e+00  2.4241768618662410e-05 -1.1907713228546488e-04 0.0000000000000000e+00  1.2101595452479953e-05 -1.3602376938427807e-05 0.0000000000000000e+00  2.2338743441084433e-05 -9.0685471589760803e-05 0.0000000000000000e+00  9.6176908572115545e-06 -5.9106202538685479e-06 0.0000000000000000e+00  1.3686566114883135e-05 -2.0071399196217252e-05 0.0000000000000000e+00  2.1233982239622091e-05 -7.7314670176190976e-05 0.0000000000000000e+00  2.3343144274016718e-05 -1.0464778969457570e-04 0.0000000000000000e+00  1.5208596913221712e-05 -2.7949356893700400e-05 0.0000000000000000e+00  2.0033916603599499e-05 -6.4668365796711618e-05 0.0000000000000000e+00  1.6534715694884688e-05 -3.6668122085928066e-05 0.0000000000000000e+00  1.8874436418125910e-05 -5.3123110988902570e-05 0.0000000000000000e+00  1.7666866729345223e-05 -4.4283824358141756e-05 0.0000000000000000e+00  1.0858017961150511e-05 -9.2540623131616597e-06 0.0000000000000000e+00  2.6590424106628036e-05 -1.7624317447261287e-04 0.0000000000000000e+00  5.1821049072103412e-06 3.0472789644414500e-07 0.0000000000000000e+00  2.3565471028271114e-05 -1.9496955813032686e-04 0.0000000000000000e+00  1.6924696172060815e-06 8.0098716486720891e-07 0.0000000000000000e+00  2.2467780611798437e-05 -1.4122278823666492e-04 0.0000000000000000e+00  2.3050038781374238e-05 -1.5636569218826241e-04 0.0000000000000000e+00  3.2818289181614760e-06 4.4928109162252935e-07 0.0000000000000000e+00  7.7187795638282663e-06 -1.8202743668910934e-06 0.0000000000000000e+00  2.0154088838304525e-05 -9.7433301514889608e-05 0.0000000000000000e+00  2.1787177621736269e-05 -1.2628873956797669e-04 0.0000000000000000e+00  1.4191589569491138e-05 -1.6897633307137876e-05 0.0000000000000000e+00  1.9214971906926815e-05 -8.3739362645056555e-05 0.0000000000000000e+00  9.5607325415175066e-06 -4.5466544795186482e-06 0.0000000000000000e+00  1.5978368599126070e-05 -2.4128780070854662e-05 0.0000000000000000e+00  1.8203152149361776e-05 -7.0703336699155621e-05 0.0000000000000000e+00  2.1013678860549972e-05 -1.1165614527331515e-04 0.0000000000000000e+00  1.8087235694073709e-05 -3.2636714418028836e-05 0.0000000000000000e+00  1.7122393638393978e-05 -5.8460579256975183e-05 0.0000000000000000e+00  3.2075453690298503e-07 -7.8095284279445933e-08 0.0000000000000000e+00  3.2768199840704663e-07 2.8208286918619401e-07 0.0000000000000000e+00  2.9634442132622534e-05 -2.0855824425453759e-04 0.0000000000000000e+00  1.6298362850758718e-06 1.3856403253754458e-07 0.0000000000000000e+00  1.56208994993365