<?xml version="1.0"?>
<VTKFile type="UnstructuredGrid"  version="0.1"  >
<UnstructuredGrid>
<Piece  NumberOfPoints="1419" NumberOfCells="2698">
<Points>
<DataArray  type="Float64"  NumberOfComponents="3"  format="ascii">0 0 0  0 0.41 0  2.5 0 0  2.5 0.41 0  0.6 0.19 0  0.6 0.21 0  0.25 0.2 0  0.15 0.2 0  0.2489897948556636 0.21 0  0.2489897948556636 0.19 0  0.6 0.2 0  0 0.3807142857143437 0  0 0.3514285714286952 0  0 0.3221428571430699 0  0 0.29285714285744 0  0 0.2635714285718054 0  0 0.2342857142861561 0  0 0.2050000000005308 0  0 0.175714285714732 0  0 0.1464285714289574 0  0 0.1171428571431897 0  0 0.08785714285737878 0  0 0.05857142857161107 0  0 0.02928571428580012 0  0.03015443760436003 0 0  0.06140001986583606 0 0  0.09377624077125973 0 0  0.1273239957535082 0 0  0.1620856860351972 0 0  0.1981052433264291 0 0  0.235428184091502 0 0  0.2741016576309132 0 0  0.3141745521465447 0 0  0.3556974926295285 0 0  0.3987229542472677 0 0  0.4433053055141081 0 0  0.4895008759286886 0 0  0.5373680609405097 0 0  0.5869673343216626 0 0  0.6383613676634521 0 0  0.6916151138468254 0 0  0.7467958595648856 0 0  0.8039733463919316 0 0  0.8632198139502143 0 0  0.9246101326867038 0 0  0.9882218810934433 0 0  1.054135445558498 0 0  1.122434100542598 0 0  1.193204177141305 0 0  1.266535089879536 0 0  1.342519516046404 0 0  1.421253448503939 0 0  1.502836389106271 0 0  1.587371439758838 0 0  1.674965418777374 0 0  1.765729001825544 0 0  1.859776908880082 0 0  1.957227977487062 0 0  2.058205329869943 0 0  2.162836591189951 0 0  2.271253957290865 0 0  2.383594446803425 0 0  2.5 0.1024999999997612 0  2.5 0.2049999999994743 0  2.5 0.3074999999997183 0  2.383594446803656 0.41 0  2.271253957291315 0.41 0  2.162836591190598 0.41 0  2.058205329870775 0.41 0  1.957227977488067 0.41 0  1.859776908881246 0.41 0  1.765729001826854 0.41 0  1.674965418778818 0.41 0  1.58737143976041 0.41 0  1.502836389107956 0.41 0  1.421253448505726 0.41 0  1.342519516048286 0.41 0  1.266535089881505 0.41 0  1.193204177143353 0.41 0  1.122434100544716 0.41 0  1.05413544556068 0.41 0  0.9882218810956305 0.41 0  0.9246101326886647 0.41 0  0.8632198139519631 0.41 0  0.8039733463934788 0.41 0  0.7467958595662458 0.41 0  0.6916151138480078 0.41 0  0.6383613676644679 0.41 0  0.5869673343225223 0.41 0  0.5373680609412221 0.41 0  0.4895008759292634 0.41 0  0.4433053055145528 0.41 0  0.3987229542475914 0.41 0  0.3556974926297398 0.41 0  0.3141745521466497 0.41 0  0.2741016576310038 0.41 0  0.2354281840915826 0.41 0  0.1981052433265003 0.41 0  0.1620856860352591 0.41 0  0.1273239957535623 0.41 0  0.09377624077128965 0.41 0  0.06140001986584975 0.41 0  0.03015443760436654 0.41 0  0.2497468076502589 0.2050254481002335 0  0.2497468076502614 0.1949745518997913 0  0.2469965252529372 0.1829317073451959 0  0.2439893735792749 0.1762316384219906 0  0.2400332147834255 0.1700443375285386 0  0.2352133972704371 0.1645032867342007 0  0.2296339016332438 0.1597280261969788 0  0.2234150974217223 0.1558215752574715 0  0.2166911463437691 0.1528682099456123 0  0.2096071079204251 0.1509316448471593 0  0.2023158100364996 0.1500536585536553 0  0.194974551899914 0.1502531923497262 0  0.1877417105387872 0.1515259415822739 0  0.1807733240461124 0.153844448527136 0  0.1742197252835808 0.15715869474974 0  0.1682222986673531 0.1613971801805478 0  0.162910430003803 0.1664684656256651 0  0.1583987151779087 0.1722631454351573 0  0.1547844879126891 0.178656207771761 0  0.1521457199348551 0.1855097315605723 0  0.1505393388476355 0.1926758619366523 0  0.1505393388476328 0.2073241380633295 0  0.1521457199348437 0.2144902684393899 0  0.1547844879126531 0.221343792228163 0  0.1583987151778488 0.2277368545647528 0  0.1629104300036858 0.2335315343742052 0  0.1682222986671726 0.2386028198193036 0  0.1742197252833576 0.2428413052501257 0  0.1807733240458683 0.2461555514727623 0  0.1877417105384929 0.2484740584176516 0  0.1949745518995776 0.2497468076502398 0  0.202315810036185 0.2499463414463592 0  0.2096071079201568 0.2490683551528932 0  0.2166911463435495 0.2471317900544655 0  0.2234150974215506 0.2441784247426195 0  0.2296339016331197 0.2402719738031125 0  0.2352133972703547 0.2354967132658811 0  0.2400332147833751 0.2299556624715287 0  0.2439893735792577 0.2237683615780412 0  0.246996525252926 0.2170682926548348 0  0.25645809709277 0.21 0  0.2639263993298655 0.21 0  0.271394701566961 0.21 0  0.2788630038040554 0.21 0  0.2863313060411479 0.21 0  0.2937996082782405 0.21 0  0.301267910515333 0.21 0  0.3087362127524279 0.21 0  0.3162045149895234 0.21 0  0.3236728172265972 0.21 0  0.3311411194636928 0.21 0  0.3386094217007701 0.21 0  0.3460777239378666 0.21 0  0.3535460261749672 0.21 0  0.3610143284120516 0.21 0  0.3684826306491596 0.21 0  0.3759509328862226 0.21 0  0.383419235123329 0.21 0  0.3908875373604028 0.21 0  0.3983558395975142 0.21 0  0.4058241418345938 0.21 0  0.4132924440716992 0.21 0  0.4207607463087888 0.21 0  0.4282290485459029 0.21 0  0.4356973507830418 0.21 0  0.4431656530201649 0.21 0  0.4506339552573136 0.21 0  0.4581022574944306 0.21 0  0.4655705597315852 0.21 0  0.4730388619686996 0.21 0  0.480507164205851 0.21 0  0.4879754664429498 0.21 0  0.4954437686800938 0.21 0  0.502912070917267 0.21 0  0.5103803731544119 0.21 0  0.5178486753915261 0.21 0  0.5253169776286404 0.21 0  0.5327852798657868 0.21 0  0.5402535821029386 0.21 0  0.54772188434007 0.21 0  0.5551901865771842 0.21 0  0.5626584888143201 0.21 0  0.5701267910514778 0.21 0  0.5775950932886138 0.21 0  0.5850633955257281 0.21 0  0.5925316977628483 0.21 0  0.6 0.2050000000000054 0  0.6 0.1950000000000217 0  0.5925316977628897 0.19 0  0.5850633955257988 0.19 0  0.5775950932887378 0.19 0  0.5701267910515998 0.19 0  0.5626584888145268 0.19 0  0.5551901865773963 0.19 0  0.547721884340339 0.19 0  0.5402535821032429 0.19 0  0.5327852798661811 0.19 0  0.5253169776290537 0.19 0  0.5178486753919799 0.19 0  0.5103803731549078 0.19 0  0.502912070917822 0.19 0  0.4954437686807294 0.19 0  0.4879754664436223 0.19 0  0.4805071642065402 0.19 0  0.4730388619694271 0.19 0  0.4655705597323621 0.19 0  0.4581022574952563 0.19 0  0.4506339552581777 0.19 0  0.4431656530210671 0.19 0  0.4356973507839815 0.19 0  0.4282290485468779 0.19 0  0.4207607463097617 0.19 0  0.4132924440726327 0.19 0  0.4058241418354857 0.19 0  0.3983558395983636 0.19 0  0.3908875373612097 0.19 0  0.3834192351240934 0.19 0  0.3759509328869369 0.19 0  0.3684826306498175 0.19 0  0.361014328412667 0.19 0  0.3535460261755617 0.19 0  0.3460777239384295 0.19 0  0.3386094217012945 0.19 0  0.3311411194641595 0.19 0  0.3236728172270245 0.19 0  0.3162045149898895 0.19 0  0.3087362127527544 0.19 0  0.3012679105156187 0.19 0  0.2937996082784807 0.19 0  0.2863313060413428 0.19 0  0.2788630038042048 0.19 0  0.2713947015670686 0.19 0  0.2639263993299336 0.19 0  0.2564580970927985 0.19 0  0.2607803159922026 0.2000727136295815 0  0.5887803774232762 0.2001272386983733 0  0.5745072403740523 0.2002044435018727 0  0.5511891430099709 0.2001122610077113 0  0.2751288526855082 0.20000000000002 0  0.5365194309847112 0.1999999999999436 0  0.2894621222999649 0.1998691686390484 0  0.5215828265105155 0.1999999999999228 0  0.3127789816668748 0.1998657885438805 0  0.3274069683451451 0.2000000000000796 0  0.5066462220363641 0.199999999999908 0  0.3650630746574081 0.199866017807523 0  0.476773013087985 0.1999999999998713 0  0.3417402379596385 0.1998691686391011 0  0.3796850840047755 0.200000000000134 0  0.4618364086138087 0.1999999999998546 0  0.4917096175621762 0.1999999999998808 0  0.3946216884789568 0.2000000000001512 0  0.446899804139621 0.1999999999998389 0  0.4089549580935208 0.1998691686391595 0  0.4322718174608562 0.200127451265745 0  0.4201487168029707 0.1999966199048527 0  0.3528922713220932 0.2000185703532356 0  0.5633122436674589 0.1999814296467508 0  0.3006558810093873 0.1999966199048318 0  0.5815926498168407 0.1966545283159175 0  0.2677053789419034 0.1964246479135325 0  0.5290511287476175 0.1970915826863981 0  0.5439877332217911 0.197091582686394 0  0.2825131256993216 0.2035478995978015 0  0.3199386661080599 0.202908417313604 0  0.4842413153250809 0.1970915826863873 0  0.5141145242734466 0.1970915826863843 0  0.3722167817676917 0.2029084173136195 0  0.4693047108508938 0.1970915826863783 0  0.3348752705822316 0.202908417313609 0  0.3871533862418661 0.2029084173136212 0  0.4543681063767183 0.1970915826863795 0  0.4991779197992749 0.1970915826863902 0  0.4020059614928624 0.203547899597858 0  0.4394315019025246 0.1970915826863714 0  0.2550657455369551 0.2034088125358657 0  0.2548908499171161 0.1966940311614271 0  0.5946539510196798 0.2024302972968126 0  0.267698176732111 0.2039977513680092 0  0.4261685417851465 0.196409292431739 0  0.3590076176283495 0.196411355804271 0  0.5571672426447437 0.2036011176410121 0  0.3066757059912147 0.1964092924317024 0  0.594380730180568 0.1966558399668133 0  0.4842413153245942 0.2040749161535287 0  0.4693047108503577 0.2040749161535231 0  0.3871533862424271 0.1959250838464788 0  0.372246743208829 0.1959123236376545 0  0.5141145242731028 0.2040749161535395 0  0.4543681063761134 0.2040749161535186 0  0.4019979587101454 0.1959834479682427 0  0.4394608940728603 0.2040870543693135 0  0.5439623148931173 0.2040856076781014 0  0.5290511287473298 0.2040749161535501 0  0.4991779197988497 0.2040749161535382 0  0.3347912413592433 0.1959225448935183 0  0.3199680582793816 0.1959123018030061 0  0.2825051229162361 0.1959834479681729 0  0.3590471196690275 0.2036304442587945 0  0.5571594006495384 0.1963685282145804 0  0.3067669986803285 0.203627750582736 0  0.4262598344738712 0.2036568242185335 0  0.5814408164431408 0.2041285596160068 0  0.5688286748170428 0.1961819304477386 0  0.4145905603063645 0.2038180695522843 0  0.3473758401724931 0.2038180695522752 0  0.2950977245128307 0.2038180695522663 0  0.5688286748170693 0.203818069552238 0  0.2950977245127906 0.1961819304477774 0  0.3473758401723931 0.1961819304478349 0  0.4145905603061963 0.1961819304479011 0  0.2601812407614425 0.2056861609747042
[...]
<PointData  Vectors="f_46-2"> 
<DataArray  type="Float64"  Name="f_46-2"  NumberOfComponents="3" format="ascii">0.0000000000000000e+00 0.0000000000000000e+00 0.0000000000000000e+00  0.0000000000000000e+00 0.0000000000000000e+00 0.0000000000000000e+00  0.0000000000000000e+00 0.0000000000000000e+00 0.0000000000000000e+00  0.0000000000000000e+00 0.0000000000000000e+00 0.0000000000000000e+00  1.8580986694418643e-05 -1.6175933732674714e-04 0.0000000000000000e+00  3.5577026462012725e-05 -1.6242051474245239e-04 0.0000000000000000e+00  0.0000000000000000e+00 0.0000000000000000e+00 0.0000000000000000e+00  0.0000000000000000e+00 0.0000000000000000e+00 0.0000000000000000e+00  0.0000000000000000e+00 0.0000000000000000e+00 0.0000000000000000e+00  0.0000000000000000e+00 0.0000000000000000e+00 0.0000000000000000e+00  2.6787766407826870e-05 -1.6208926862199520e-04 0.0000000000000000e+00  0.0000000000000000e+00 0.0000000000000000e+00 0.0000000000000000e+00  0.0000000000000000e+00 0.0000000000000000e+00 0.0000000000000000e+00  0.0000000000000000e+00 0.0000000000000000e+00 0.0000000000000000e+00  0.0000000000000000e+00 0.0000000000000000e+00 0.0000000000000000e+00  0.0000000000000000e+00 0.0000000000000000e+00 0.0000000000000000e+00  0.0000000000000000e+00 0.0000000000000000e+00 0.0000000000000000e+00  0.0000000000000000e+00 0.0000000000000000e+00 0.0000000000000000e+00  0.0000000000000000e+00 0.0000000000000000e+00 0.0000000000000000e+00  0.0000000000000000e+00 0.0000000000000000e+00 0.0000000000000000e+00  0.0000000000000000e+00 0.0000000000000000e+00 0.0000000000000000e+00  0.0000000000000000e+00 0.0000000000000000e+00 0.0000000000000000e+00  0.0000000000000000e+00 0.0000000000000000e+00 0.0000000000000000e+00  0.0000000000000000e+00 0.0000000000000000e+00 0.0000000000000000e+00  0.0000000000000000e+00 0.0000000000000000e+00 0.0000000000000000e+00  0.0000000000000000e+00 0.0000000000000000e+00 0.0000000000000000e+00  0.0000000000000000e+00 0.0000000000000000e+00 0.0000000000000000e+00  0.0000000000000000e+00 0.0000000000000000e+00 0.0000000000000000e+00  0.0000000000000000e+00 0.0000000000000000e+00 0.0000000000000000e+00  0.0000000000000000e+00 0.0000000000000000e+00 0.0000000000000000e+00  0.0000000000000000e+00 0.0000000000000000e+00 0.0000000000000000e+00  0.0000000000000000e+00 0.0000000000000000e+00 0.0000000000000000e+00  0.0000000000000000e+00 0.0000000000000000e+00 0.0000000000000000e+00  0.0000000000000000e+00 0.0000000000000000e+00 0.0000000000000000e+00  0.0000000000000000e+00 0.0000000000000000e+00 0.0000000000000000e+00  1.3480649105885921e-13 4.5450417305062082e-17 0.0000000000000000e+00  0.0000000000000000e+00 0.0000000000000000e+00 0.0000000000000000e+00  0.0000000000000000e+00 0.0000000000000000e+00 0.0000000000000000e+00  0.0000000000000000e+00 0.0000000000000000e+00 0.0000000000000000e+00  0.0000000000000000e+00 0.0000000000000000e+00 0.0000000000000000e+00  0.0000000000000000e+00 0.0000000000000000e+00 0.0000000000000000e+00  0.0000000000000000e+00 0.0000000000000000e+00 0.0000000000000000e+00  0.0000000000000000e+00 0.0000000000000000e+00 0.0000000000000000e+00  0.0000000000000000e+00 0.0000000000000000e+00 0.0000000000000000e+00  0.0000000000000000e+00 0.0000000000000000e+00 0.0000000000000000e+00  0.0000000000000000e+00 0.0000000000000000e+00 0.0000000000000000e+00  0.0000000000000000e+00 0.0000000000000000e+00 0.0000000000000000e+00  0.0000000000000000e+00 0.0000000000000000e+00 0.0000000000000000e+00  0.0000000000000000e+00 0.0000000000000000e+00 0.0000000000000000e+00  0.0000000000000000e+00 0.0000000000000000e+00 0.0000000000000000e+00  0.0000000000000000e+00 0.0000000000000000e+00 0.0000000000000000e+00  0.0000000000000000e+00 0.0000000000000000e+00 0.0000000000000000e+00  0.0000000000000000e+00 0.0000000000000000e+00 0.0000000000000000e+00  0.0000000000000000e+00 0.0000000000000000e+00 0.0000000000000000e+00  0.0000000000000000e+00 0.0000000000000000e+00 0.0000000000000000e+00  0.0000000000000000e+00 0.0000000000000000e+00 0.0000000000000000e+00  0.0000000000000000e+00 0.0000000000000000e+00 0.0000000000000000e+00  0.0000000000000000e+00 0.0000000000000000e+00 0.0000000000000000e+00  0.0000000000000000e+00 0.0000000000000000e+00 0.0000000000000000e+00  0.0000000000000000e+00 0.0000000000000000e+00 0.0000000000000000e+00  0.0000000000000000e+00 0.0000000000000000e+00 0.0000000000000000e+00  0.0000000000000000e+00 0.0000000000000000e+00 0.0000000000000000e+00  0.0000000000000000e+00 0.0000000000000000e+00 0.0000000000000000e+00  0.0000000000000000e+00 0.0000000000000000e+00 0.0000000000000000e+00  0.0000000000000000e+00 0.0000000000000000e+00 0.0000000000000000e+00  0.0000000000000000e+00 0.0000000000000000e+00 0.0000000000000000e+00  0.0000000000000000e+00 0.0000000000000000e+00 0.0000000000000000e+00  0.0000000000000000e+00 0.0000000000000000e+00 0.0000000000000000e+00  0.0000000000000000e+00 0.0000000000000000e+00 0.0000000000000000e+00  0.0000000000000000e+00 0.0000000000000000e+00 0.0000000000000000e+00  0.0000000000000000e+00 0.0000000000000000e+00 0.0000000000000000e+00  0.0000000000000000e+00 0.0000000000000000e+00 0.0000000000000000e+00  0.0000000000000000e+00 0.0000000000000000e+00 0.0000000000000000e+00  0.0000000000000000e+00 0.0000000000000000e+00 0.0000000000000000e+00  0.0000000000000000e+00 0.0000000000000000e+00 0.0000000000000000e+00  0.0000000000000000e+00 0.0000000000000000e+00 0.0000000000000000e+00  0.0000000000000000e+00 0.0000000000000000e+00 0.0000000000000000e+00  0.0000000000000000e+00 0.0000000000000000e+00 0.0000000000000000e+00  0.0000000000000000e+00 0.0000000000000000e+00 0.0000000000000000e+00  0.0000000000000000e+00 0.0000000000000000e+00 0.0000000000000000e+00  0.0000000000000000e+00 0.0000000000000000e+00 0.0000000000000000e+00  0.0000000000000000e+00 0.0000000000000000e+00 0.0000000000000000e+00  0.0000000000000000e+00 0.0000000000000000e+00 0.0000000000000000e+00  0.0000000000000000e+00 0.0000000000000000e+00 0.0000000000000000e+00  0.0000000000000000e+00 0.0000000000000000e+00 0.0000000000000000e+00  0.0000000000000000e+00 0.0000000000000000e+00 0.0000000000000000e+00  0.0000000000000000e+00 0.0000000000000000e+00 0.0000000000000000e+00  0.0000000000000000e+00 0.0000000000000000e+00 0.0000000000000000e+00  7.8588389418986309e-13 0.0000000000000000e+00 0.0000000000000000e+00  0.0000000000000000e+00 0.0000000000000000e+00 0.0000000000000000e+00  0.0000000000000000e+00 0.0000000000000000e+00 0.0000000000000000e+00  0.0000000000000000e+00 0.0000000000000000e+00 0.0000000000000000e+00  0.0000000000000000e+00 0.0000000000000000e+00 0.0000000000000000e+00  0.0000000000000000e+00 0.0000000000000000e+00 0.0000000000000000e+00  -5.2775289045199384e-13 5.2141740701088335e-18 0.0000000000000000e+00  0.0000000000000000e+00 0.0000000000000000e+00 0.0000000000000000e+00  0.0000000000000000e+00 0.0000000000000000e+00 0.0000000000000000e+00  0.0000000000000000e+00 0.0000000000000000e+00 0.0000000000000000e+00  0.0000000000000000e+00 0.0000000000000000e+00 0.0000000000000000e+00  0.0000000000000000e+00 0.0000000000000000e+00 0.0000000000000000e+00  0.0000000000000000e+00 0.0000000000000000e+00 0.0000000000000000e+00  0.0000000000000000e+00 0.0000000000000000e+00 0.0000000000000000e+00  0.0000000000000000e+00 0.0000000000000000e+00 0.0000000000000000e+00  0.0000000000000000e+00 0.0000000000000000e+00 0.0000000000000000e+00  0.0000000000000000e+00 0.0000000000000000e+00 0.0000000000000000e+00  -9.8188561867217900e-14 -1.5642134171091978e-14 0.0000000000000000e+00  0.0000000000000000e+00 0.0000000000000000e+00 0.0000000000000000e+00  0.0000000000000000e+00 0.0000000000000000e+00 0.0000000000000000e+00  0.0000000000000000e+00 0.0000000000000000e+00 0.0000000000000000e+00  0.0000000000000000e+00 0.0000000000000000e+00 0.0000000000000000e+00  2.3684404598150892e-17 5.8572504638571049e-23 0.0000000000000000e+00  0.0000000000000000e+00 0.0000000000000000e+00 0.0000000000000000e+00  0.0000000000000000e+00 0.0000000000000000e+00 0.0000000000000000e+00  0.0000000000000000e+00 0.0000000000000000e+00 0.0000000000000000e+00  0.0000000000000000e+00 0.0000000000000000e+00 0.0000000000000000e+00  0.0000000000000000e+00 0.0000000000000000e+00 0.0000000000000000e+00  0.0000000000000000e+00 0.0000000000000000e+00 0.0000000000000000e+00  0.0000000000000000e+00 0.0000000000000000e+00 0.0000000000000000e+00  0.0000000000000000e+00 0.0000000000000000e+00 0.0000000000000000e+00  0.0000000000000000e+00 0.0000000000000000e+00 0.0000000000000000e+00  0.0000000000000000e+00 0.0000000000000000e+00 0.0000000000000000e+00  0.0000000000000000e+00 0.0000000000000000e+00 0.0000000000000000e+00  0.0000000000000000e+00 0.0000000000000000e+00 0.0000000000000000e+00  0.0000000000000000e+00 0.0000000000000000e+00 0.0000000000000000e+00  0.0000000000000000e+00 0.0000000000000000e+00 0.0000000000000000e+00  0.0000000000000000e+00 0.0000000000000000e+00 0.0000000000000000e+00  0.0000000000000000e+00 0.0000000000000000e+00 0.0000000000000000e+00  0.0000000000000000e+00 0.0000000000000000e+00 0.0000000000000000e+00  0.0000000000000000e+00 0.0000000000000000e+00 0.0000000000000000e+00  0.0000000000000000e+00 0.0000000000000000e+00 0.0000000000000000e+00  0.0000000000000000e+00 0.0000000000000000e+00 0.0000000000000000e+00  0.0000000000000000e+00 0.0000000000000000e+00 0.0000000000000000e+00  0.0000000000000000e+00 0.0000000000000000e+00 0.0000000000000000e+00  0.0000000000000000e+00 0.0000000000000000e+00 0.0000000000000000e+00  0.0000000000000000e+00 0.0000000000000000e+00 0.0000000000000000e+00  0.0000000000000000e+00 0.0000000000000000e+00 0.0000000000000000e+00  0.0000000000000000e+00 0.0000000000000000e+00 0.0000000000000000e+00  0.0000000000000000e+00 0.0000000000000000e+00 0.0000000000000000e+00  0.0000000000000000e+00 0.0000000000000000e+00 0.0000000000000000e+00  0.0000000000000000e+00 0.0000000000000000e+00 0.0000000000000000e+00  0.0000000000000000e+00 0.0000000000000000e+00 0.0000000000000000e+00  0.0000000000000000e+00 0.0000000000000000e+00 0.0000000000000000e+00  1.7819820274704159e-17 5.6788654986394061e-14 0.0000000000000000e+00  3.9447392481900087e-07 -4.5863745510026346e-07 0.0000000000000000e+00  8.9332089238681185e-07 -1.5938049659723180e-07 0.0000000000000000e+00  1.5475102971728267e-06 2.4342376357927454e-07 0.0000000000000000e+00  2.2981794061040088e-06 7.2454767729452294e-07 0.0000000000000000e+00  3.1253237575162865e-06 1.1537822836527999e-06 0.0000000000000000e+00  4.0406921424600530e-06 1.5156467830355573e-06 0.0000000000000000e+00  4.9784093776109895e-06 1.7793069059291655e-06 0.0000000000000000e+00  5.9668913575799824e-06 1.8785040520972294e-06 0.0000000000000000e+00  7.0406898364062152e-06 1.8174659569166120e-06 0.0000000000000000e+00  8.0882702341459052e-06 1.5484762400282918e-06 0.0000000000000000e+00  9.2442232850444862e-06 1.0536454553055301e-06 0.0000000000000000e+00  1.0337009675857640e-05 3.0430305141806798e-07 0.0000000000000000e+00  1.1528473358207780e-05 -7.0952752354085895e-07 0.0000000000000000e+00  1.2653235324597722e-05 -1.9634480545348896e-06 0.0000000000000000e+00  1.3788281616076559e-05 -3.5388497320604484e-06 0.0000000000000000e+00  1.4997283746966662e-05 -5.3773487570188693e-06 0.0000000000000000e+00  1.6106572771466786e-05 -7.5055108423271823e-06 0.0000000000000000e+00  1.7306088969392509e-05 -9.9365690220394425e-06 0.0000000000000000e+00  1.8387693151777138e-05 -1.2651688046237965e-05 0.0000000000000000e+00  1.9543584818190486e-05 -1.5653130520567005e-05 0.0000000000000000e+00  2.0602676114356989e-05 -1.8936592080738353e-05 0.0000000000000000e+00  2.1699950816117019e-05 -2.2509920943137970e-05 0.0000000000000000e+00  2.2702583682754633e-05 -2.6303322532176109e-05 0.0000000000000000e+00  2.3679323556350259e-05 -3.0387286059831949e-05 0.0000000000000000e+00  2.4682210660684103e-05 -3.4677320622907706e-05 0.0000000000000000e+00  2.5601034166711142e-05 -3.9205259826264828e-05 0.0000000000000000e+00  2.6501055931895392e-05 -4.3960635368332998e-05 0.0000000000000000e+00  2.7341443836464459e-05 -4.8891526966107045e-05 0.0000000000000000e+00  2.8157516811077079e-05 -5.4028361608045745e-05 0.0000000000000000e+00  2.8913960167187707e-05 -5.9308697694490704e-05 0.0000000000000000e+00  2.9641961238800131e-05 -6.4765967231743043e-05 0.0000000000000000e+00  3.0311515301907144e-05 -7.0335508458573134e-05 0.0000000000000000e+00  3.0949162801812739e-05 -7.6053035962068337e-05 0.0000000000000000e+00  3.1531664046299224e-05 -8.1852939222687093e-05 0.0000000000000000e+00  3.2078291999454760e-05 -8.7773896359751480e-05 0.0000000000000000e+00  3.2573087229691076e-05 -9.3750506372627303e-05 0.0000000000000000e+00  3.3031748520227540e-05 -9.9821976170186749e-05 0.0000000000000000e+00  3.3442113178163519e-05 -1.0592676974839598e-04 0.0000000000000000e+00  3.3815590811200107e-05 -1.1210415576594456e-04 0.0000000000000000e+00  3.4142801829330688e-05 -1.1829510197027302e-04 0.0000000000000000e+00  3.4429737458381103e-05 -1.2453493032859035e-04 0.0000000000000000e+00  3.4679713696736880e-05 -1.3078514044649153e-04 0.0000000000000000e+00  3.4889795747877901e-05 -1.3705846881117983e-04 0.0000000000000000e+00  3.5079310362451465e-05 -1.4334067677354155e-04 0.0000000000000000e+00  3.5225561450360469e-05 -1.4962006461817157e-04 0.0000000000000000e+00  3.5371989626855185e-05 -1.5594069213152890e-04 0.0000000000000000e+00  3.1083120622738049e-05 -1.6224971298049582e-04 0.0000000000000000e+00  2.2598579601718599e-05 -1.6193286389496603e-04 0.0000000000000000e+00  1.8396170333306956e-05 -1.5555847235286237e-04 0.0000000000000000e+00  1.8278800094239048e-05 -1.4920041355040721e-04 0.0000000000000000e+00  1.8159573619611730e-05 -1.4282777044355584e-04 0.0000000000000000e+00  1.8013227776794339e-05 -1.3647964813348913e-04 0.0000000000000000e+00  1.7848087575179265e-05 -1.3014280272692692e-04 0.0000000000000000e+00  1.7655162169947297e-05 -1.2382707037835803e-04 0.0000000000000000e+00  1.7452564309706512e-05 -1.1753842998275227e-04 0.0000000000000000e+00  1.7215655129762163e-05 -1.1126921281888332e-04 0.0000000000000000e+00  1.6975152889853056e-05 -1.0505703372647762e-04 0.0000000000000000e+00  1.6701003022971072e-05 -9.8875686267115514e-05 0.0000000000000000e+00  1.6433812463106527e-05 -9.2770567810733566e-05 0.0000000000000000e+00  1.6129835477126769e-05 -8.6719341178453308e-05 0.0000000000000000e+00  1.5844027064315696e-05 -8.0766762952779681e-05 0.0000000000000000e+00  1.5516342271863950e-05 -7.4895329654081275e-05 0.0000000000000000e+00  1.5219042762176664e-05 -6.9148142050720534e-05 0.0000000000000000e+00  1.4872554012245382e-05 -6.3511071345274112e-05 0.0000000000000000e+00  1.4568433870696413e-05 -5.8026312581975382e-05 0.0000000000000000e+00  1.4207755257755694e-05 -5.2682982678918518e-05 0.0000000000000000e+00  1.3902000019019900e-05 -4.7521114281046006e-05 0.0000000000000000e+00  1.3531061683525253e-05 -4.2532275367192507e-05 0.0000000000000000e+00  1.3227809292584930e-05 -3.7755421789089177e-05 0.0000000000000000e+00  1.2850308121566946e-05 -3.3184259531052437e-05 0.0000000000000000e+00  1.2540768266158260e-05 -2.8852713479644100e-05 0.0000000000000000e+00  1.2170578632153329e-05 -2.4739002373045389e-05 0.0000000000000000e+00  1.1792474154484994e-05 -2.0919509399733198e-05 0.0000000000000000e+00  1.1475910743225065e-05 -1.7314637577733506e-05 0.0000000000000000e+00  1.1105561186223962e-05 -1.4008979804717685e-05 0.0000000000000000e+00  1.0763372591492515e-05 -1.0982798978879264e-05 0.0000000000000000e+00  1.0383231629357762e-05 -8.2444498806397630e-06 0.0000000000000000e+00  1.0022747164714539e-05 -5.8047867708383364e-06 0.0000000000000000e+00  9.6246667359503156e-06 -3.6449638388352331e-06 0.0000000000000000e+00  9.2650844018590965e-06 -1.8157722785955098e-06 0.0000000000000000e+00  8.8269929776300034e-06 -2.2733575380925660e-07 0.0000000000000000e+00  8.3699275471919946e-06 1.0296379170556584e-06 0.0000000000000000e+00  7.9588727715123191e-06 2.0608352517963680e-06 0.0000000000000000e+00  7.4826486415081426e-06 2.8030456778576383e-06 0.0000000000000000e+00  7.0042137701546517e-06 3.2908775086314832e-06 0.0000000000000000e+00  6.4753958619374207e-06 3.5627462262788868e-06 0.0000000000000000e+00  5.9413515272227955e-06 3.6007921582573147e-06 0.0000000000000000e+00  5.3362322803892845e-06 3.4916997446492379e-06 0.0000000000000000e+00  4.6914764021923210e-06 3.2118911933983243e-06 0.0000000000000000e+00  4.0310994502396169e-06 2.8330294473611545e-06 0.0000000000000000e+00  3.2995869375900602e-06 2.3892211023200904e-06 0.0000000000000000e+00  2.5202248892067324e-06 1.9057948534950246e-06 0.0000000000000000e+00  1.7021893609619816e-06 1.4551591307260157e-06 0.0000000000000000e+00  8.4944257860042804e-07 1.0289745454235231e-06 0.0000000000000000e+00  8.6362260859252140e-07 3.8951775382037842e-07 0.0000000000000000e+00  2.6812070503793237e-05 -1.5255953276576491e-04 0.0000000000000000e+00  2.6680319359322907e-05 -1.4046599024908655e-04 0.0000000000000000e+00  2.5964513373181718e-05 -1.2080532822556139e-04 0.0000000000000000e+00  2.4141507864584296e-06 1.3054594260208646e-06 0.0000000000000000e+00  2.5315288671998212e-05 -1.0855329879253580e-04 0.0000000000000000e+00  3.9127891424534691e-06 2.2224027438335262e-06 0.0000000000000000e+00  2.4639346622016025e-05 -9.6253063081286967e-05 0.0000000000000000e+00  6.3774718566664514e-06 2.8705052990341957e-06 0.0000000000000000e+00  7.9444312742917904e-06 2.3513972670594367e-06 0.0000000000000000e+00  2.3851572623265590e-05 -8.4208022097393039e-05 0.0000000000000000e+00  1.1897600654108853e-05 -3.4339413221169943e-06 0.0000000000000000e+00  2.1958230407479848e-05 -6.1289304928608489e-05 0.0000000000000000e+00  9.4580507589035093e-06 9.7590449157670401e-07 0.0000000000000000e+00  1.3433776958449663e-05 -7.6504700296460145e-06 0.0000000000000000e+00  2.0863313952292820e-05 -5.0644216513135347e-05 0.0000000000000000e+00  2.2956273977997714e-05 -7.2516600285694695e-05 0.0000000000000000e+00  1.4927758096904125e-05 -1.3104861954108893e-05 0.0000000000000000e+00  1.9676938692401345e-05 -4.0704890709493916e-05 0.0000000000000000e+00  1.6251335372828132e-05 -1.9404498902427714e-05 0.0000000000000000e+00  1.8511864758356725e-05 -3.1780285959604775e-05 0.0000000000000000e+00  1.7344616518883991e-05 -2.5077924208138101e-05 0.0000000000000000e+00  1.0656234476462351e-05 -8.4416560724797786e-07 0.0000000000000000e+00  2.6208696154181820e-05 -1.3100444371102619e-04 0.0000000000000000e+00  5.0884111961001199e-06 2.6806982117090559e-06 0.0000000000000000e+00  2.3795902815361883e-05 -1.4639223133827868e-04 0.0000000000000000e+00  1.7829791215788539e-06 1.1272703263674365e-06 0.0000000000000000e+00  2.2609487981195009e-05 -1.0225020689803346e-04 0.0000000000000000e+00  2.3193087469671368e-05 -1.1465996343843301e-04 0.0000000000000000e+00  3.0180672767447976e-06 1.4975280825482250e-06 0.0000000000000000e+00  7.2722801126357479e-06 2.4451305848345304e-06 0.0000000000000000e+00  2.0301649269897849e-05 -6.6672323163708211e-05 0.0000000000000000e+00  2.1928986755492397e-05 -9.0052244636433748e-05 0.0000000000000000e+00  1.3509010634050495e-05 -5.6354634913692279e-06 0.0000000000000000e+00  1.9368344796265607e-05 -5.5710060751871016e-05 0.0000000000000000e+00  9.0407503435193276e-06 1.4707881084975518e-06 0.0000000000000000e+00  1.5243022782697388e-05 -1.0502362046698220e-05 0.0000000000000000e+00  1.8364183501845621e-05 -4.5392045940518901e-05 0.0000000000000000e+00  2.1157386963689388e-05 -7.8157737915366063e-05 0.0000000000000000e+00  1.7198350457475974e-05 -1.6547514096644716e-05 0.0000000000000000e+00  1.7292650938147778e-05 -3.5842611534539431e-05 0.0000000000000000e+00  2.9172864297360913e-07 -4.9105432449300025e-08 0.0000000000000000e+00  3.4180635202134710e-07 3.0240184509722522e-07 0.0000000000000000e+00  2.8812918300547983e-05 -1.5759355733852741e-04 0.0000000000000000e+00  1.4646300810400086e-06 4.7650673520863781e-07 0.0000000000000000e+00  1.5919900569616196e-05 -2.8054772992315