<?xml version="1.0"?>
<VTKFile type="UnstructuredGrid"  version="0.1"  >
<UnstructuredGrid>
<Piece  NumberOfPoints="1419" NumberOfCells="2698">
<Points>
<DataArray  type="Float64"  NumberOfComponents="3"  format="ascii">0 0 0  0 0.41 0  2.5 0 0  2.5 0.41 0  0.6 0.19 0  0.6 0.21 0  0.25 0.2 0  0.15 0.2 0  0.2489897948556636 0.21 0  0.2489897948556636 0.19 0  0.6 0.2 0  0 0.3807142857143437 0  0 0.3514285714286952 0  0 0.3221428571430699 0  0 0.29285714285744 0  0 0.2635714285718054 0  0 0.2342857142861561 0  0 0.2050000000005308 0  0 0.175714285714732 0  0 0.1464285714289574 0  0 0.1171428571431897 0  0 0.08785714285737878 0  0 0.05857142857161107 0  0 0.02928571428580012 0  0.03015443760436003 0 0  0.06140001986583606 0 0  0.09377624077125973 0 0  0.1273239957535082 0 0  0.1620856860351972 0 0  0.1981052433264291 0 0  0.235428184091502 0 0  0.2741016576309132 0 0  0.3141745521465447 0 0  0.3556974926295285 0 0  0.3987229542472677 0 0  0.4433053055141081 0 0  0.4895008759286886 0 0  0.5373680609405097 0 0  0.5869673343216626 0 0  0.6383613676634521 0 0  0.6916151138468254 0 0  0.7467958595648856 0 0  0.8039733463919316 0 0  0.8632198139502143 0 0  0.9246101326867038 0 0  0.9882218810934433 0 0  1.054135445558498 0 0  1.122434100542598 0 0  1.193204177141305 0 0  1.266535089879536 0 0  1.342519516046404 0 0  1.421253448503939 0 0  1.502836389106271 0 0  1.587371439758838 0 0  1.674965418777374 0 0  1.765729001825544 0 0  1.859776908880082 0 0  1.957227977487062 0 0  2.058205329869943 0 0  2.162836591189951 0 0  2.271253957290865 0 0  2.383594446803425 0 0  2.5 0.1024999999997612 0  2.5 0.2049999999994743 0  2.5 0.3074999999997183 0  2.383594446803656 0.41 0  2.271253957291315 0.41 0  2.162836591190598 0.41 0  2.058205329870775 0.41 0  1.957227977488067 0.41 0  1.859776908881246 0.41 0  1.765729001826854 0.41 0  1.674965418778818 0.41 0  1.58737143976041 0.41 0  1.502836389107956 0.41 0  1.421253448505726 0.41 0  1.342519516048286 0.41 0  1.266535089881505 0.41 0  1.193204177143353 0.41 0  1.122434100544716 0.41 0  1.05413544556068 0.41 0  0.9882218810956305 0.41 0  0.9246101326886647 0.41 0  0.8632198139519631 0.41 0  0.8039733463934788 0.41 0  0.7467958595662458 0.41 0  0.6916151138480078 0.41 0  0.6383613676644679 0.41 0  0.5869673343225223 0.41 0  0.5373680609412221 0.41 0  0.4895008759292634 0.41 0  0.4433053055145528 0.41 0  0.3987229542475914 0.41 0  0.3556974926297398 0.41 0  0.3141745521466497 0.41 0  0.2741016576310038 0.41 0  0.2354281840915826 0.41 0  0.1981052433265003 0.41 0  0.1620856860352591 0.41 0  0.1273239957535623 0.41 0  0.09377624077128965 0.41 0  0.06140001986584975 0.41 0  0.03015443760436654 0.41 0  0.2497468076502589 0.2050254481002335 0  0.2497468076502614 0.1949745518997913 0  0.2469965252529372 0.1829317073451959 0  0.2439893735792749 0.1762316384219906 0  0.2400332147834255 0.1700443375285386 0  0.2352133972704371 0.1645032867342007 0  0.2296339016332438 0.1597280261969788 0  0.2234150974217223 0.1558215752574715 0  0.2166911463437691 0.1528682099456123 0  0.2096071079204251 0.1509316448471593 0  0.2023158100364996 0.1500536585536553 0  0.194974551899914 0.1502531923497262 0  0.1877417105387872 0.1515259415822739 0  0.1807733240461124 0.153844448527136 0  0.1742197252835808 0.15715869474974 0  0.1682222986673531 0.1613971801805478 0  0.162910430003803 0.1664684656256651 0  0.1583987151779087 0.1722631454351573 0  0.1547844879126891 0.178656207771761 0  0.1521457199348551 0.1855097315605723 0  0.1505393388476355 0.1926758619366523 0  0.1505393388476328 0.2073241380633295 0  0.1521457199348437 0.2144902684393899 0  0.1547844879126531 0.221343792228163 0  0.1583987151778488 0.2277368545647528 0  0.1629104300036858 0.2335315343742052 0  0.1682222986671726 0.2386028198193036 0  0.1742197252833576 0.2428413052501257 0  0.1807733240458683 0.2461555514727623 0  0.1877417105384929 0.2484740584176516 0  0.1949745518995776 0.2497468076502398 0  0.202315810036185 0.2499463414463592 0  0.2096071079201568 0.2490683551528932 0  0.2166911463435495 0.2471317900544655 0  0.2234150974215506 0.2441784247426195 0  0.2296339016331197 0.2402719738031125 0  0.2352133972703547 0.2354967132658811 0  0.2400332147833751 0.2299556624715287 0  0.2439893735792577 0.2237683615780412 0  0.246996525252926 0.2170682926548348 0  0.25645809709277 0.21 0  0.2639263993298655 0.21 0  0.271394701566961 0.21 0  0.2788630038040554 0.21 0  0.2863313060411479 0.21 0  0.2937996082782405 0.21 0  0.301267910515333 0.21 0  0.3087362127524279 0.21 0  0.3162045149895234 0.21 0  0.3236728172265972 0.21 0  0.3311411194636928 0.21 0  0.3386094217007701 0.21 0  0.3460777239378666 0.21 0  0.3535460261749672 0.21 0  0.3610143284120516 0.21 0  0.3684826306491596 0.21 0  0.3759509328862226 0.21 0  0.383419235123329 0.21 0  0.3908875373604028 0.21 0  0.3983558395975142 0.21 0  0.4058241418345938 0.21 0  0.4132924440716992 0.21 0  0.4207607463087888 0.21 0  0.4282290485459029 0.21 0  0.4356973507830418 0.21 0  0.4431656530201649 0.21 0  0.4506339552573136 0.21 0  0.4581022574944306 0.21 0  0.4655705597315852 0.21 0  0.4730388619686996 0.21 0  0.480507164205851 0.21 0  0.4879754664429498 0.21 0  0.4954437686800938 0.21 0  0.502912070917267 0.21 0  0.5103803731544119 0.21 0  0.5178486753915261 0.21 0  0.5253169776286404 0.21 0  0.5327852798657868 0.21 0  0.5402535821029386 0.21 0  0.54772188434007 0.21 0  0.5551901865771842 0.21 0  0.5626584888143201 0.21 0  0.5701267910514778 0.21 0  0.5775950932886138 0.21 0  0.5850633955257281 0.21 0  0.5925316977628483 0.21 0  0.6 0.2050000000000054 0  0.6 0.1950000000000217 0  0.5925316977628897 0.19 0  0.5850633955257988 0.19 0  0.5775950932887378 0.19 0  0.5701267910515998 0.19 0  0.5626584888145268 0.19 0  0.5551901865773963 0.19 0  0.547721884340339 0.19 0  0.5402535821032429 0.19 0  0.5327852798661811 0.19 0  0.5253169776290537 0.19 0  0.5178486753919799 0.19 0  0.5103803731549078 0.19 0  0.502912070917822 0.19 0  0.4954437686807294 0.19 0  0.4879754664436223 0.19 0  0.4805071642065402 0.19 0  0.4730388619694271 0.19 0  0.4655705597323621 0.19 0  0.4581022574952563 0.19 0  0.4506339552581777 0.19 0  0.4431656530210671 0.19 0  0.4356973507839815 0.19 0  0.4282290485468779 0.19 0  0.4207607463097617 0.19 0  0.4132924440726327 0.19 0  0.4058241418354857 0.19 0  0.3983558395983636 0.19 0  0.3908875373612097 0.19 0  0.3834192351240934 0.19 0  0.3759509328869369 0.19 0  0.3684826306498175 0.19 0  0.361014328412667 0.19 0  0.3535460261755617 0.19 0  0.3460777239384295 0.19 0  0.3386094217012945 0.19 0  0.3311411194641595 0.19 0  0.3236728172270245 0.19 0  0.3162045149898895 0.19 0  0.3087362127527544 0.19 0  0.3012679105156187 0.19 0  0.2937996082784807 0.19 0  0.2863313060413428 0.19 0  0.2788630038042048 0.19 0  0.2713947015670686 0.19 0  0.2639263993299336 0.19 0  0.2564580970927985 0.19 0  0.2607803159922026 0.2000727136295815 0  0.5887803774232762 0.2001272386983733 0  0.5745072403740523 0.2002044435018727 0  0.5511891430099709 0.2001122610077113 0  0.2751288526855082 0.20000000000002 0  0.5365194309847112 0.1999999999999436 0  0.2894621222999649 0.1998691686390484 0  0.5215828265105155 0.1999999999999228 0  0.3127789816668748 0.1998657885438805 0  0.3274069683451451 0.2000000000000796 0  0.5066462220363641 0.199999999999908 0  0.3650630746574081 0.199866017807523 0  0.476773013087985 0.1999999999998713 0  0.3417402379596385 0.1998691686391011 0  0.3796850840047755 0.200000000000134 0  0.4618364086138087 0.1999999999998546 0  0.4917096175621762 0.1999999999998808 0  0.3946216884789568 0.2000000000001512 0  0.446899804139621 0.1999999999998389 0  0.4089549580935208 0.1998691686391595 0  0.4322718174608562 0.200127451265745 0  0.4201487168029707 0.1999966199048527 0  0.3528922713220932 0.2000185703532356 0  0.5633122436674589 0.1999814296467508 0  0.3006558810093873 0.1999966199048318 0  0.5815926498168407 0.1966545283159175 0  0.2677053789419034 0.1964246479135325 0  0.5290511287476175 0.1970915826863981 0  0.5439877332217911 0.197091582686394 0  0.2825131256993216 0.2035478995978015 0  0.3199386661080599 0.202908417313604 0  0.4842413153250809 0.1970915826863873 0  0.5141145242734466 0.1970915826863843 0  0.3722167817676917 0.2029084173136195 0  0.4693047108508938 0.1970915826863783 0  0.3348752705822316 0.202908417313609 0  0.3871533862418661 0.2029084173136212 0  0.4543681063767183 0.1970915826863795 0  0.4991779197992749 0.1970915826863902 0  0.4020059614928624 0.203547899597858 0  0.4394315019025246 0.1970915826863714 0  0.2550657455369551 0.2034088125358657 0  0.2548908499171161 0.1966940311614271 0  0.5946539510196798 0.2024302972968126 0  0.267698176732111 0.2039977513680092 0  0.4261685417851465 0.196409292431739 0  0.3590076176283495 0.196411355804271 0  0.5571672426447437 0.2036011176410121 0  0.3066757059912147 0.1964092924317024 0  0.594380730180568 0.1966558399668133 0  0.4842413153245942 0.2040749161535287 0  0.4693047108503577 0.2040749161535231 0  0.3871533862424271 0.1959250838464788 0  0.372246743208829 0.1959123236376545 0  0.5141145242731028 0.2040749161535395 0  0.4543681063761134 0.2040749161535186 0  0.4019979587101454 0.1959834479682427 0  0.4394608940728603 0.2040870543693135 0  0.5439623148931173 0.2040856076781014 0  0.5290511287473298 0.2040749161535501 0  0.4991779197988497 0.2040749161535382 0  0.3347912413592433 0.1959225448935183 0  0.3199680582793816 0.1959123018030061 0  0.2825051229162361 0.1959834479681729 0  0.3590471196690275 0.2036304442587945 0  0.5571594006495384 0.1963685282145804 0  0.3067669986803285 0.203627750582736 0  0.4262598344738712 0.2036568242185335 0  0.5814408164431408 0.2041285596160068 0  0.5688286748170428 0.1961819304477386 0  0.4145905603063645 0.2038180695522843 0  0.3473758401724931 0.2038180695522752 0  0.2950977245128307 0.2038180695522663 0  0.5688286748170693 0.203818069552238 0  0.2950977245127906 0.1961819304477774 0  0.3473758401723931 0.1961819304478349 0  0.4145905603061963 0.1961819304479011 0  0.2601812407614425 0.2056861609747042
[...]
<PointData  Vectors="f_46-2"> 
<DataArray  type="Float64"  Name="f_46-2"  NumberOfComponents="3" format="ascii">0.0000000000000000e+00 0.0000000000000000e+00 0.0000000000000000e+00  0.0000000000000000e+00 0.0000000000000000e+00 0.0000000000000000e+00  0.0000000000000000e+00 0.0000000000000000e+00 0.0000000000000000e+00  0.0000000000000000e+00 0.0000000000000000e+00 0.0000000000000000e+00  1.9165314487524757e-05 -1.4204775018500327e-04 0.0000000000000000e+00  3.4746453710233719e-05 -1.4270734468510151e-04 0.0000000000000000e+00  0.0000000000000000e+00 0.0000000000000000e+00 0.0000000000000000e+00  0.0000000000000000e+00 0.0000000000000000e+00 0.0000000000000000e+00  0.0000000000000000e+00 0.0000000000000000e+00 0.0000000000000000e+00  0.0000000000000000e+00 0.0000000000000000e+00 0.0000000000000000e+00  2.6664654877781293e-05 -1.4237693198123093e-04 0.0000000000000000e+00  0.0000000000000000e+00 0.0000000000000000e+00 0.0000000000000000e+00  0.0000000000000000e+00 0.0000000000000000e+00 0.0000000000000000e+00  0.0000000000000000e+00 0.0000000000000000e+00 0.0000000000000000e+00  0.0000000000000000e+00 0.0000000000000000e+00 0.0000000000000000e+00  0.0000000000000000e+00 0.0000000000000000e+00 0.0000000000000000e+00  0.0000000000000000e+00 0.0000000000000000e+00 0.0000000000000000e+00  0.0000000000000000e+00 0.0000000000000000e+00 0.0000000000000000e+00  0.0000000000000000e+00 0.0000000000000000e+00 0.0000000000000000e+00  0.0000000000000000e+00 0.0000000000000000e+00 0.0000000000000000e+00  0.0000000000000000e+00 0.0000000000000000e+00 0.0000000000000000e+00  0.0000000000000000e+00 0.0000000000000000e+00 0.0000000000000000e+00  0.0000000000000000e+00 0.0000000000000000e+00 0.0000000000000000e+00  0.0000000000000000e+00 0.0000000000000000e+00 0.0000000000000000e+00  0.0000000000000000e+00 0.0000000000000000e+00 0.0000000000000000e+00  0.0000000000000000e+00 0.0000000000000000e+00 0.0000000000000000e+00  0.0000000000000000e+00 0.0000000000000000e+00 0.0000000000000000e+00  0.0000000000000000e+00 0.0000000000000000e+00 0.0000000000000000e+00  0.0000000000000000e+00 0.0000000000000000e+00 0.0000000000000000e+00  0.0000000000000000e+00 0.0000000000000000e+00 0.0000000000000000e+00  0.0000000000000000e+00 0.0000000000000000e+00 0.0000000000000000e+00  0.0000000000000000e+00 0.0000000000000000e+00 0.0000000000000000e+00  0.0000000000000000e+00 0.0000000000000000e+00 0.0000000000000000e+00  0.0000000000000000e+00 0.0000000000000000e+00 0.0000000000000000e+00  0.0000000000000000e+00 0.0000000000000000e+00 0.0000000000000000e+00  -9.5265378358800969e-14 2.3412351537266080e-17 0.0000000000000000e+00  0.0000000000000000e+00 0.0000000000000000e+00 0.0000000000000000e+00  0.0000000000000000e+00 0.0000000000000000e+00 0.0000000000000000e+00  0.0000000000000000e+00 0.0000000000000000e+00 0.0000000000000000e+00  0.0000000000000000e+00 0.0000000000000000e+00 0.0000000000000000e+00  0.0000000000000000e+00 0.0000000000000000e+00 0.0000000000000000e+00  0.0000000000000000e+00 0.0000000000000000e+00 0.0000000000000000e+00  0.0000000000000000e+00 0.0000000000000000e+00 0.0000000000000000e+00  0.0000000000000000e+00 0.0000000000000000e+00 0.0000000000000000e+00  0.0000000000000000e+00 0.0000000000000000e+00 0.0000000000000000e+00  0.0000000000000000e+00 0.0000000000000000e+00 0.0000000000000000e+00  0.0000000000000000e+00 0.0000000000000000e+00 0.0000000000000000e+00  0.0000000000000000e+00 0.0000000000000000e+00 0.0000000000000000e+00  0.0000000000000000e+00 0.0000000000000000e+00 0.0000000000000000e+00  0.0000000000000000e+00 0.0000000000000000e+00 0.0000000000000000e+00  0.0000000000000000e+00 0.0000000000000000e+00 0.0000000000000000e+00  0.0000000000000000e+00 0.0000000000000000e+00 0.0000000000000000e+00  0.0000000000000000e+00 0.0000000000000000e+00 0.0000000000000000e+00  0.0000000000000000e+00 0.0000000000000000e+00 0.0000000000000000e+00  0.0000000000000000e+00 0.0000000000000000e+00 0.0000000000000000e+00  0.0000000000000000e+00 0.0000000000000000e+00 0.0000000000000000e+00  0.0000000000000000e+00 0.0000000000000000e+00 0.0000000000000000e+00  0.0000000000000000e+00 0.0000000000000000e+00 0.0000000000000000e+00  0.0000000000000000e+00 0.0000000000000000e+00 0.0000000000000000e+00  0.0000000000000000e+00 0.0000000000000000e+00 0.0000000000000000e+00  0.0000000000000000e+00 0.0000000000000000e+00 0.0000000000000000e+00  0.0000000000000000e+00 0.0000000000000000e+00 0.0000000000000000e+00  0.0000000000000000e+00 0.0000000000000000e+00 0.0000000000000000e+00  0.0000000000000000e+00 0.0000000000000000e+00 0.0000000000000000e+00  0.0000000000000000e+00 0.0000000000000000e+00 0.0000000000000000e+00  0.0000000000000000e+00 0.0000000000000000e+00 0.0000000000000000e+00  0.0000000000000000e+00 0.0000000000000000e+00 0.0000000000000000e+00  0.0000000000000000e+00 0.0000000000000000e+00 0.0000000000000000e+00  0.0000000000000000e+00 0.0000000000000000e+00 0.0000000000000000e+00  0.0000000000000000e+00 0.0000000000000000e+00 0.0000000000000000e+00  0.0000000000000000e+00 0.0000000000000000e+00 0.0000000000000000e+00  0.0000000000000000e+00 0.0000000000000000e+00 0.0000000000000000e+00  0.0000000000000000e+00 0.0000000000000000e+00 0.0000000000000000e+00  0.0000000000000000e+00 0.0000000000000000e+00 0.0000000000000000e+00  0.0000000000000000e+00 0.0000000000000000e+00 0.0000000000000000e+00  0.0000000000000000e+00 0.0000000000000000e+00 0.0000000000000000e+00  0.0000000000000000e+00 0.0000000000000000e+00 0.0000000000000000e+00  0.0000000000000000e+00 0.0000000000000000e+00 0.0000000000000000e+00  0.0000000000000000e+00 0.0000000000000000e+00 0.0000000000000000e+00  0.0000000000000000e+00 0.0000000000000000e+00 0.0000000000000000e+00  0.0000000000000000e+00 0.0000000000000000e+00 0.0000000000000000e+00  0.0000000000000000e+00 0.0000000000000000e+00 0.0000000000000000e+00  0.0000000000000000e+00 0.0000000000000000e+00 0.0000000000000000e+00  0.0000000000000000e+00 0.0000000000000000e+00 0.0000000000000000e+00  0.0000000000000000e+00 0.0000000000000000e+00 0.0000000000000000e+00  0.0000000000000000e+00 0.0000000000000000e+00 0.0000000000000000e+00  0.0000000000000000e+00 0.0000000000000000e+00 0.0000000000000000e+00  0.0000000000000000e+00 0.0000000000000000e+00 0.0000000000000000e+00  -3.1805422428445430e-13 0.0000000000000000e+00 0.0000000000000000e+00  0.0000000000000000e+00 0.0000000000000000e+00 0.0000000000000000e+00  0.0000000000000000e+00 0.0000000000000000e+00 0.0000000000000000e+00  0.0000000000000000e+00 0.0000000000000000e+00 0.0000000000000000e+00  0.0000000000000000e+00 0.0000000000000000e+00 0.0000000000000000e+00  0.0000000000000000e+00 0.0000000000000000e+00 0.0000000000000000e+00  7.7613583975568153e-14 9.0659498029345023e-18 0.0000000000000000e+00  0.0000000000000000e+00 0.0000000000000000e+00 0.0000000000000000e+00  0.0000000000000000e+00 0.0000000000000000e+00 0.0000000000000000e+00  0.0000000000000000e+00 0.0000000000000000e+00 0.0000000000000000e+00  0.0000000000000000e+00 0.0000000000000000e+00 0.0000000000000000e+00  0.0000000000000000e+00 0.0000000000000000e+00 0.0000000000000000e+00  0.0000000000000000e+00 0.0000000000000000e+00 0.0000000000000000e+00  0.0000000000000000e+00 0.0000000000000000e+00 0.0000000000000000e+00  0.0000000000000000e+00 0.0000000000000000e+00 0.0000000000000000e+00  0.0000000000000000e+00 0.0000000000000000e+00 0.0000000000000000e+00  0.0000000000000000e+00 0.0000000000000000e+00 0.0000000000000000e+00  -1.2772280543680095e-12 5.0390423805336505e-14 0.0000000000000000e+00  0.0000000000000000e+00 0.0000000000000000e+00 0.0000000000000000e+00  0.0000000000000000e+00 0.0000000000000000e+00 0.0000000000000000e+00  0.0000000000000000e+00 0.0000000000000000e+00 0.0000000000000000e+00  0.0000000000000000e+00 0.0000000000000000e+00 0.0000000000000000e+00  -2.3332208918214180e-13 -3.0441875323929752e-18 0.0000000000000000e+00  0.0000000000000000e+00 0.0000000000000000e+00 0.0000000000000000e+00  0.0000000000000000e+00 0.0000000000000000e+00 0.0000000000000000e+00  0.0000000000000000e+00 0.0000000000000000e+00 0.0000000000000000e+00  0.0000000000000000e+00 0.0000000000000000e+00 0.0000000000000000e+00  0.0000000000000000e+00 0.0000000000000000e+00 0.0000000000000000e+00  0.0000000000000000e+00 0.0000000000000000e+00 0.0000000000000000e+00  0.0000000000000000e+00 0.0000000000000000e+00 0.0000000000000000e+00  0.0000000000000000e+00 0.0000000000000000e+00 0.0000000000000000e+00  0.0000000000000000e+00 0.0000000000000000e+00 0.0000000000000000e+00  0.0000000000000000e+00 0.0000000000000000e+00 0.0000000000000000e+00  0.0000000000000000e+00 0.0000000000000000e+00 0.0000000000000000e+00  0.0000000000000000e+00 0.0000000000000000e+00 0.0000000000000000e+00  0.0000000000000000e+00 0.0000000000000000e+00 0.0000000000000000e+00  0.0000000000000000e+00 0.0000000000000000e+00 0.0000000000000000e+00  0.0000000000000000e+00 0.0000000000000000e+00 0.0000000000000000e+00  0.0000000000000000e+00 0.0000000000000000e+00 0.0000000000000000e+00  0.0000000000000000e+00 0.0000000000000000e+00 0.0000000000000000e+00  0.0000000000000000e+00 0.0000000000000000e+00 0.0000000000000000e+00  0.0000000000000000e+00 0.0000000000000000e+00 0.0000000000000000e+00  0.0000000000000000e+00 0.0000000000000000e+00 0.0000000000000000e+00  0.0000000000000000e+00 0.0000000000000000e+00 0.0000000000000000e+00  0.0000000000000000e+00 0.0000000000000000e+00 0.0000000000000000e+00  0.0000000000000000e+00 0.0000000000000000e+00 0.0000000000000000e+00  0.0000000000000000e+00 0.0000000000000000e+00 0.0000000000000000e+00  0.0000000000000000e+00 0.0000000000000000e+00 0.0000000000000000e+00  0.0000000000000000e+00 0.0000000000000000e+00 0.0000000000000000e+00  0.0000000000000000e+00 0.0000000000000000e+00 0.0000000000000000e+00  0.0000000000000000e+00 0.0000000000000000e+00 0.0000000000000000e+00  0.0000000000000000e+00 0.0000000000000000e+00 0.0000000000000000e+00  0.0000000000000000e+00 0.0000000000000000e+00 0.0000000000000000e+00  0.0000000000000000e+00 0.0000000000000000e+00 0.0000000000000000e+00  1.0788687949851604e-14 -3.9965917364015876e-13 0.0000000000000000e+00  3.4404868549144238e-07 -4.1601274183824362e-07 0.0000000000000000e+00  7.8655731801975364e-07 -5.9085666287056974e-08 0.0000000000000000e+00  1.3913527684645359e-06 4.3683373231727044e-07 0.0000000000000000e+00  2.0893825755278081e-06 1.0484038901472784e-06 0.0000000000000000e+00  2.8727801651754351e-06 1.6386764212103346e-06 0.0000000000000000e+00  3.7394051399424032e-06 2.1948688242637965e-06 0.0000000000000000e+00  4.6379945769038376e-06 2.6770980883447246e-06 0.0000000000000000e+00  5.5889280021388741e-06 3.0264300332496472e-06 0.0000000000000000e+00  6.6204060719264726e-06 3.2390849549282946e-06 0.0000000000000000e+00  7.6356756111447123e-06 3.2679768041257073e-06 0.0000000000000000e+00  8.7531760588472622e-06 3.0945092171494984e-06 0.0000000000000000e+00  9.8169650070040869e-06 2.6877086392098056e-06 0.0000000000000000e+00  1.0975089821469458e-05 2.0366400108694147e-06 0.0000000000000000e+00  1.2073331756872492e-05 1.1615070942333895e-06 0.0000000000000000e+00  1.3183110738938077e-05 -1.5569217562059513e-08 0.0000000000000000e+00  1.4364359960983423e-05 -1.4413644320804726e-06 0.0000000000000000e+00  1.5452458121618278e-05 -3.1423955424779564e-06 0.0000000000000000e+00  1.6627780053711012e-05 -5.1324587488809272e-06 0.0000000000000000e+00  1.7691241498307697e-05 -7.3948246865795314e-06 0.0000000000000000e+00  1.8826929552050586e-05 -9.9324774006563408e-06 0.0000000000000000e+00  1.9870114828167179e-05 -1.2742255302752832e-05 0.0000000000000000e+00  2.0950960257379913e-05 -1.5832510665831047e-05 0.0000000000000000e+00  2.1940593318844874e-05 -1.9136377753592466e-05 0.0000000000000000e+00  2.2905573472995208e-05 -2.2722815221189349e-05 0.0000000000000000e+00  2.3896516176004293e-05 -2.6510170307368945e-05 0.0000000000000000e+00  2.4805963210216981e-05 -3.0530004316723886e-05 0.0000000000000000e+00  2.5697440928618681e-05 -3.4772520840494220e-05 0.0000000000000000e+00  2.6530865429673168e-05 -3.9187450468197530e-05 0.0000000000000000e+00  2.7340817606825673e-05 -4.3804780891167338e-05 0.0000000000000000e+00  2.8092407724488054e-05 -4.8563651076049955e-05 0.0000000000000000e+00  2.8816323883950468e-05 -5.3497065506452089e-05 0.0000000000000000e+00  2.9482780352123614e-05 -5.8541672940055649e-05 0.0000000000000000e+00  3.0117974135798834e-05 -6.3732774634789641e-05 0.0000000000000000e+00  3.0698777767410226e-05 -6.9005787274353328e-05 0.0000000000000000e+00  3.1244213779982765e-05 -7.4399005680011803e-05 0.0000000000000000e+00  3.1738298142882080e-05 -7.9847765042384257e-05 0.0000000000000000e+00  3.2196618305995631e-05 -8.5390983353334315e-05 0.0000000000000000e+00  3.2606939120078787e-05 -9.0967602055875137e-05 0.0000000000000000e+00  3.2980638306579629e-05 -9.6616663818368490e-05 0.0000000000000000e+00  3.3308208265043036e-05 -1.0227939885239306e-04 0.0000000000000000e+00  3.3595649537457999e-05 -1.0799101566420214e-04 0.0000000000000000e+00  3.3846173866866136e-05 -1.1371307245954035e-04 0.0000000000000000e+00  3.4056845766326420e-05 -1.1945824764165917e-04 0.0000000000000000e+00  3.4246962666063574e-05 -1.2521229325561316e-04 0.0000000000000000e+00  3.4393809759791929e-05 -1.3096349140295994e-04 0.0000000000000000e+00  3.4540835751494491e-05 -1.3675587057532487e-04 0.0000000000000000e+00  3.0606310775755070e-05 -1.4253697500582151e-04 0.0000000000000000e+00  2.2829160965329530e-05 -1.4222091602680099e-04 0.0000000000000000e+00  1.8979820388670482e-05 -1.3637522482563190e-04 0.0000000000000000e+00  1.8861764820409358e-05 -1.3054540852083812e-04 0.0000000000000000e+00  1.8741888563104503e-05 -1.2470099433032809e-04 0.0000000000000000e+00  1.8594939808144405e-05 -1.1888109242223499e-04 0.0000000000000000e+00  1.8429250200269448e-05 -1.1307249400724825e-04 0.0000000000000000e+00  1.8235852034022299e-05 -1.0728506845614037e-04 0.0000000000000000e+00  1.8032837364781229e-05 -1.0152480405420203e-04 0.0000000000000000e+00  1.7795617794381009e-05 -9.5784083988841669e-05 0.0000000000000000e+00  1.7554839466300806e-05 -9.0100410619390128e-05 0.0000000000000000e+00  1.7280508040766835e-05 -8.4447668478864561e-05 0.0000000000000000e+00  1.7013069937980769e-05 -7.8871042448135675e-05 0.0000000000000000e+00  1.6708985049940478e-05 -7.3348241326363274e-05 0.0000000000000000e+00  1.6422857174433205e-05 -6.7923696593031040e-05 0.0000000000000000e+00  1.6095029642510249e-05 -6.2579851678661513e-05 0.0000000000000000e+00  1.5797093457256566e-05 -5.7359417043015049e-05 0.0000000000000000e+00  1.5450231376469473e-05 -5.2248054680842772e-05 0.0000000000000000e+00  1.5144869697213647e-05 -4.7287490214848217e-05 0.0000000000000000e+00  1.4783364340998979e-05 -4.2466456485695126e-05 0.0000000000000000e+00  1.4475442979907114e-05 -3.7824420206964049e-05 0.0000000000000000e+00  1.4102946506312143e-05 -3.3352364676549634e-05 0.0000000000000000e+00  1.3796145814480752e-05 -2.9088621548337270e-05 0.0000000000000000e+00  1.3415980622314217e-05 -2.5026076898379012e-05 0.0000000000000000e+00  1.3101235198610541e-05 -2.1197880039008016e-05 0.0000000000000000e+00  1.2726560389758020e-05 -1.7582004009760570e-05 0.0000000000000000e+00  1.2343191275860915e-05 -1.4252269506691878e-05 0.0000000000000000e+00  1.2018537373408862e-05 -1.1130917968258685e-05 0.0000000000000000e+00  1.1640359034623492e-05 -8.2988053216481032e-06 0.0000000000000000e+00  1.1287909127095285e-05 -5.7369516036227481e-06 0.0000000000000000e+00  1.0897361077696908e-05 -3.4511999918042427e-06 0.0000000000000000e+00  1.0523832375962131e-05 -1.4525629238523177e-06 0.0000000000000000e+00  1.0112529909048562e-05 2.7963694923534417e-07 0.0000000000000000e+00  9.7351051374077783e-06 1.6972015281578783e-06 0.0000000000000000e+00  9.2814683755053146e-06 2.8872840107542050e-06 0.0000000000000000e+00  8.8074505731799887e-06 3.7659323744449025e-06 0.0000000000000000e+00  8.3736265426269972e-06 4.4333363397889622e-06 0.0000000000000000e+00  7.8755648123431054e-06 4.8340540942492442e-06 0.0000000000000000e+00  7.3712010758193989e-06 5.0005299840617277e-06 0.0000000000000000e+00  6.8168234569580485e-06 4.9738147444182274e-06 0.0000000000000000e+00  6.2502228148527833e-06 4.7398377563252921e-06 0.0000000000000000e+00  5.6167301933478515e-06 4.3803696773546752e-06 0.0000000000000000e+00  4.9419861702633644e-06 3.8821966214338835e-06 0.0000000000000000e+00  4.2426685960866896e-06 3.3081975976608149e-06 0.0000000000000000e+00  3.4751583495407863e-06 2.7029332796234244e-06 0.0000000000000000e+00  2.6517275203450315e-06 2.0908314194464068e-06 0.0000000000000000e+00  1.7938925682294767e-06 1.5466929991170674e-06 0.0000000000000000e+00  8.9278073331869958e-07 1.0629369728884483e-06 0.0000000000000000e+00  8.5806195934701580e-07 4.3059891412225638e-07 0.0000000000000000e+00  2.6679011031880806e-05 -1.3364084766306401e-04 0.0000000000000000e+00  2.6540620910973692e-05 -1.2255678364685068e-04 0.0000000000000000e+00  2.5829711982975329e-05 -1.0454536738382807e-04 0.0000000000000000e+00  2.4001560430269799e-06 1.5330480869847634e-06 0.0000000000000000e+00  2.5187822265220547e-05 -9.3331221652338741e-05 0.0000000000000000e+00  3.8932365949989989e-06 2.7597127052114171e-06 0.0000000000000000e+00  2.4511770452577475e-05 -8.2087913196264310e-05 0.0000000000000000e+00  6.3454899508978141e-06 4.1418844269268575e-06 0.0000000000000000e+00  7.8984215080606714e-06 4.2096739493372351e-06 0.0000000000000000e+00  2.3724602485042530e-05 -7.1099390183498580e-05 0.0000000000000000e+00  1.1835023695585620e-05 2.9556402977064030e-07 0.0000000000000000e+00  2.1835349643132335e-05 -5.0286806345677430e-05 0.0000000000000000e+00  9.4092021766961043e-06 3.4906025780030806e-06 0.0000000000000000e+00  1.3354572061287066e-05 -3.0821891989824815e-06 0.0000000000000000e+00  2.0744180197759634e-05 -4.0686238828251158e-05 0.0000000000000000e+00  2.2830818220024249e-05 -6.0462870404863952e-05 0.0000000000000000e+00  1.4839462774407753e-05 -7.6297262553409367e-06 0.0000000000000000e+00  1.9562799178375309e-05 -3.1780596523810420e-05 0.0000000000000000e+00  1.6163254229545558e-05 -1.3019816908930829e-05 0.0000000000000000e+00  1.8395145645243803e-05 -2.3852762077318220e-05 0.0000000000000000e+00  1.7242552308332690e-05 -1.7959846478365282e-05 0.0000000000000000e+00  1.0593086139811597e-05 2.2334318972508163e-06 0.0000000000000000e+00  2.6083946766306823e-05 -1.1388701195442397e-04 0.0000000000000000e+00  5.0591594439002818e-06 3.5415252559341593e-06 0.0000000000000000e+00  2.3907889322260019e-05 -1.2798219824717314e-04 0.0000000000000000e+00  1.8172391310932083e-06 1.2446476971039475e-06 0.0000000000000000e+00  2.2687611711284787e-05 -8.7556982012170081e-05 0.0000000000000000e+00  2.3271633147459250e-05 -9.8909795360963557e-05 0.0000000000000000e+00  2.9252388023767191e-06 1.8754692749598654e-06 0.0000000000000000e+00  7.1157356568399730e-06 3.9960631736551926e-06 0.0000000000000000e+00  2.0381609082097350e-05 -5.5145489694174623e-05 0.0000000000000000e+00  2.2007161053563428e-05 -7.6415932968054408e-05 0.0000000000000000e+00  1.3268920348049745e-05 -1.4993904538345959e-06 0.0000000000000000e+00  1.9449995331084818e-05 -4.5231634836774540e-05 0.0000000000000000e+00  8.8583902331969159e-06 3.6650794939673823e-06 0.0000000000000000e+00  1.4983938895035019e-05 -5.4837478047466255e-06 0.0000000000000000e+00  1.8447940880364398e-05 -3.5953374166633840e-05 0.0000000000000000e+00  2.1236171161049961e-05 -6.5577426809094969e-05 0.0000000000000000e+00  1.6882042155288488e-05 -1.0605120669160403e-05 0.0000000000000000e+00  1.7378806842732995e-05 -2.7430357452575274e-05 0.0000000000000000e+00  2.8153958855806226e-07 -3.9036100878712805e-08 0.0000000000000000e+00  3.4719922755878826e-07 3.0965711650085265e-07 0.0000000000000000e+00  2.8517437133889336e-05 -1.3825921717891716e-04 0.0000000000000000e+00  1.4063190217551316e-06 5.9753310165403141e-07 0.0000000000000000e+00  1.6053568086488492e-05 -2.0538322956517593e