<?xml version="1.0"?>
<VTKFile type="UnstructuredGrid"  version="0.1"  >
<UnstructuredGrid>
<Piece  NumberOfPoints="1419" NumberOfCells="2698">
<Points>
<DataArray  type="Float64"  NumberOfComponents="3"  format="ascii">0 0 0  0 0.41 0  2.5 0 0  2.5 0.41 0  0.6 0.19 0  0.6 0.21 0  0.25 0.2 0  0.15 0.2 0  0.2489897948556636 0.21 0  0.2489897948556636 0.19 0  0.6 0.2 0  0 0.3807142857143437 0  0 0.3514285714286952 0  0 0.3221428571430699 0  0 0.29285714285744 0  0 0.2635714285718054 0  0 0.2342857142861561 0  0 0.2050000000005308 0  0 0.175714285714732 0  0 0.1464285714289574 0  0 0.1171428571431897 0  0 0.08785714285737878 0  0 0.05857142857161107 0  0 0.02928571428580012 0  0.03015443760436003 0 0  0.06140001986583606 0 0  0.09377624077125973 0 0  0.1273239957535082 0 0  0.1620856860351972 0 0  0.1981052433264291 0 0  0.235428184091502 0 0  0.2741016576309132 0 0  0.3141745521465447 0 0  0.3556974926295285 0 0  0.3987229542472677 0 0  0.4433053055141081 0 0  0.4895008759286886 0 0  0.5373680609405097 0 0  0.5869673343216626 0 0  0.6383613676634521 0 0  0.6916151138468254 0 0  0.7467958595648856 0 0  0.8039733463919316 0 0  0.8632198139502143 0 0  0.9246101326867038 0 0  0.9882218810934433 0 0  1.054135445558498 0 0  1.122434100542598 0 0  1.193204177141305 0 0  1.266535089879536 0 0  1.342519516046404 0 0  1.421253448503939 0 0  1.502836389106271 0 0  1.587371439758838 0 0  1.674965418777374 0 0  1.765729001825544 0 0  1.859776908880082 0 0  1.957227977487062 0 0  2.058205329869943 0 0  2.162836591189951 0 0  2.271253957290865 0 0  2.383594446803425 0 0  2.5 0.1024999999997612 0  2.5 0.2049999999994743 0  2.5 0.3074999999997183 0  2.383594446803656 0.41 0  2.271253957291315 0.41 0  2.162836591190598 0.41 0  2.058205329870775 0.41 0  1.957227977488067 0.41 0  1.859776908881246 0.41 0  1.765729001826854 0.41 0  1.674965418778818 0.41 0  1.58737143976041 0.41 0  1.502836389107956 0.41 0  1.421253448505726 0.41 0  1.342519516048286 0.41 0  1.266535089881505 0.41 0  1.193204177143353 0.41 0  1.122434100544716 0.41 0  1.05413544556068 0.41 0  0.9882218810956305 0.41 0  0.9246101326886647 0.41 0  0.8632198139519631 0.41 0  0.8039733463934788 0.41 0  0.7467958595662458 0.41 0  0.6916151138480078 0.41 0  0.6383613676644679 0.41 0  0.5869673343225223 0.41 0  0.5373680609412221 0.41 0  0.4895008759292634 0.41 0  0.4433053055145528 0.41 0  0.3987229542475914 0.41 0  0.3556974926297398 0.41 0  0.3141745521466497 0.41 0  0.2741016576310038 0.41 0  0.2354281840915826 0.41 0  0.1981052433265003 0.41 0  0.1620856860352591 0.41 0  0.1273239957535623 0.41 0  0.09377624077128965 0.41 0  0.06140001986584975 0.41 0  0.03015443760436654 0.41 0  0.2497468076502589 0.2050254481002335 0  0.2497468076502614 0.1949745518997913 0  0.2469965252529372 0.1829317073451959 0  0.2439893735792749 0.1762316384219906 0  0.2400332147834255 0.1700443375285386 0  0.2352133972704371 0.1645032867342007 0  0.2296339016332438 0.1597280261969788 0  0.2234150974217223 0.1558215752574715 0  0.2166911463437691 0.1528682099456123 0  0.2096071079204251 0.1509316448471593 0  0.2023158100364996 0.1500536585536553 0  0.194974551899914 0.1502531923497262 0  0.1877417105387872 0.1515259415822739 0  0.1807733240461124 0.153844448527136 0  0.1742197252835808 0.15715869474974 0  0.1682222986673531 0.1613971801805478 0  0.162910430003803 0.1664684656256651 0  0.1583987151779087 0.1722631454351573 0  0.1547844879126891 0.178656207771761 0  0.1521457199348551 0.1855097315605723 0  0.1505393388476355 0.1926758619366523 0  0.1505393388476328 0.2073241380633295 0  0.1521457199348437 0.2144902684393899 0  0.1547844879126531 0.221343792228163 0  0.1583987151778488 0.2277368545647528 0  0.1629104300036858 0.2335315343742052 0  0.1682222986671726 0.2386028198193036 0  0.1742197252833576 0.2428413052501257 0  0.1807733240458683 0.2461555514727623 0  0.1877417105384929 0.2484740584176516 0  0.1949745518995776 0.2497468076502398 0  0.202315810036185 0.2499463414463592 0  0.2096071079201568 0.2490683551528932 0  0.2166911463435495 0.2471317900544655 0  0.2234150974215506 0.2441784247426195 0  0.2296339016331197 0.2402719738031125 0  0.2352133972703547 0.2354967132658811 0  0.2400332147833751 0.2299556624715287 0  0.2439893735792577 0.2237683615780412 0  0.246996525252926 0.2170682926548348 0  0.25645809709277 0.21 0  0.2639263993298655 0.21 0  0.271394701566961 0.21 0  0.2788630038040554 0.21 0  0.2863313060411479 0.21 0  0.2937996082782405 0.21 0  0.301267910515333 0.21 0  0.3087362127524279 0.21 0  0.3162045149895234 0.21 0  0.3236728172265972 0.21 0  0.3311411194636928 0.21 0  0.3386094217007701 0.21 0  0.3460777239378666 0.21 0  0.3535460261749672 0.21 0  0.3610143284120516 0.21 0  0.3684826306491596 0.21 0  0.3759509328862226 0.21 0  0.383419235123329 0.21 0  0.3908875373604028 0.21 0  0.3983558395975142 0.21 0  0.4058241418345938 0.21 0  0.4132924440716992 0.21 0  0.4207607463087888 0.21 0  0.4282290485459029 0.21 0  0.4356973507830418 0.21 0  0.4431656530201649 0.21 0  0.4506339552573136 0.21 0  0.4581022574944306 0.21 0  0.4655705597315852 0.21 0  0.4730388619686996 0.21 0  0.480507164205851 0.21 0  0.4879754664429498 0.21 0  0.4954437686800938 0.21 0  0.502912070917267 0.21 0  0.5103803731544119 0.21 0  0.5178486753915261 0.21 0  0.5253169776286404 0.21 0  0.5327852798657868 0.21 0  0.5402535821029386 0.21 0  0.54772188434007 0.21 0  0.5551901865771842 0.21 0  0.5626584888143201 0.21 0  0.5701267910514778 0.21 0  0.5775950932886138 0.21 0  0.5850633955257281 0.21 0  0.5925316977628483 0.21 0  0.6 0.2050000000000054 0  0.6 0.1950000000000217 0  0.5925316977628897 0.19 0  0.5850633955257988 0.19 0  0.5775950932887378 0.19 0  0.5701267910515998 0.19 0  0.5626584888145268 0.19 0  0.5551901865773963 0.19 0  0.547721884340339 0.19 0  0.5402535821032429 0.19 0  0.5327852798661811 0.19 0  0.5253169776290537 0.19 0  0.5178486753919799 0.19 0  0.5103803731549078 0.19 0  0.502912070917822 0.19 0  0.4954437686807294 0.19 0  0.4879754664436223 0.19 0  0.4805071642065402 0.19 0  0.4730388619694271 0.19 0  0.4655705597323621 0.19 0  0.4581022574952563 0.19 0  0.4506339552581777 0.19 0  0.4431656530210671 0.19 0  0.4356973507839815 0.19 0  0.4282290485468779 0.19 0  0.4207607463097617 0.19 0  0.4132924440726327 0.19 0  0.4058241418354857 0.19 0  0.3983558395983636 0.19 0  0.3908875373612097 0.19 0  0.3834192351240934 0.19 0  0.3759509328869369 0.19 0  0.3684826306498175 0.19 0  0.361014328412667 0.19 0  0.3535460261755617 0.19 0  0.3460777239384295 0.19 0  0.3386094217012945 0.19 0  0.3311411194641595 0.19 0  0.3236728172270245 0.19 0  0.3162045149898895 0.19 0  0.3087362127527544 0.19 0  0.3012679105156187 0.19 0  0.2937996082784807 0.19 0  0.2863313060413428 0.19 0  0.2788630038042048 0.19 0  0.2713947015670686 0.19 0  0.2639263993299336 0.19 0  0.2564580970927985 0.19 0  0.2607803159922026 0.2000727136295815 0  0.5887803774232762 0.2001272386983733 0  0.5745072403740523 0.2002044435018727 0  0.5511891430099709 0.2001122610077113 0  0.2751288526855082 0.20000000000002 0  0.5365194309847112 0.1999999999999436 0  0.2894621222999649 0.1998691686390484 0  0.5215828265105155 0.1999999999999228 0  0.3127789816668748 0.1998657885438805 0  0.3274069683451451 0.2000000000000796 0  0.5066462220363641 0.199999999999908 0  0.3650630746574081 0.199866017807523 0  0.476773013087985 0.1999999999998713 0  0.3417402379596385 0.1998691686391011 0  0.3796850840047755 0.200000000000134 0  0.4618364086138087 0.1999999999998546 0  0.4917096175621762 0.1999999999998808 0  0.3946216884789568 0.2000000000001512 0  0.446899804139621 0.1999999999998389 0  0.4089549580935208 0.1998691686391595 0  0.4322718174608562 0.200127451265745 0  0.4201487168029707 0.1999966199048527 0  0.3528922713220932 0.2000185703532356 0  0.5633122436674589 0.1999814296467508 0  0.3006558810093873 0.1999966199048318 0  0.5815926498168407 0.1966545283159175 0  0.2677053789419034 0.1964246479135325 0  0.5290511287476175 0.1970915826863981 0  0.5439877332217911 0.197091582686394 0  0.2825131256993216 0.2035478995978015 0  0.3199386661080599 0.202908417313604 0  0.4842413153250809 0.1970915826863873 0  0.5141145242734466 0.1970915826863843 0  0.3722167817676917 0.2029084173136195 0  0.4693047108508938 0.1970915826863783 0  0.3348752705822316 0.202908417313609 0  0.3871533862418661 0.2029084173136212 0  0.4543681063767183 0.1970915826863795 0  0.4991779197992749 0.1970915826863902 0  0.4020059614928624 0.203547899597858 0  0.4394315019025246 0.1970915826863714 0  0.2550657455369551 0.2034088125358657 0  0.2548908499171161 0.1966940311614271 0  0.5946539510196798 0.2024302972968126 0  0.267698176732111 0.2039977513680092 0  0.4261685417851465 0.196409292431739 0  0.3590076176283495 0.196411355804271 0  0.5571672426447437 0.2036011176410121 0  0.3066757059912147 0.1964092924317024 0  0.594380730180568 0.1966558399668133 0  0.4842413153245942 0.2040749161535287 0  0.4693047108503577 0.2040749161535231 0  0.3871533862424271 0.1959250838464788 0  0.372246743208829 0.1959123236376545 0  0.5141145242731028 0.2040749161535395 0  0.4543681063761134 0.2040749161535186 0  0.4019979587101454 0.1959834479682427 0  0.4394608940728603 0.2040870543693135 0  0.5439623148931173 0.2040856076781014 0  0.5290511287473298 0.2040749161535501 0  0.4991779197988497 0.2040749161535382 0  0.3347912413592433 0.1959225448935183 0  0.3199680582793816 0.1959123018030061 0  0.2825051229162361 0.1959834479681729 0  0.3590471196690275 0.2036304442587945 0  0.5571594006495384 0.1963685282145804 0  0.3067669986803285 0.203627750582736 0  0.4262598344738712 0.2036568242185335 0  0.5814408164431408 0.2041285596160068 0  0.5688286748170428 0.1961819304477386 0  0.4145905603063645 0.2038180695522843 0  0.3473758401724931 0.2038180695522752 0  0.2950977245128307 0.2038180695522663 0  0.5688286748170693 0.203818069552238 0  0.2950977245127906 0.1961819304477774 0  0.3473758401723931 0.1961819304478349 0  0.4145905603061963 0.1961819304479011 0  0.2601812407614425 0.2056861609747042
[...]
<PointData  Vectors="f_46-2"> 
<DataArray  type="Float64"  Name="f_46-2"  NumberOfComponents="3" format="ascii">0.0000000000000000e+00 0.0000000000000000e+00 0.0000000000000000e+00  0.0000000000000000e+00 0.0000000000000000e+00 0.0000000000000000e+00  0.0000000000000000e+00 0.0000000000000000e+00 0.0000000000000000e+00  0.0000000000000000e+00 0.0000000000000000e+00 0.0000000000000000e+00  2.2728332728372740e-05 -3.1181597463666592e-04 0.0000000000000000e+00  4.7210548393246921e-05 -3.1259260664964766e-04 0.0000000000000000e+00  0.0000000000000000e+00 0.0000000000000000e+00 0.0000000000000000e+00  0.0000000000000000e+00 0.0000000000000000e+00 0.0000000000000000e+00  0.0000000000000000e+00 0.0000000000000000e+00 0.0000000000000000e+00  0.0000000000000000e+00 0.0000000000000000e+00 0.0000000000000000e+00  3.4634601255322739e-05 -3.1220531749701010e-04 0.0000000000000000e+00  0.0000000000000000e+00 0.0000000000000000e+00 0.0000000000000000e+00  0.0000000000000000e+00 0.0000000000000000e+00 0.0000000000000000e+00  0.0000000000000000e+00 0.0000000000000000e+00 0.0000000000000000e+00  0.0000000000000000e+00 0.0000000000000000e+00 0.0000000000000000e+00  0.0000000000000000e+00 0.0000000000000000e+00 0.0000000000000000e+00  0.0000000000000000e+00 0.0000000000000000e+00 0.0000000000000000e+00  0.0000000000000000e+00 0.0000000000000000e+00 0.0000000000000000e+00  0.0000000000000000e+00 0.0000000000000000e+00 0.0000000000000000e+00  0.0000000000000000e+00 0.0000000000000000e+00 0.0000000000000000e+00  0.0000000000000000e+00 0.0000000000000000e+00 0.0000000000000000e+00  0.0000000000000000e+00 0.0000000000000000e+00 0.0000000000000000e+00  0.0000000000000000e+00 0.0000000000000000e+00 0.0000000000000000e+00  0.0000000000000000e+00 0.0000000000000000e+00 0.0000000000000000e+00  0.0000000000000000e+00 0.0000000000000000e+00 0.0000000000000000e+00  0.0000000000000000e+00 0.0000000000000000e+00 0.0000000000000000e+00  0.0000000000000000e+00 0.0000000000000000e+00 0.0000000000000000e+00  0.0000000000000000e+00 0.0000000000000000e+00 0.0000000000000000e+00  0.0000000000000000e+00 0.0000000000000000e+00 0.0000000000000000e+00  0.0000000000000000e+00 0.0000000000000000e+00 0.0000000000000000e+00  0.0000000000000000e+00 0.0000000000000000e+00 0.0000000000000000e+00  0.0000000000000000e+00 0.0000000000000000e+00 0.0000000000000000e+00  0.0000000000000000e+00 0.0000000000000000e+00 0.0000000000000000e+00  0.0000000000000000e+00 0.0000000000000000e+00 0.0000000000000000e+00  0.0000000000000000e+00 0.0000000000000000e+00 0.0000000000000000e+00  -1.6634022625355703e-13 -8.1571555898293604e-17 0.0000000000000000e+00  0.0000000000000000e+00 0.0000000000000000e+00 0.0000000000000000e+00  0.0000000000000000e+00 0.0000000000000000e+00 0.0000000000000000e+00  0.0000000000000000e+00 0.0000000000000000e+00 0.0000000000000000e+00  0.0000000000000000e+00 0.0000000000000000e+00 0.0000000000000000e+00  0.0000000000000000e+00 0.0000000000000000e+00 0.0000000000000000e+00  0.0000000000000000e+00 0.0000000000000000e+00 0.0000000000000000e+00  0.0000000000000000e+00 0.0000000000000000e+00 0.0000000000000000e+00  0.0000000000000000e+00 0.0000000000000000e+00 0.0000000000000000e+00  0.0000000000000000e+00 0.0000000000000000e+00 0.0000000000000000e+00  0.0000000000000000e+00 0.0000000000000000e+00 0.0000000000000000e+00  0.0000000000000000e+00 0.0000000000000000e+00 0.0000000000000000e+00  0.0000000000000000e+00 0.0000000000000000e+00 0.0000000000000000e+00  0.0000000000000000e+00 0.0000000000000000e+00 0.0000000000000000e+00  0.0000000000000000e+00 0.0000000000000000e+00 0.0000000000000000e+00  0.0000000000000000e+00 0.0000000000000000e+00 0.0000000000000000e+00  0.0000000000000000e+00 0.0000000000000000e+00 0.0000000000000000e+00  0.0000000000000000e+00 0.0000000000000000e+00 0.0000000000000000e+00  0.0000000000000000e+00 0.0000000000000000e+00 0.0000000000000000e+00  0.0000000000000000e+00 0.0000000000000000e+00 0.0000000000000000e+00  0.0000000000000000e+00 0.0000000000000000e+00 0.0000000000000000e+00  0.0000000000000000e+00 0.0000000000000000e+00 0.0000000000000000e+00  0.0000000000000000e+00 0.0000000000000000e+00 0.0000000000000000e+00  0.0000000000000000e+00 0.0000000000000000e+00 0.0000000000000000e+00  0.0000000000000000e+00 0.0000000000000000e+00 0.0000000000000000e+00  0.0000000000000000e+00 0.0000000000000000e+00 0.0000000000000000e+00  0.0000000000000000e+00 0.0000000000000000e+00 0.0000000000000000e+00  0.0000000000000000e+00 0.0000000000000000e+00 0.0000000000000000e+00  0.0000000000000000e+00 0.0000000000000000e+00 0.0000000000000000e+00  0.0000000000000000e+00 0.0000000000000000e+00 0.0000000000000000e+00  0.0000000000000000e+00 0.0000000000000000e+00 0.0000000000000000e+00  0.0000000000000000e+00 0.0000000000000000e+00 0.0000000000000000e+00  0.0000000000000000e+00 0.0000000000000000e+00 0.0000000000000000e+00  0.0000000000000000e+00 0.0000000000000000e+00 0.0000000000000000e+00  0.0000000000000000e+00 0.0000000000000000e+00 0.0000000000000000e+00  0.0000000000000000e+00 0.0000000000000000e+00 0.0000000000000000e+00  0.0000000000000000e+00 0.0000000000000000e+00 0.0000000000000000e+00  0.0000000000000000e+00 0.0000000000000000e+00 0.0000000000000000e+00  0.0000000000000000e+00 0.0000000000000000e+00 0.0000000000000000e+00  0.0000000000000000e+00 0.0000000000000000e+00 0.0000000000000000e+00  0.0000000000000000e+00 0.0000000000000000e+00 0.0000000000000000e+00  0.0000000000000000e+00 0.0000000000000000e+00 0.0000000000000000e+00  0.0000000000000000e+00 0.0000000000000000e+00 0.0000000000000000e+00  0.0000000000000000e+00 0.0000000000000000e+00 0.0000000000000000e+00  0.0000000000000000e+00 0.0000000000000000e+00 0.0000000000000000e+00  0.0000000000000000e+00 0.0000000000000000e+00 0.0000000000000000e+00  0.0000000000000000e+00 0.0000000000000000e+00 0.0000000000000000e+00  0.0000000000000000e+00 0.0000000000000000e+00 0.0000000000000000e+00  0.0000000000000000e+00 0.0000000000000000e+00 0.0000000000000000e+00  0.0000000000000000e+00 0.0000000000000000e+00 0.0000000000000000e+00  0.0000000000000000e+00 0.0000000000000000e+00 0.0000000000000000e+00  0.0000000000000000e+00 0.0000000000000000e+00 0.0000000000000000e+00  0.0000000000000000e+00 0.0000000000000000e+00 0.0000000000000000e+00  3.3743929762426440e-12 0.0000000000000000e+00 0.0000000000000000e+00  0.0000000000000000e+00 0.0000000000000000e+00 0.0000000000000000e+00  0.0000000000000000e+00 0.0000000000000000e+00 0.0000000000000000e+00  0.0000000000000000e+00 0.0000000000000000e+00 0.0000000000000000e+00  0.0000000000000000e+00 0.0000000000000000e+00 0.0000000000000000e+00  0.0000000000000000e+00 0.0000000000000000e+00 0.0000000000000000e+00  -3.6045382761989383e-13 1.2001236015964890e-17 0.0000000000000000e+00  0.0000000000000000e+00 0.0000000000000000e+00 0.0000000000000000e+00  0.0000000000000000e+00 0.0000000000000000e+00 0.0000000000000000e+00  0.0000000000000000e+00 0.0000000000000000e+00 0.0000000000000000e+00  0.0000000000000000e+00 0.0000000000000000e+00 0.0000000000000000e+00  0.0000000000000000e+00 0.0000000000000000e+00 0.0000000000000000e+00  0.0000000000000000e+00 0.0000000000000000e+00 0.0000000000000000e+00  0.0000000000000000e+00 0.0000000000000000e+00 0.0000000000000000e+00  0.0000000000000000e+00 0.0000000000000000e+00 0.0000000000000000e+00  0.0000000000000000e+00 0.0000000000000000e+00 0.0000000000000000e+00  0.0000000000000000e+00 0.0000000000000000e+00 0.0000000000000000e+00  2.9581743270848378e-13 -7.3996875768663432e-13 0.0000000000000000e+00  0.0000000000000000e+00 0.0000000000000000e+00 0.0000000000000000e+00  0.0000000000000000e+00 0.0000000000000000e+00 0.0000000000000000e+00  0.0000000000000000e+00 0.0000000000000000e+00 0.0000000000000000e+00  0.0000000000000000e+00 0.0000000000000000e+00 0.0000000000000000e+00  2.7024369005384864e-16 5.5270777363047015e-17 0.0000000000000000e+00  0.0000000000000000e+00 0.0000000000000000e+00 0.0000000000000000e+00  0.0000000000000000e+00 0.0000000000000000e+00 0.0000000000000000e+00  0.0000000000000000e+00 0.0000000000000000e+00 0.0000000000000000e+00  0.0000000000000000e+00 0.0000000000000000e+00 0.0000000000000000e+00  0.0000000000000000e+00 0.0000000000000000e+00 0.0000000000000000e+00  0.0000000000000000e+00 0.0000000000000000e+00 0.0000000000000000e+00  0.0000000000000000e+00 0.0000000000000000e+00 0.0000000000000000e+00  0.0000000000000000e+00 0.0000000000000000e+00 0.0000000000000000e+00  0.0000000000000000e+00 0.0000000000000000e+00 0.0000000000000000e+00  0.0000000000000000e+00 0.0000000000000000e+00 0.0000000000000000e+00  0.0000000000000000e+00 0.0000000000000000e+00 0.0000000000000000e+00  0.0000000000000000e+00 0.0000000000000000e+00 0.0000000000000000e+00  0.0000000000000000e+00 0.0000000000000000e+00 0.0000000000000000e+00  0.0000000000000000e+00 0.0000000000000000e+00 0.0000000000000000e+00  0.0000000000000000e+00 0.0000000000000000e+00 0.0000000000000000e+00  0.0000000000000000e+00 0.0000000000000000e+00 0.0000000000000000e+00  0.0000000000000000e+00 0.0000000000000000e+00 0.0000000000000000e+00  0.0000000000000000e+00 0.0000000000000000e+00 0.0000000000000000e+00  0.0000000000000000e+00 0.0000000000000000e+00 0.0000000000000000e+00  0.0000000000000000e+00 0.0000000000000000e+00 0.0000000000000000e+00  0.0000000000000000e+00 0.0000000000000000e+00 0.0000000000000000e+00  0.0000000000000000e+00 0.0000000000000000e+00 0.0000000000000000e+00  0.0000000000000000e+00 0.0000000000000000e+00 0.0000000000000000e+00  0.0000000000000000e+00 0.0000000000000000e+00 0.0000000000000000e+00  0.0000000000000000e+00 0.0000000000000000e+00 0.0000000000000000e+00  0.0000000000000000e+00 0.0000000000000000e+00 0.0000000000000000e+00  0.0000000000000000e+00 0.0000000000000000e+00 0.0000000000000000e+00  0.0000000000000000e+00 0.0000000000000000e+00 0.0000000000000000e+00  0.0000000000000000e+00 0.0000000000000000e+00 0.0000000000000000e+00  0.0000000000000000e+00 0.0000000000000000e+00 0.0000000000000000e+00  0.0000000000000000e+00 0.0000000000000000e+00 0.0000000000000000e+00  1.1697354355702188e-13 -6.3847564513809579e-14 0.0000000000000000e+00  1.4374714080232598e-06 -1.4816801593720434e-06 0.0000000000000000e+00  3.0482230559296273e-06 -2.1695075612744839e-06 0.0000000000000000e+00  4.6942486709996789e-06 -3.2378300425097068e-06 0.0000000000000000e+00  6.4483273574384384e-06 -4.7381128567844580e-06 0.0000000000000000e+00  8.1289700189617380e-06 -6.6603553522720454e-06 0.0000000000000000e+00  9.9110417981274648e-06 -9.0464046514370999e-06 0.0000000000000000e+00  1.1574738581978037e-05 -1.1781950583272903e-05 0.0000000000000000e+00  1.3232975868348647e-05 -1.4986872029532927e-05 0.0000000000000000e+00  1.4979681249453422e-05 -1.8556160278874164e-05 0.0000000000000000e+00  1.6571524772151861e-05 -2.2505743014674193e-05 0.0000000000000000e+00  1.8270449551026206e-05 -2.6848015988489407e-05 0.0000000000000000e+00  1.9805762541773236e-05 -3.1540583571583092e-05 0.0000000000000000e+00  2.1412232915568300e-05 -3.6591298663330242e-05 0.0000000000000000e+00  2.2889175211372413e-05 -4.1928732282859346e-05 0.0000000000000000e+00  2.4330794276285079e-05 -4.7624028728425180e-05 0.0000000000000000e+00  2.5811390949668357e-05 -5.3597154664584581e-05 0.0000000000000000e+00  2.7147168473218682e-05 -5.9839943267868607e-05 0.0000000000000000e+00  2.8528555082426829e-05 -6.6377959125318208e-05 0.0000000000000000e+00  2.9769270334950757e-05 -7.3143175779063140e-05 0.0000000000000000e+00  3.1039254607549838e-05 -8.0162810113404076e-05 0.0000000000000000e+00  3.2198469754631304e-05 -8.7386863854374094e-05 0.0000000000000000e+00  3.3351491154413994e-05 -9.4839133877616883e-05 0.0000000000000000e+00  3.4413064162507932e-05 -1.0244838348815225e-04 0.0000000000000000e+00  3.5428320274621013e-05 -1.1025800616168744e-04 0.0000000000000000e+00  3.6440136472964518e-05 -1.1821144259134854e-04 0.0000000000000000e+00  3.7367071711386391e-05 -1.2630986151828899e-04 0.0000000000000000e+00  3.8257932032866057e-05 -1.3456591957944645e-04 0.0000000000000000e+00  3.9089332507696708e-05 -1.4291407297445353e-04 0.0000000000000000e+00  3.9883658409990602e-05 -1.5139793462946128e-04 0.0000000000000000e+00  4.0623074887698853e-05 -1.5995128508215035e-04 0.0000000000000000e+00  4.1325585509675732e-05 -1.6861647207165709e-04 0.0000000000000000e+00  4.1976346508791542e-05 -1.7732949626849954e-04 0.0000000000000000e+00  4.2590599680533709e-05 -1.8613395641750485e-04 0.0000000000000000e+00  4.3156404608739320e-05 -1.9496800874188990e-04 0.0000000000000000e+00  4.3684756759028689e-05 -2.0387706231407831e-04 0.0000000000000000e+00  4.4168874380353184e-05 -2.1280125623123961e-04 0.0000000000000000e+00  4.4616800255058245e-05 -2.2178481010314094e-04 0.0000000000000000e+00  4.5022990439984819e-05 -2.3077245380591566e-04 0.0000000000000000e+00  4.5392797917322616e-05 -2.3980773844113206e-04 0.0000000000000000e+00  4.5721403502187688e-05 -2.4883710363070755e-04 0.0000000000000000e+00  4.6009400674380860e-05 -2.5789759372577811e-04 0.0000000000000000e+00  4.6265015327686445e-05 -2.6695893135185905e-04 0.0000000000000000e+00  4.6481568270003561e-05 -2.7603349677226419e-04 0.0000000000000000e+00  4.6677031672640131e-05 -2.8511211922824296e-04 0.0000000000000000e+00  4.6829380907895430e-05 -2.9418253396777710e-04 0.0000000000000000e+00  4.6985225545301103e-05 -3.0329681427256256e-04 0.0000000000000000e+00  4.0809339212688688e-05 -3.1239320975440195e-04 0.0000000000000000e+00  2.8582060274524428e-05 -3.1202120112535286e-04 0.0000000000000000e+00  2.2520427102352564e-05 -3.0284308792074015e-04 0.0000000000000000e+00  2.2389549532956638e-05 -2.9368710914735917e-04 0.0000000000000000e+00  2.2256189140735306e-05 -2.8451231421751318e-04 0.0000000000000000e+00  2.2087388871247385e-05 -2.7536094823348467e-04 0.0000000000000000e+00  2.1896537935007145e-05 -2.6621656907756188e-04 0.0000000000000000e+00  2.1670360127569632e-05 -2.5708352577874494e-04 0.0000000000000000e+00  2.1423915518059653e-05 -2.4796808943510407e-04 0.0000000000000000e+00  2.1139310284334635e-05 -2.3885361083173377e-04 0.0000000000000000e+00  2.0834733878562948e-05 -2.2977966849423972e-04 0.0000000000000000e+00  2.0495794681275746e-05 -2.2070708023563102e-04 0.0000000000000000e+00  2.0143211971050962e-05 -2.1168514967729330e-04 0.0000000000000000e+00  1.9755018025860779e-05 -2.0267595856524639e-04 0.0000000000000000e+00  1.9359211079604027e-05 -1.9372919822107068e-04 0.0000000000000000e+00  1.8925447222866696e-05 -1.8481060293943464e-04 0.0000000000000000e+00  1.8492250375632545e-05 -1.7596881439598436e-04 0.0000000000000000e+00  1.8016849729818614e-05 -1.6717229340533854e-04 0.0000000000000000e+00  1.7550711033225794e-05 -1.5847024940990404e-04 0.0000000000000000e+00  1.7037586007373292e-05 -1.4983350713293882e-04 0.0000000000000000e+00  1.6542721112804471e-05 -1.4131251688275916e-04 0.0000000000000000e+00  1.5994992507794016e-05 -1.3288113842195673e-04 0.0000000000000000e+00  1.5476814550881290e-05 -1.2458984375690856e-04 0.0000000000000000e+00  1.4898403997987694e-05 -1.1641554553331396e-04 0.0000000000000000e+00  1.4351801612265042e-05 -1.0840366823042602e-04 0.0000000000000000e+00  1.3755854914401508e-05 -1.0053349696220774e-04 0.0000000000000000e+00  1.3142509208455687e-05 -9.2869414827014178e-05 0.0000000000000000e+00  1.2569575619884580e-05 -8.5359623324849710e-05 0.0000000000000000e+00  1.1946770567895999e-05 -7.8069513930924782e-05 0.0000000000000000e+00  1.1341297716662462e-05 -7.1005903802121226e-05 0.0000000000000000e+00  1.0701480454591300e-05 -6.4172300880930788e-05 0.0000000000000000e+00  1.0078866950299922e-05 -5.7602692335534126e-05 0.0000000000000000e+00  9.4234201534583261e-06 -5.1283361437349766e-05 0.0000000000000000e+00  8.8156560942429650e-06 -4.5291701053389437e-05 0.0000000000000000e+00  8.1369333087373685e-06 -3.9548640410558136e-05 0.0000000000000000e+00  7.4506978233677037e-06 -3.4180150276671757e-05 0.0000000000000000e+00  6.8413913633342260e-06 -2.9079833795527943e-05 0.0000000000000000e+00  6.1809755019631092e-06 -2.4366534204498616e-05 0.0000000000000000e+00  5.5576005463442351e-06 -2.0015451668187478e-05 0.0000000000000000e+00  4.9032956976709882e-06 -1.6032407241164891e-05 0.0000000000000000e+00  4.3264728570486579e-06 -1.2486625912264596e-05 0.0000000000000000e+00  3.6676061894751738e-06 -9.2796739123862009e-06 0.0000000000000000e+00  3.0134606674430598e-06 -6.5569543245341220e-06 0.0000000000000000e+00  2.4698048799468698e-06 -4.1797004602519444e-06 0.0000000000000000e+00  1.8637174226238183e-06 -2.2631196251087009e-06 0.0000000000000000e+00  1.3573415414566655e-06 -7.8957453612233018e-07 0.0000000000000000e+00  8.0411527352382676e-07 2.1536617673739599e-07 0.0000000000000000e+00  4.0550605320463486e-07 7.2248177326588673e-07 0.0000000000000000e+00  1.2882583142198264e-06 -3.7593656722837772e-07 0.0000000000000000e+00  3.4706575135059480e-05 -2.9847715836441035e-04 0.0000000000000000e+00  3.4592869923925555e-05 -2.8104153288788583e-04 0.0000000000000000e+00  3.3787735756789966e-05 -2.5261465732644107e-04 0.0000000000000000e+00  3.5751130097488563e-06 -2.4181476502479410e-06 0.0000000000000000e+00  3.3044545556360115e-05 -2.3478552767688832e-04 0.0000000000000000e+00  5.7412904759820117e-06 -6.0623014793060393e-06 0.0000000000000000e+00  3.2304250161536581e-05 -2.1671878454568148e-04 0.0000000000000000e+00  9.3176811427511795e-06 -1.5335948730511969e-05 0.0000000000000000e+00  1.1615944506964049e-05 -2.3150798675528555e-05 0.0000000000000000e+00  3.1437305014497259e-05 -1.9877673903550771e-04 0.0000000000000000e+00  1.6991725295695621e-05 -4.9454982062151697e-05 0.0000000000000000e+00  2.9328088030833661e-05 -1.6348895330260267e-04 0.0000000000000000e+00  1.3675485285240419e-05 -3.2148345917154809e-05 0.0000000000000000e+00  1.9069905234722329e-05 -6.1796647630639291e-05 0.0000000000000000e+00  2.8087474428732445e-05 -1.4628402486967264e-04 0.0000000000000000e+00  3.0444946359818949e-05 -1.8101196963176189e-04 0.0000000000000000e+00  2.0979842521436867e-05 -7.5415668369523473e-05 0.0000000000000000e+00  2.6722247723672219e-05 -1.2948765455144209e-04 0.0000000000000000e+00  2.2576833611363022e-05 -8.9334665497498088e-05 0.0000000000000000e+00  2.5406594073790900e-05 -1.1354155106432647e-04 0.0000000000000000e+00  2.3956962209684724e-05 -1.0077161952178167e-04 0.0000000000000000e+00  1.5387012862021090e-05 -4.0106435287495649e-05 0.0000000000000000e+00  3.4013341950047462e-05 -2.6737853672066707e-04 0.0000000000000000e+00  7.5041446602245261e-06 -1.0093148612429711e-05 0.0000000000000000e+00  3.0386041509018062e-05 -2.8960675347017864e-04 0.0000000000000000e+00  1.9113978840053240e-06 -7.5146525437760166e-07 0.0000000000000000e+00  2.9179981228200132e-05 -2.2559164279769872e-04 0.0000000000000000e+00  2.9839597696896266e-05 -2.4372094895639275e-04 0.0000000000000000e+00  5.6087886820966801e-06 -4.5898060152717637e-06 0.0000000000000000e+00  1.2019512661844792e-05 -1.9382026900539713e-05 0.0000000000000000e+00  2.6502426218545695e-05 -1.7201863814264522e-04 0.0000000000000000e+00  2.8402051282405734e-05 -2.0756443938117891e-04 0.0000000000000000e+00  2.0511264092719113e-05 -5.5722580099657546e-05 0.0000000000000000e+00  2.5387490312085965e-05 -1.5462845047836582e-04 0.0000000000000000e+00  1.4553990308602681e-05 -2.8075115230888662e-05 0.0000000000000000e+00  2.2672618175989987e-05 -6.8822662598568053e-05 0.0000000000000000e+00  2.4165530026452669e-05 -1.3760012368993211e-04 0.0000000000000000e+00  2.7508317101736872e-05 -1.8968713029994254e-04 0.0000000000000000e+00  2.5311128226869815e-05 -8.2885934885287637e-05 0.0000000000000000e+00  2.2837395341268435e-05 -1.2103031128363170e-04 0.0000000000000000e+00  5.7644945374379057e-07 -3.3612329746111030e-07 0.0000000000000000e+00  3.8094970937920626e-07 2.0088937949679853e-07 0.0000000000000000e+00  3.7570012744326205e-05 -3.0571731166668470e-04 0.0000000000000000e+00  2.9853998145975925e-06 -1.7139718791815348e-06 0.0000000000000000e+00  2.08