<?xml version="1.0"?>
<VTKFile type="UnstructuredGrid"  version="0.1"  >
<UnstructuredGrid>
<Piece  NumberOfPoints="1419" NumberOfCells="2698">
<Points>
<DataArray  type="Float64"  NumberOfComponents="3"  format="ascii">0 0 0  0 0.41 0  2.5 0 0  2.5 0.41 0  0.6 0.19 0  0.6 0.21 0  0.25 0.2 0  0.15 0.2 0  0.2489897948556636 0.21 0  0.2489897948556636 0.19 0  0.6 0.2 0  0 0.3807142857143437 0  0 0.3514285714286952 0  0 0.3221428571430699 0  0 0.29285714285744 0  0 0.2635714285718054 0  0 0.2342857142861561 0  0 0.2050000000005308 0  0 0.175714285714732 0  0 0.1464285714289574 0  0 0.1171428571431897 0  0 0.08785714285737878 0  0 0.05857142857161107 0  0 0.02928571428580012 0  0.03015443760436003 0 0  0.06140001986583606 0 0  0.09377624077125973 0 0  0.1273239957535082 0 0  0.1620856860351972 0 0  0.1981052433264291 0 0  0.235428184091502 0 0  0.2741016576309132 0 0  0.3141745521465447 0 0  0.3556974926295285 0 0  0.3987229542472677 0 0  0.4433053055141081 0 0  0.4895008759286886 0 0  0.5373680609405097 0 0  0.5869673343216626 0 0  0.6383613676634521 0 0  0.6916151138468254 0 0  0.7467958595648856 0 0  0.8039733463919316 0 0  0.8632198139502143 0 0  0.9246101326867038 0 0  0.9882218810934433 0 0  1.054135445558498 0 0  1.122434100542598 0 0  1.193204177141305 0 0  1.266535089879536 0 0  1.342519516046404 0 0  1.421253448503939 0 0  1.502836389106271 0 0  1.587371439758838 0 0  1.674965418777374 0 0  1.765729001825544 0 0  1.859776908880082 0 0  1.957227977487062 0 0  2.058205329869943 0 0  2.162836591189951 0 0  2.271253957290865 0 0  2.383594446803425 0 0  2.5 0.1024999999997612 0  2.5 0.2049999999994743 0  2.5 0.3074999999997183 0  2.383594446803656 0.41 0  2.271253957291315 0.41 0  2.162836591190598 0.41 0  2.058205329870775 0.41 0  1.957227977488067 0.41 0  1.859776908881246 0.41 0  1.765729001826854 0.41 0  1.674965418778818 0.41 0  1.58737143976041 0.41 0  1.502836389107956 0.41 0  1.421253448505726 0.41 0  1.342519516048286 0.41 0  1.266535089881505 0.41 0  1.193204177143353 0.41 0  1.122434100544716 0.41 0  1.05413544556068 0.41 0  0.9882218810956305 0.41 0  0.9246101326886647 0.41 0  0.8632198139519631 0.41 0  0.8039733463934788 0.41 0  0.7467958595662458 0.41 0  0.6916151138480078 0.41 0  0.6383613676644679 0.41 0  0.5869673343225223 0.41 0  0.5373680609412221 0.41 0  0.4895008759292634 0.41 0  0.4433053055145528 0.41 0  0.3987229542475914 0.41 0  0.3556974926297398 0.41 0  0.3141745521466497 0.41 0  0.2741016576310038 0.41 0  0.2354281840915826 0.41 0  0.1981052433265003 0.41 0  0.1620856860352591 0.41 0  0.1273239957535623 0.41 0  0.09377624077128965 0.41 0  0.06140001986584975 0.41 0  0.03015443760436654 0.41 0  0.2497468076502589 0.2050254481002335 0  0.2497468076502614 0.1949745518997913 0  0.2469965252529372 0.1829317073451959 0  0.2439893735792749 0.1762316384219906 0  0.2400332147834255 0.1700443375285386 0  0.2352133972704371 0.1645032867342007 0  0.2296339016332438 0.1597280261969788 0  0.2234150974217223 0.1558215752574715 0  0.2166911463437691 0.1528682099456123 0  0.2096071079204251 0.1509316448471593 0  0.2023158100364996 0.1500536585536553 0  0.194974551899914 0.1502531923497262 0  0.1877417105387872 0.1515259415822739 0  0.1807733240461124 0.153844448527136 0  0.1742197252835808 0.15715869474974 0  0.1682222986673531 0.1613971801805478 0  0.162910430003803 0.1664684656256651 0  0.1583987151779087 0.1722631454351573 0  0.1547844879126891 0.178656207771761 0  0.1521457199348551 0.1855097315605723 0  0.1505393388476355 0.1926758619366523 0  0.1505393388476328 0.2073241380633295 0  0.1521457199348437 0.2144902684393899 0  0.1547844879126531 0.221343792228163 0  0.1583987151778488 0.2277368545647528 0  0.1629104300036858 0.2335315343742052 0  0.1682222986671726 0.2386028198193036 0  0.1742197252833576 0.2428413052501257 0  0.1807733240458683 0.2461555514727623 0  0.1877417105384929 0.2484740584176516 0  0.1949745518995776 0.2497468076502398 0  0.202315810036185 0.2499463414463592 0  0.2096071079201568 0.2490683551528932 0  0.2166911463435495 0.2471317900544655 0  0.2234150974215506 0.2441784247426195 0  0.2296339016331197 0.2402719738031125 0  0.2352133972703547 0.2354967132658811 0  0.2400332147833751 0.2299556624715287 0  0.2439893735792577 0.2237683615780412 0  0.246996525252926 0.2170682926548348 0  0.25645809709277 0.21 0  0.2639263993298655 0.21 0  0.271394701566961 0.21 0  0.2788630038040554 0.21 0  0.2863313060411479 0.21 0  0.2937996082782405 0.21 0  0.301267910515333 0.21 0  0.3087362127524279 0.21 0  0.3162045149895234 0.21 0  0.3236728172265972 0.21 0  0.3311411194636928 0.21 0  0.3386094217007701 0.21 0  0.3460777239378666 0.21 0  0.3535460261749672 0.21 0  0.3610143284120516 0.21 0  0.3684826306491596 0.21 0  0.3759509328862226 0.21 0  0.383419235123329 0.21 0  0.3908875373604028 0.21 0  0.3983558395975142 0.21 0  0.4058241418345938 0.21 0  0.4132924440716992 0.21 0  0.4207607463087888 0.21 0  0.4282290485459029 0.21 0  0.4356973507830418 0.21 0  0.4431656530201649 0.21 0  0.4506339552573136 0.21 0  0.4581022574944306 0.21 0  0.4655705597315852 0.21 0  0.4730388619686996 0.21 0  0.480507164205851 0.21 0  0.4879754664429498 0.21 0  0.4954437686800938 0.21 0  0.502912070917267 0.21 0  0.5103803731544119 0.21 0  0.5178486753915261 0.21 0  0.5253169776286404 0.21 0  0.5327852798657868 0.21 0  0.5402535821029386 0.21 0  0.54772188434007 0.21 0  0.5551901865771842 0.21 0  0.5626584888143201 0.21 0  0.5701267910514778 0.21 0  0.5775950932886138 0.21 0  0.5850633955257281 0.21 0  0.5925316977628483 0.21 0  0.6 0.2050000000000054 0  0.6 0.1950000000000217 0  0.5925316977628897 0.19 0  0.5850633955257988 0.19 0  0.5775950932887378 0.19 0  0.5701267910515998 0.19 0  0.5626584888145268 0.19 0  0.5551901865773963 0.19 0  0.547721884340339 0.19 0  0.5402535821032429 0.19 0  0.5327852798661811 0.19 0  0.5253169776290537 0.19 0  0.5178486753919799 0.19 0  0.5103803731549078 0.19 0  0.502912070917822 0.19 0  0.4954437686807294 0.19 0  0.4879754664436223 0.19 0  0.4805071642065402 0.19 0  0.4730388619694271 0.19 0  0.4655705597323621 0.19 0  0.4581022574952563 0.19 0  0.4506339552581777 0.19 0  0.4431656530210671 0.19 0  0.4356973507839815 0.19 0  0.4282290485468779 0.19 0  0.4207607463097617 0.19 0  0.4132924440726327 0.19 0  0.4058241418354857 0.19 0  0.3983558395983636 0.19 0  0.3908875373612097 0.19 0  0.3834192351240934 0.19 0  0.3759509328869369 0.19 0  0.3684826306498175 0.19 0  0.361014328412667 0.19 0  0.3535460261755617 0.19 0  0.3460777239384295 0.19 0  0.3386094217012945 0.19 0  0.3311411194641595 0.19 0  0.3236728172270245 0.19 0  0.3162045149898895 0.19 0  0.3087362127527544 0.19 0  0.3012679105156187 0.19 0  0.2937996082784807 0.19 0  0.2863313060413428 0.19 0  0.2788630038042048 0.19 0  0.2713947015670686 0.19 0  0.2639263993299336 0.19 0  0.2564580970927985 0.19 0  0.2607803159922026 0.2000727136295815 0  0.5887803774232762 0.2001272386983733 0  0.5745072403740523 0.2002044435018727 0  0.5511891430099709 0.2001122610077113 0  0.2751288526855082 0.20000000000002 0  0.5365194309847112 0.1999999999999436 0  0.2894621222999649 0.1998691686390484 0  0.5215828265105155 0.1999999999999228 0  0.3127789816668748 0.1998657885438805 0  0.3274069683451451 0.2000000000000796 0  0.5066462220363641 0.199999999999908 0  0.3650630746574081 0.199866017807523 0  0.476773013087985 0.1999999999998713 0  0.3417402379596385 0.1998691686391011 0  0.3796850840047755 0.200000000000134 0  0.4618364086138087 0.1999999999998546 0  0.4917096175621762 0.1999999999998808 0  0.3946216884789568 0.2000000000001512 0  0.446899804139621 0.1999999999998389 0  0.4089549580935208 0.1998691686391595 0  0.4322718174608562 0.200127451265745 0  0.4201487168029707 0.1999966199048527 0  0.3528922713220932 0.2000185703532356 0  0.5633122436674589 0.1999814296467508 0  0.3006558810093873 0.1999966199048318 0  0.5815926498168407 0.1966545283159175 0  0.2677053789419034 0.1964246479135325 0  0.5290511287476175 0.1970915826863981 0  0.5439877332217911 0.197091582686394 0  0.2825131256993216 0.2035478995978015 0  0.3199386661080599 0.202908417313604 0  0.4842413153250809 0.1970915826863873 0  0.5141145242734466 0.1970915826863843 0  0.3722167817676917 0.2029084173136195 0  0.4693047108508938 0.1970915826863783 0  0.3348752705822316 0.202908417313609 0  0.3871533862418661 0.2029084173136212 0  0.4543681063767183 0.1970915826863795 0  0.4991779197992749 0.1970915826863902 0  0.4020059614928624 0.203547899597858 0  0.4394315019025246 0.1970915826863714 0  0.2550657455369551 0.2034088125358657 0  0.2548908499171161 0.1966940311614271 0  0.5946539510196798 0.2024302972968126 0  0.267698176732111 0.2039977513680092 0  0.4261685417851465 0.196409292431739 0  0.3590076176283495 0.196411355804271 0  0.5571672426447437 0.2036011176410121 0  0.3066757059912147 0.1964092924317024 0  0.594380730180568 0.1966558399668133 0  0.4842413153245942 0.2040749161535287 0  0.4693047108503577 0.2040749161535231 0  0.3871533862424271 0.1959250838464788 0  0.372246743208829 0.1959123236376545 0  0.5141145242731028 0.2040749161535395 0  0.4543681063761134 0.2040749161535186 0  0.4019979587101454 0.1959834479682427 0  0.4394608940728603 0.2040870543693135 0  0.5439623148931173 0.2040856076781014 0  0.5290511287473298 0.2040749161535501 0  0.4991779197988497 0.2040749161535382 0  0.3347912413592433 0.1959225448935183 0  0.3199680582793816 0.1959123018030061 0  0.2825051229162361 0.1959834479681729 0  0.3590471196690275 0.2036304442587945 0  0.5571594006495384 0.1963685282145804 0  0.3067669986803285 0.203627750582736 0  0.4262598344738712 0.2036568242185335 0  0.5814408164431408 0.2041285596160068 0  0.5688286748170428 0.1961819304477386 0  0.4145905603063645 0.2038180695522843 0  0.3473758401724931 0.2038180695522752 0  0.2950977245128307 0.2038180695522663 0  0.5688286748170693 0.203818069552238 0  0.2950977245127906 0.1961819304477774 0  0.3473758401723931 0.1961819304478349 0  0.4145905603061963 0.1961819304479011 0  0.2601812407614425 0.2056861609747042
[...]
<PointData  Vectors="f_46-2"> 
<DataArray  type="Float64"  Name="f_46-2"  NumberOfComponents="3" format="ascii">0.0000000000000000e+00 0.0000000000000000e+00 0.0000000000000000e+00  0.0000000000000000e+00 0.0000000000000000e+00 0.0000000000000000e+00  0.0000000000000000e+00 0.0000000000000000e+00 0.0000000000000000e+00  0.0000000000000000e+00 0.0000000000000000e+00 0.0000000000000000e+00  1.5891505159860995e-05 -2.6555071186036208e-04 0.0000000000000000e+00  4.0028804192272789e-05 -2.6622416273240483e-04 0.0000000000000000e+00  0.0000000000000000e+00 0.0000000000000000e+00 0.0000000000000000e+00  0.0000000000000000e+00 0.0000000000000000e+00 0.0000000000000000e+00  0.0000000000000000e+00 0.0000000000000000e+00 0.0000000000000000e+00  0.0000000000000000e+00 0.0000000000000000e+00 0.0000000000000000e+00  2.7667999131426564e-05 -2.6588673451663605e-04 0.0000000000000000e+00  0.0000000000000000e+00 0.0000000000000000e+00 0.0000000000000000e+00  0.0000000000000000e+00 0.0000000000000000e+00 0.0000000000000000e+00  0.0000000000000000e+00 0.0000000000000000e+00 0.0000000000000000e+00  0.0000000000000000e+00 0.0000000000000000e+00 0.0000000000000000e+00  0.0000000000000000e+00 0.0000000000000000e+00 0.0000000000000000e+00  0.0000000000000000e+00 0.0000000000000000e+00 0.0000000000000000e+00  0.0000000000000000e+00 0.0000000000000000e+00 0.0000000000000000e+00  0.0000000000000000e+00 0.0000000000000000e+00 0.0000000000000000e+00  0.0000000000000000e+00 0.0000000000000000e+00 0.0000000000000000e+00  0.0000000000000000e+00 0.0000000000000000e+00 0.0000000000000000e+00  0.0000000000000000e+00 0.0000000000000000e+00 0.0000000000000000e+00  0.0000000000000000e+00 0.0000000000000000e+00 0.0000000000000000e+00  0.0000000000000000e+00 0.0000000000000000e+00 0.0000000000000000e+00  0.0000000000000000e+00 0.0000000000000000e+00 0.0000000000000000e+00  0.0000000000000000e+00 0.0000000000000000e+00 0.0000000000000000e+00  0.0000000000000000e+00 0.0000000000000000e+00 0.0000000000000000e+00  0.0000000000000000e+00 0.0000000000000000e+00 0.0000000000000000e+00  0.0000000000000000e+00 0.0000000000000000e+00 0.0000000000000000e+00  0.0000000000000000e+00 0.0000000000000000e+00 0.0000000000000000e+00  0.0000000000000000e+00 0.0000000000000000e+00 0.0000000000000000e+00  0.0000000000000000e+00 0.0000000000000000e+00 0.0000000000000000e+00  0.0000000000000000e+00 0.0000000000000000e+00 0.0000000000000000e+00  0.0000000000000000e+00 0.0000000000000000e+00 0.0000000000000000e+00  0.0000000000000000e+00 0.0000000000000000e+00 0.0000000000000000e+00  3.7943971964595518e-13 3.5636781752768787e-17 0.0000000000000000e+00  0.0000000000000000e+00 0.0000000000000000e+00 0.0000000000000000e+00  0.0000000000000000e+00 0.0000000000000000e+00 0.0000000000000000e+00  0.0000000000000000e+00 0.0000000000000000e+00 0.0000000000000000e+00  0.0000000000000000e+00 0.0000000000000000e+00 0.0000000000000000e+00  0.0000000000000000e+00 0.0000000000000000e+00 0.0000000000000000e+00  0.0000000000000000e+00 0.0000000000000000e+00 0.0000000000000000e+00  0.0000000000000000e+00 0.0000000000000000e+00 0.0000000000000000e+00  0.0000000000000000e+00 0.0000000000000000e+00 0.0000000000000000e+00  0.0000000000000000e+00 0.0000000000000000e+00 0.0000000000000000e+00  0.0000000000000000e+00 0.0000000000000000e+00 0.0000000000000000e+00  0.0000000000000000e+00 0.0000000000000000e+00 0.0000000000000000e+00  0.0000000000000000e+00 0.0000000000000000e+00 0.0000000000000000e+00  0.0000000000000000e+00 0.0000000000000000e+00 0.0000000000000000e+00  0.0000000000000000e+00 0.0000000000000000e+00 0.0000000000000000e+00  0.0000000000000000e+00 0.0000000000000000e+00 0.0000000000000000e+00  0.0000000000000000e+00 0.0000000000000000e+00 0.0000000000000000e+00  0.0000000000000000e+00 0.0000000000000000e+00 0.0000000000000000e+00  0.0000000000000000e+00 0.0000000000000000e+00 0.0000000000000000e+00  0.0000000000000000e+00 0.0000000000000000e+00 0.0000000000000000e+00  0.0000000000000000e+00 0.0000000000000000e+00 0.0000000000000000e+00  0.0000000000000000e+00 0.0000000000000000e+00 0.0000000000000000e+00  0.0000000000000000e+00 0.0000000000000000e+00 0.0000000000000000e+00  0.0000000000000000e+00 0.0000000000000000e+00 0.0000000000000000e+00  0.0000000000000000e+00 0.0000000000000000e+00 0.0000000000000000e+00  0.0000000000000000e+00 0.0000000000000000e+00 0.0000000000000000e+00  0.0000000000000000e+00 0.0000000000000000e+00 0.0000000000000000e+00  0.0000000000000000e+00 0.0000000000000000e+00 0.0000000000000000e+00  0.0000000000000000e+00 0.0000000000000000e+00 0.0000000000000000e+00  0.0000000000000000e+00 0.0000000000000000e+00 0.0000000000000000e+00  0.0000000000000000e+00 0.0000000000000000e+00 0.0000000000000000e+00  0.0000000000000000e+00 0.0000000000000000e+00 0.0000000000000000e+00  0.0000000000000000e+00 0.0000000000000000e+00 0.0000000000000000e+00  0.0000000000000000e+00 0.0000000000000000e+00 0.0000000000000000e+00  0.0000000000000000e+00 0.0000000000000000e+00 0.0000000000000000e+00  0.0000000000000000e+00 0.0000000000000000e+00 0.0000000000000000e+00  0.0000000000000000e+00 0.0000000000000000e+00 0.0000000000000000e+00  0.0000000000000000e+00 0.0000000000000000e+00 0.0000000000000000e+00  0.0000000000000000e+00 0.0000000000000000e+00 0.0000000000000000e+00  0.0000000000000000e+00 0.0000000000000000e+00 0.0000000000000000e+00  0.0000000000000000e+00 0.0000000000000000e+00 0.0000000000000000e+00  0.0000000000000000e+00 0.0000000000000000e+00 0.0000000000000000e+00  0.0000000000000000e+00 0.0000000000000000e+00 0.0000000000000000e+00  0.0000000000000000e+00 0.0000000000000000e+00 0.0000000000000000e+00  0.0000000000000000e+00 0.0000000000000000e+00 0.0000000000000000e+00  0.0000000000000000e+00 0.0000000000000000e+00 0.0000000000000000e+00  0.0000000000000000e+00 0.0000000000000000e+00 0.0000000000000000e+00  0.0000000000000000e+00 0.0000000000000000e+00 0.0000000000000000e+00  0.0000000000000000e+00 0.0000000000000000e+00 0.0000000000000000e+00  0.0000000000000000e+00 0.0000000000000000e+00 0.0000000000000000e+00  0.0000000000000000e+00 0.0000000000000000e+00 0.0000000000000000e+00  0.0000000000000000e+00 0.0000000000000000e+00 0.0000000000000000e+00  0.0000000000000000e+00 0.0000000000000000e+00 0.0000000000000000e+00  3.7802986848614889e-12 0.0000000000000000e+00 0.0000000000000000e+00  0.0000000000000000e+00 0.0000000000000000e+00 0.0000000000000000e+00  0.0000000000000000e+00 0.0000000000000000e+00 0.0000000000000000e+00  0.0000000000000000e+00 0.0000000000000000e+00 0.0000000000000000e+00  0.0000000000000000e+00 0.0000000000000000e+00 0.0000000000000000e+00  0.0000000000000000e+00 0.0000000000000000e+00 0.0000000000000000e+00  8.1581684930528198e-14 4.7118873216557243e-18 0.0000000000000000e+00  0.0000000000000000e+00 0.0000000000000000e+00 0.0000000000000000e+00  0.0000000000000000e+00 0.0000000000000000e+00 0.0000000000000000e+00  0.0000000000000000e+00 0.0000000000000000e+00 0.0000000000000000e+00  0.0000000000000000e+00 0.0000000000000000e+00 0.0000000000000000e+00  0.0000000000000000e+00 0.0000000000000000e+00 0.0000000000000000e+00  0.0000000000000000e+00 0.0000000000000000e+00 0.0000000000000000e+00  0.0000000000000000e+00 0.0000000000000000e+00 0.0000000000000000e+00  0.0000000000000000e+00 0.0000000000000000e+00 0.0000000000000000e+00  0.0000000000000000e+00 0.0000000000000000e+00 0.0000000000000000e+00  0.0000000000000000e+00 0.0000000000000000e+00 0.0000000000000000e+00  -5.8898311293418140e-14 -2.8621581135395120e-14 0.0000000000000000e+00  0.0000000000000000e+00 0.0000000000000000e+00 0.0000000000000000e+00  0.0000000000000000e+00 0.0000000000000000e+00 0.0000000000000000e+00  0.0000000000000000e+00 0.0000000000000000e+00 0.0000000000000000e+00  0.0000000000000000e+00 0.0000000000000000e+00 0.0000000000000000e+00  -6.1545294949616876e-14 9.9691476485695738e-15 0.0000000000000000e+00  0.0000000000000000e+00 0.0000000000000000e+00 0.0000000000000000e+00  0.0000000000000000e+00 0.0000000000000000e+00 0.0000000000000000e+00  0.0000000000000000e+00 0.0000000000000000e+00 0.0000000000000000e+00  0.0000000000000000e+00 0.0000000000000000e+00 0.0000000000000000e+00  0.0000000000000000e+00 0.0000000000000000e+00 0.0000000000000000e+00  0.0000000000000000e+00 0.0000000000000000e+00 0.0000000000000000e+00  0.0000000000000000e+00 0.0000000000000000e+00 0.0000000000000000e+00  0.0000000000000000e+00 0.0000000000000000e+00 0.0000000000000000e+00  0.0000000000000000e+00 0.0000000000000000e+00 0.0000000000000000e+00  0.0000000000000000e+00 0.0000000000000000e+00 0.0000000000000000e+00  0.0000000000000000e+00 0.0000000000000000e+00 0.0000000000000000e+00  0.0000000000000000e+00 0.0000000000000000e+00 0.0000000000000000e+00  0.0000000000000000e+00 0.0000000000000000e+00 0.0000000000000000e+00  0.0000000000000000e+00 0.0000000000000000e+00 0.0000000000000000e+00  0.0000000000000000e+00 0.0000000000000000e+00 0.0000000000000000e+00  0.0000000000000000e+00 0.0000000000000000e+00 0.0000000000000000e+00  0.0000000000000000e+00 0.0000000000000000e+00 0.0000000000000000e+00  0.0000000000000000e+00 0.0000000000000000e+00 0.0000000000000000e+00  0.0000000000000000e+00 0.0000000000000000e+00 0.0000000000000000e+00  0.0000000000000000e+00 0.0000000000000000e+00 0.0000000000000000e+00  0.0000000000000000e+00 0.0000000000000000e+00 0.0000000000000000e+00  0.0000000000000000e+00 0.0000000000000000e+00 0.0000000000000000e+00  0.0000000000000000e+00 0.0000000000000000e+00 0.0000000000000000e+00  0.0000000000000000e+00 0.0000000000000000e+00 0.0000000000000000e+00  0.0000000000000000e+00 0.0000000000000000e+00 0.0000000000000000e+00  0.0000000000000000e+00 0.0000000000000000e+00 0.0000000000000000e+00  0.0000000000000000e+00 0.0000000000000000e+00 0.0000000000000000e+00  0.0000000000000000e+00 0.0000000000000000e+00 0.0000000000000000e+00  0.0000000000000000e+00 0.0000000000000000e+00 0.0000000000000000e+00  0.0000000000000000e+00 0.0000000000000000e+00 0.0000000000000000e+00  0.0000000000000000e+00 0.0000000000000000e+00 0.0000000000000000e+00  2.3912637213550228e-12 3.9527941023176314e-13 0.0000000000000000e+00  6.9707762360208235e-07 -7.1951533982688119e-07 0.0000000000000000e+00  1.5313186804250293e-06 -7.6175497207789006e-07 0.0000000000000000e+00  2.4789837822477429e-06 -9.0470982363059988e-07 0.0000000000000000e+00  3.5396706286737020e-06 -1.1842839925989766e-06 0.0000000000000000e+00  4.6242078344954160e-06 -1.6891383549517420e-06 0.0000000000000000e+00  5.8226285249165901e-06 -2.4493328835139668e-06 0.0000000000000000e+00  6.9877823705627260e-06 -3.4426679858504803e-06 0.0000000000000000e+00  8.1929638243589287e-06 -4.7745106899851136e-06 0.0000000000000000e+00  9.5072973858185893e-06 -6.3948868571665678e-06 0.0000000000000000e+00  1.0738970823972065e-05 -8.3526712135975819e-06 0.0000000000000000e+00  1.2109191217480821e-05 -1.0661066160650119e-05 0.0000000000000000e+00  1.3364254567704247e-05 -1.3333367320482876e-05 0.0000000000000000e+00  1.4737549025464239e-05 -1.6373717294953022e-05 0.0000000000000000e+00  1.6007230155601084e-05 -1.9734179256142005e-05 0.0000000000000000e+00  1.7278411256707396e-05 -2.3511930294811860e-05 0.0000000000000000e+00  1.8632795451651356e-05 -2.7621754335137609e-05 0.0000000000000000e+00  1.9853299434484668e-05 -3.2087794706082787e-05 0.0000000000000000e+00  2.1174716463884017e-05 -3.6920610593151925e-05 0.0000000000000000e+00  2.2348065357329324e-05 -4.2087650239924017e-05 0.0000000000000000e+00  2.3601449626401679e-05 -4.7589103794522952e-05 0.0000000000000000e+00  2.4736835450239993e-05 -5.3411379077814651e-05 0.0000000000000000e+00  2.5908713719876189e-05 -5.9560708814215248e-05 0.0000000000000000e+00  2.6970290115776117e-05 -6.5953558265874565e-05 0.0000000000000000e+00  2.7998258168004551e-05 -7.2664622705155229e-05 0.0000000000000000e+00  2.9050141950421464e-05 -7.9598852384731204e-05 0.0000000000000000e+00  3.0006034995611840e-05 -8.6786135309249040e-05 0.0000000000000000e+00  3.0937458588572802e-05 -9.4215046254280752e-05 0.0000000000000000e+00  3.1802025900577864e-05 -1.0182469941777876e-04 0.0000000000000000e+00  3.2637063943992468e-05 -1.0964873261348885e-04 0.0000000000000000e+00  3.3407255104128536e-05 -1.1761717454638000e-04 0.0000000000000000e+00  3.4144634812714267e-05 -1.2576618896069380e-04 0.0000000000000000e+00  3.4819955162699382e-05 -1.3402541690040064e-04 0.0000000000000000e+00  3.5460078773978296e-05 -1.4243306085528497e-04 0.0000000000000000e+00  3.6042554531524986e-05 -1.5091952563352551e-04 0.0000000000000000e+00  3.6586925610797012e-05 -1.5952565875777057e-04 0.0000000000000000e+00  3.7078396904989540e-05 -1.6818370775474871e-04 0.0000000000000000e+00  3.7532326900507890e-05 -1.7693435416976953e-04 0.0000000000000000e+00  3.7937654052345615e-05 -1.8571500387157407e-04 0.0000000000000000e+00  3.8305267543209755e-05 -1.9456600388885806e-04 0.0000000000000000e+00  3.8626932346020083e-05 -2.0342819959350591e-04 0.0000000000000000e+00  3.8908041945866574e-05 -2.1233724653357841e-04 0.0000000000000000e+00  3.9152805080159298e-05 -2.2125551099808093e-04 0.0000000000000000e+00  3.9357989620715252e-05 -2.3019581688746117e-04 0.0000000000000000e+00  3.9542732630464171e-05 -2.3914456405604964e-04 0.0000000000000000e+00  3.9684725816336553e-05 -2.4809021074276055e-04 0.0000000000000000e+00  3.9827228048887991e-05 -2.5707719211183152e-04 0.0000000000000000e+00  3.3748753896787780e-05 -2.6605019808731011e-04 0.0000000000000000e+00  2.1693763341596733e-05 -2.6572730914270590e-04 0.0000000000000000e+00  1.5710198421205987e-05 -2.5668385205408376e-04 0.0000000000000000e+00  1.5596555872935827e-05 -2.4765959047492341e-04 0.0000000000000000e+00  1.5480900245554729e-05 -2.3862060090439080e-04 0.0000000000000000e+00  1.5337497907275477e-05 -2.2960581975561264e-04 0.0000000000000000e+00  1.5174968288141591e-05 -2.2060171499340556e-04 0.0000000000000000e+00  1.4983937791392883e-05 -2.1161739354441384e-04 0.0000000000000000e+00  1.4782150997986182e-05 -2.0265874637703601e-04 0.0000000000000000e+00  1.4545548063166211e-05 -1.9371712146901352e-04 0.0000000000000000e+00  1.4303755444484692e-05 -1.8483045686531707e-04 0.0000000000000000e+00  1.4028108033781355e-05 -1.7597117482230976e-04 0.0000000000000000e+00  1.3757765852626685e-05 -1.6718557069840922e-04 0.0000000000000000e+00  1.3450374032665314e-05 -1.5844983547938255e-04 0.0000000000000000e+00  1.3159550840213995e-05 -1.4981030187462361e-04 0.0000000000000000e+00  1.2826677350507887e-05 -1.4124823201919592e-04 0.0000000000000000e+00  1.2523387613002816e-05 -1.3280875241445368e-04 0.0000000000000000e+00  1.2170669198621549e-05 -1.2447712175444386e-04 0.0000000000000000e+00  1.1860848147447531e-05 -1.1629812760805545e-04 0.0000000000000000e+00  1.1493806024830103e-05 -1.0826100173237836e-04 0.0000000000000000e+00  1.1184040629094685e-05 -1.0040922121497244e-04 0.0000000000000000e+00  1.0807897265899425e-05 -9.2735491123584305e-05 0.0000000000000000e+00  1.0504753536742867e-05 -8.5282630768956802e-05 0.0000000000000000e+00  1.0125159022285420e-05 -7.8046812802719950e-05 0.0000000000000000e+00  9.8218306569095888e-06 -7.1066611457327046e-05 0.0000000000000000e+00  9.4561807278066882e-06 -6.4321889949068875e-05 0.0000000000000000e+00  9.0858336595170430e-06 -5.7899758149896428e-05 0.0000000000000000e+00  8.7885077556953243e-06 -5.1715098554605031e-05 0.0000000000000000e+00  8.4374710991649262e-06 -4.5868547629660337e-05 0.0000000000000000e+00  8.1256892305454656e-06 -4.0338952452472291e-05 0.0000000000000000e+00  7.7779216869684617e-06 -3.5147280603376317e-05 0.0000000000000000e+00  7.4629735354062461e-06 -3.0304871228528113e-05 0.0000000000000000e+00  7.1128621217955370e-06 -2.5803458630548524e-05 0.0000000000000000e+00  6.8251450723351135e-06 -2.1707471934978202e-05 0.0000000000000000e+00  6.4496087055910788e-06 -1.7916107193573288e-05 0.0000000000000000e+00  6.0640082914426742e-06 -1.4554717557159063e-05 0.0000000000000000e+00  5.7553948259092799e-06 -1.1491780301922373e-05 0.0000000000000000e+00  5.3796635771539879e-06 -8.8322537805782674e-06 0.0000000000000000e+00  5.0253458708468548e-06 -6.5312013967574954e-06 0.0000000000000000e+00  4.6212377020939102e-06 -4.5673301551004696e-06 0.0000000000000000e+00  4.2524711711425532e-06 -2.9795429552482417e-06 0.0000000000000000e+00  3.7920853078065679e-06 -1.6570356709598524e-06 0.0000000000000000e+00  3.3034279063698843e-06 -6.8166176752168556e-07 0.0000000000000000e+00  2.8512197538294776e-06 6.5456148426407551e-08 0.0000000000000000e+00  2.3141866772703137e-06 5.5771463360461551e-07 0.0000000000000000e+00  1.7779474774351125e-06 8.2463489372381724e-07 0.0000000000000000e+00  1.1810848674479670e-06 9.2128707093350545e-07 0.0000000000000000e+00  6.0209303186627134e-07 8.3463370612326468e-07 0.0000000000000000e+00  9.0580213865889168e-07 1.4253829361609000e-07 0.0000000000000000e+00  2.7743733428013141e-05 -2.5235134106930870e-04 0.0000000000000000e+00  2.7647134559375752e-05 -2.3516240042379487e-04 0.0000000000000000e+00  2.6909594324563501e-05 -2.0717288082730312e-04 0.0000000000000000e+00  2.5227533313129643e-06 -3.5832930411530175e-08 0.0000000000000000e+00  2.6225465177042713e-05 -1.8967302285990081e-04 0.0000000000000000e+00  4.0707531775211810e-06 -9.1720175023673626e-07 0.0000000000000000e+00  2.5552483603881758e-05 -1.7201914992383350e-04 0.0000000000000000e+00  6.6367647895886962e-06 -4.4803386757259029e-06 0.0000000000000000e+00  8.3029796767215648e-06 -8.3276311523367049e-06 0.0000000000000000e+00  2.4763953578293954e-05 -1.5460800121590388e-04 0.0000000000000000e+00  1.2399724817288840e-05 -2.4538911257902040e-05 0.0000000000000000e+00  2.2852423413141243e-05 -1.2092484316507595e-04 0.0000000000000000e+00  9.8524042945480943e-06 -1.3390663970787367e-05 0.0000000000000000e+00  1.4044674994626660e-05 -3.3348264805022460e-05 0.0000000000000000e+00  2.1737542865347448e-05 -1.0489499944063269e-04 0.0000000000000000e+00  2.3862776028742741e-05 -1.3753832212666682e-04 0.0000000000000000e+00  1.5603801202904287e-05 -4.3717075464522254e-05 0.0000000000000000e+00  2.0522493285060566e-05 -8.9587867450571275e-05 0.0000000000000000e+00  1.6939249183747768e-05 -5.4895692547131373e-05 0.0000000000000000e+00  1.9365929234430581e-05 -7.5444568919726940e-05 0.0000000000000000e+00  1.8114508895714779e-05 -6.4467737072017845e-05 0.0000000000000000e+00  1.1145241798582104e-05 -1.8344850183862909e-05 0.0000000000000000e+00  2.7101381721637240e-05 -2.2170311878829448e-04 0.0000000000000000e+00  5.3162585802435697e-06 -2.3215371821648192e-06 0.0000000000000000e+00  2.3491330310693473e-05 -2.4361613633080921e-04 0.0000000000000000e+00  1.6019304840683275e-06 4.3465056314057615e-07 0.0000000000000000e+00  2.2478811692434319e-05 -1.8069205966799042e-04 0.0000000000000000e+00  2.3059936073311468e-05 -1.9845023858492910e-04 0.0000000000000000e+00  3.5911099364613279e-06 -7.2176908556860210e-07 0.0000000000000000e+00  8.2460963538170593e-06 -6.4975912076967390e-06 0.0000000000000000e+00  2.0155404846806130e-05 -1.2899693355463749e-04 0.0000000000000000e+00  2.1797511834383678e-05 -1.6313380126927748e-04 0.0000000000000000e+00  1.4991267566435516e-05 -2.8974914680880016e-05 0.0000000000000000e+00  1.9207262046747749e-05 -1.1264682057423479e-04 0.0000000000000000e+00  1.0174277974208594e-05 -1.1102961442425961e-05 0.0000000000000000e+00  1.6836559831859533e-05 -3.8649018574412782e-05 0.0000000000000000e+00  1.8183100804951888e-05 -9.6949365250411035e-05 0.0000000000000000e+00  2.1020913788494547e-05 -1.4586619424423306e-04 0.0000000000000000e+00  1.9104302830868606e-05 -4.9674303136242967e-05 0.0000000000000000e+00  1.7086809185241198e-05 -8.2047798565105504e-05 0.0000000000000000e+00  3.5495419231356789e-07 -1.1302219445254263e-07 0.0000000000000000e+00  3.1384172985624722e-07 2.5887658957131945e-07 0.0000000000000000e+00  3.0563755403268243e-05 -2.5948359045237842e-04 0.0000000000000000e+00  1.8224617209265496e-06 -2.4442517072978477e-07 0.0000000000000000e+00  1.544933920