<?xml version="1.0"?>
<VTKFile type="UnstructuredGrid"  version="0.1"  >
<UnstructuredGrid>
<Piece  NumberOfPoints="1419" NumberOfCells="2698">
<Points>
<DataArray  type="Float64"  NumberOfComponents="3"  format="ascii">0 0 0  0 0.41 0  2.5 0 0  2.5 0.41 0  0.6 0.19 0  0.6 0.21 0  0.25 0.2 0  0.15 0.2 0  0.2489897948556636 0.21 0  0.2489897948556636 0.19 0  0.6 0.2 0  0 0.3807142857143437 0  0 0.3514285714286952 0  0 0.3221428571430699 0  0 0.29285714285744 0  0 0.2635714285718054 0  0 0.2342857142861561 0  0 0.2050000000005308 0  0 0.175714285714732 0  0 0.1464285714289574 0  0 0.1171428571431897 0  0 0.08785714285737878 0  0 0.05857142857161107 0  0 0.02928571428580012 0  0.03015443760436003 0 0  0.06140001986583606 0 0  0.09377624077125973 0 0  0.1273239957535082 0 0  0.1620856860351972 0 0  0.1981052433264291 0 0  0.235428184091502 0 0  0.2741016576309132 0 0  0.3141745521465447 0 0  0.3556974926295285 0 0  0.3987229542472677 0 0  0.4433053055141081 0 0  0.4895008759286886 0 0  0.5373680609405097 0 0  0.5869673343216626 0 0  0.6383613676634521 0 0  0.6916151138468254 0 0  0.7467958595648856 0 0  0.8039733463919316 0 0  0.8632198139502143 0 0  0.9246101326867038 0 0  0.9882218810934433 0 0  1.054135445558498 0 0  1.122434100542598 0 0  1.193204177141305 0 0  1.266535089879536 0 0  1.342519516046404 0 0  1.421253448503939 0 0  1.502836389106271 0 0  1.587371439758838 0 0  1.674965418777374 0 0  1.765729001825544 0 0  1.859776908880082 0 0  1.957227977487062 0 0  2.058205329869943 0 0  2.162836591189951 0 0  2.271253957290865 0 0  2.383594446803425 0 0  2.5 0.1024999999997612 0  2.5 0.2049999999994743 0  2.5 0.3074999999997183 0  2.383594446803656 0.41 0  2.271253957291315 0.41 0  2.162836591190598 0.41 0  2.058205329870775 0.41 0  1.957227977488067 0.41 0  1.859776908881246 0.41 0  1.765729001826854 0.41 0  1.674965418778818 0.41 0  1.58737143976041 0.41 0  1.502836389107956 0.41 0  1.421253448505726 0.41 0  1.342519516048286 0.41 0  1.266535089881505 0.41 0  1.193204177143353 0.41 0  1.122434100544716 0.41 0  1.05413544556068 0.41 0  0.9882218810956305 0.41 0  0.9246101326886647 0.41 0  0.8632198139519631 0.41 0  0.8039733463934788 0.41 0  0.7467958595662458 0.41 0  0.6916151138480078 0.41 0  0.6383613676644679 0.41 0  0.5869673343225223 0.41 0  0.5373680609412221 0.41 0  0.4895008759292634 0.41 0  0.4433053055145528 0.41 0  0.3987229542475914 0.41 0  0.3556974926297398 0.41 0  0.3141745521466497 0.41 0  0.2741016576310038 0.41 0  0.2354281840915826 0.41 0  0.1981052433265003 0.41 0  0.1620856860352591 0.41 0  0.1273239957535623 0.41 0  0.09377624077128965 0.41 0  0.06140001986584975 0.41 0  0.03015443760436654 0.41 0  0.2497468076502589 0.2050254481002335 0  0.2497468076502614 0.1949745518997913 0  0.2469965252529372 0.1829317073451959 0  0.2439893735792749 0.1762316384219906 0  0.2400332147834255 0.1700443375285386 0  0.2352133972704371 0.1645032867342007 0  0.2296339016332438 0.1597280261969788 0  0.2234150974217223 0.1558215752574715 0  0.2166911463437691 0.1528682099456123 0  0.2096071079204251 0.1509316448471593 0  0.2023158100364996 0.1500536585536553 0  0.194974551899914 0.1502531923497262 0  0.1877417105387872 0.1515259415822739 0  0.1807733240461124 0.153844448527136 0  0.1742197252835808 0.15715869474974 0  0.1682222986673531 0.1613971801805478 0  0.162910430003803 0.1664684656256651 0  0.1583987151779087 0.1722631454351573 0  0.1547844879126891 0.178656207771761 0  0.1521457199348551 0.1855097315605723 0  0.1505393388476355 0.1926758619366523 0  0.1505393388476328 0.2073241380633295 0  0.1521457199348437 0.2144902684393899 0  0.1547844879126531 0.221343792228163 0  0.1583987151778488 0.2277368545647528 0  0.1629104300036858 0.2335315343742052 0  0.1682222986671726 0.2386028198193036 0  0.1742197252833576 0.2428413052501257 0  0.1807733240458683 0.2461555514727623 0  0.1877417105384929 0.2484740584176516 0  0.1949745518995776 0.2497468076502398 0  0.202315810036185 0.2499463414463592 0  0.2096071079201568 0.2490683551528932 0  0.2166911463435495 0.2471317900544655 0  0.2234150974215506 0.2441784247426195 0  0.2296339016331197 0.2402719738031125 0  0.2352133972703547 0.2354967132658811 0  0.2400332147833751 0.2299556624715287 0  0.2439893735792577 0.2237683615780412 0  0.246996525252926 0.2170682926548348 0  0.25645809709277 0.21 0  0.2639263993298655 0.21 0  0.271394701566961 0.21 0  0.2788630038040554 0.21 0  0.2863313060411479 0.21 0  0.2937996082782405 0.21 0  0.301267910515333 0.21 0  0.3087362127524279 0.21 0  0.3162045149895234 0.21 0  0.3236728172265972 0.21 0  0.3311411194636928 0.21 0  0.3386094217007701 0.21 0  0.3460777239378666 0.21 0  0.3535460261749672 0.21 0  0.3610143284120516 0.21 0  0.3684826306491596 0.21 0  0.3759509328862226 0.21 0  0.383419235123329 0.21 0  0.3908875373604028 0.21 0  0.3983558395975142 0.21 0  0.4058241418345938 0.21 0  0.4132924440716992 0.21 0  0.4207607463087888 0.21 0  0.4282290485459029 0.21 0  0.4356973507830418 0.21 0  0.4431656530201649 0.21 0  0.4506339552573136 0.21 0  0.4581022574944306 0.21 0  0.4655705597315852 0.21 0  0.4730388619686996 0.21 0  0.480507164205851 0.21 0  0.4879754664429498 0.21 0  0.4954437686800938 0.21 0  0.502912070917267 0.21 0  0.5103803731544119 0.21 0  0.5178486753915261 0.21 0  0.5253169776286404 0.21 0  0.5327852798657868 0.21 0  0.5402535821029386 0.21 0  0.54772188434007 0.21 0  0.5551901865771842 0.21 0  0.5626584888143201 0.21 0  0.5701267910514778 0.21 0  0.5775950932886138 0.21 0  0.5850633955257281 0.21 0  0.5925316977628483 0.21 0  0.6 0.2050000000000054 0  0.6 0.1950000000000217 0  0.5925316977628897 0.19 0  0.5850633955257988 0.19 0  0.5775950932887378 0.19 0  0.5701267910515998 0.19 0  0.5626584888145268 0.19 0  0.5551901865773963 0.19 0  0.547721884340339 0.19 0  0.5402535821032429 0.19 0  0.5327852798661811 0.19 0  0.5253169776290537 0.19 0  0.5178486753919799 0.19 0  0.5103803731549078 0.19 0  0.502912070917822 0.19 0  0.4954437686807294 0.19 0  0.4879754664436223 0.19 0  0.4805071642065402 0.19 0  0.4730388619694271 0.19 0  0.4655705597323621 0.19 0  0.4581022574952563 0.19 0  0.4506339552581777 0.19 0  0.4431656530210671 0.19 0  0.4356973507839815 0.19 0  0.4282290485468779 0.19 0  0.4207607463097617 0.19 0  0.4132924440726327 0.19 0  0.4058241418354857 0.19 0  0.3983558395983636 0.19 0  0.3908875373612097 0.19 0  0.3834192351240934 0.19 0  0.3759509328869369 0.19 0  0.3684826306498175 0.19 0  0.361014328412667 0.19 0  0.3535460261755617 0.19 0  0.3460777239384295 0.19 0  0.3386094217012945 0.19 0  0.3311411194641595 0.19 0  0.3236728172270245 0.19 0  0.3162045149898895 0.19 0  0.3087362127527544 0.19 0  0.3012679105156187 0.19 0  0.2937996082784807 0.19 0  0.2863313060413428 0.19 0  0.2788630038042048 0.19 0  0.2713947015670686 0.19 0  0.2639263993299336 0.19 0  0.2564580970927985 0.19 0  0.2607803159922026 0.2000727136295815 0  0.5887803774232762 0.2001272386983733 0  0.5745072403740523 0.2002044435018727 0  0.5511891430099709 0.2001122610077113 0  0.2751288526855082 0.20000000000002 0  0.5365194309847112 0.1999999999999436 0  0.2894621222999649 0.1998691686390484 0  0.5215828265105155 0.1999999999999228 0  0.3127789816668748 0.1998657885438805 0  0.3274069683451451 0.2000000000000796 0  0.5066462220363641 0.199999999999908 0  0.3650630746574081 0.199866017807523 0  0.476773013087985 0.1999999999998713 0  0.3417402379596385 0.1998691686391011 0  0.3796850840047755 0.200000000000134 0  0.4618364086138087 0.1999999999998546 0  0.4917096175621762 0.1999999999998808 0  0.3946216884789568 0.2000000000001512 0  0.446899804139621 0.1999999999998389 0  0.4089549580935208 0.1998691686391595 0  0.4322718174608562 0.200127451265745 0  0.4201487168029707 0.1999966199048527 0  0.3528922713220932 0.2000185703532356 0  0.5633122436674589 0.1999814296467508 0  0.3006558810093873 0.1999966199048318 0  0.5815926498168407 0.1966545283159175 0  0.2677053789419034 0.1964246479135325 0  0.5290511287476175 0.1970915826863981 0  0.5439877332217911 0.197091582686394 0  0.2825131256993216 0.2035478995978015 0  0.3199386661080599 0.202908417313604 0  0.4842413153250809 0.1970915826863873 0  0.5141145242734466 0.1970915826863843 0  0.3722167817676917 0.2029084173136195 0  0.4693047108508938 0.1970915826863783 0  0.3348752705822316 0.202908417313609 0  0.3871533862418661 0.2029084173136212 0  0.4543681063767183 0.1970915826863795 0  0.4991779197992749 0.1970915826863902 0  0.4020059614928624 0.203547899597858 0  0.4394315019025246 0.1970915826863714 0  0.2550657455369551 0.2034088125358657 0  0.2548908499171161 0.1966940311614271 0  0.5946539510196798 0.2024302972968126 0  0.267698176732111 0.2039977513680092 0  0.4261685417851465 0.196409292431739 0  0.3590076176283495 0.196411355804271 0  0.5571672426447437 0.2036011176410121 0  0.3066757059912147 0.1964092924317024 0  0.594380730180568 0.1966558399668133 0  0.4842413153245942 0.2040749161535287 0  0.4693047108503577 0.2040749161535231 0  0.3871533862424271 0.1959250838464788 0  0.372246743208829 0.1959123236376545 0  0.5141145242731028 0.2040749161535395 0  0.4543681063761134 0.2040749161535186 0  0.4019979587101454 0.1959834479682427 0  0.4394608940728603 0.2040870543693135 0  0.5439623148931173 0.2040856076781014 0  0.5290511287473298 0.2040749161535501 0  0.4991779197988497 0.2040749161535382 0  0.3347912413592433 0.1959225448935183 0  0.3199680582793816 0.1959123018030061 0  0.2825051229162361 0.1959834479681729 0  0.3590471196690275 0.2036304442587945 0  0.5571594006495384 0.1963685282145804 0  0.3067669986803285 0.203627750582736 0  0.4262598344738712 0.2036568242185335 0  0.5814408164431408 0.2041285596160068 0  0.5688286748170428 0.1961819304477386 0  0.4145905603063645 0.2038180695522843 0  0.3473758401724931 0.2038180695522752 0  0.2950977245128307 0.2038180695522663 0  0.5688286748170693 0.203818069552238 0  0.2950977245127906 0.1961819304477774 0  0.3473758401723931 0.1961819304478349 0  0.4145905603061963 0.1961819304479011 0  0.2601812407614425 0.2056861609747042
[...]
<PointData  Vectors="f_46-2"> 
<DataArray  type="Float64"  Name="f_46-2"  NumberOfComponents="3" format="ascii">0.0000000000000000e+00 0.0000000000000000e+00 0.0000000000000000e+00  0.0000000000000000e+00 0.0000000000000000e+00 0.0000000000000000e+00  0.0000000000000000e+00 0.0000000000000000e+00 0.0000000000000000e+00  0.0000000000000000e+00 0.0000000000000000e+00 0.0000000000000000e+00  3.1035189719118335e-05 2.1535438276614068e-04 0.0000000000000000e+00  1.9751181047138227e-05 2.1470516794294990e-04 0.0000000000000000e+00  0.0000000000000000e+00 0.0000000000000000e+00 0.0000000000000000e+00  0.0000000000000000e+00 0.0000000000000000e+00 0.0000000000000000e+00  0.0000000000000000e+00 0.0000000000000000e+00 0.0000000000000000e+00  0.0000000000000000e+00 0.0000000000000000e+00 0.0000000000000000e+00  2.5103871779279689e-05 2.1502855739046061e-04 0.0000000000000000e+00  0.0000000000000000e+00 0.0000000000000000e+00 0.0000000000000000e+00  0.0000000000000000e+00 0.0000000000000000e+00 0.0000000000000000e+00  0.0000000000000000e+00 0.0000000000000000e+00 0.0000000000000000e+00  0.0000000000000000e+00 0.0000000000000000e+00 0.0000000000000000e+00  0.0000000000000000e+00 0.0000000000000000e+00 0.0000000000000000e+00  0.0000000000000000e+00 0.0000000000000000e+00 0.0000000000000000e+00  0.0000000000000000e+00 0.0000000000000000e+00 0.0000000000000000e+00  0.0000000000000000e+00 0.0000000000000000e+00 0.0000000000000000e+00  0.0000000000000000e+00 0.0000000000000000e+00 0.0000000000000000e+00  0.0000000000000000e+00 0.0000000000000000e+00 0.0000000000000000e+00  0.0000000000000000e+00 0.0000000000000000e+00 0.0000000000000000e+00  0.0000000000000000e+00 0.0000000000000000e+00 0.0000000000000000e+00  0.0000000000000000e+00 0.0000000000000000e+00 0.0000000000000000e+00  0.0000000000000000e+00 0.0000000000000000e+00 0.0000000000000000e+00  0.0000000000000000e+00 0.0000000000000000e+00 0.0000000000000000e+00  0.0000000000000000e+00 0.0000000000000000e+00 0.0000000000000000e+00  0.0000000000000000e+00 0.0000000000000000e+00 0.0000000000000000e+00  0.0000000000000000e+00 0.0000000000000000e+00 0.0000000000000000e+00  0.0000000000000000e+00 0.0000000000000000e+00 0.0000000000000000e+00  0.0000000000000000e+00 0.0000000000000000e+00 0.0000000000000000e+00  0.0000000000000000e+00 0.0000000000000000e+00 0.0000000000000000e+00  0.0000000000000000e+00 0.0000000000000000e+00 0.0000000000000000e+00  0.0000000000000000e+00 0.0000000000000000e+00 0.0000000000000000e+00  0.0000000000000000e+00 0.0000000000000000e+00 0.0000000000000000e+00  4.2343532320757263e-14 2.3641199875743351e-17 0.0000000000000000e+00  0.0000000000000000e+00 0.0000000000000000e+00 0.0000000000000000e+00  0.0000000000000000e+00 0.0000000000000000e+00 0.0000000000000000e+00  0.0000000000000000e+00 0.0000000000000000e+00 0.0000000000000000e+00  0.0000000000000000e+00 0.0000000000000000e+00 0.0000000000000000e+00  0.0000000000000000e+00 0.0000000000000000e+00 0.0000000000000000e+00  0.0000000000000000e+00 0.0000000000000000e+00 0.0000000000000000e+00  0.0000000000000000e+00 0.0000000000000000e+00 0.0000000000000000e+00  0.0000000000000000e+00 0.0000000000000000e+00 0.0000000000000000e+00  0.0000000000000000e+00 0.0000000000000000e+00 0.0000000000000000e+00  0.0000000000000000e+00 0.0000000000000000e+00 0.0000000000000000e+00  0.0000000000000000e+00 0.0000000000000000e+00 0.0000000000000000e+00  0.0000000000000000e+00 0.0000000000000000e+00 0.0000000000000000e+00  0.0000000000000000e+00 0.0000000000000000e+00 0.0000000000000000e+00  0.0000000000000000e+00 0.0000000000000000e+00 0.0000000000000000e+00  0.0000000000000000e+00 0.0000000000000000e+00 0.0000000000000000e+00  0.0000000000000000e+00 0.0000000000000000e+00 0.0000000000000000e+00  0.0000000000000000e+00 0.0000000000000000e+00 0.0000000000000000e+00  0.0000000000000000e+00 0.0000000000000000e+00 0.0000000000000000e+00  0.0000000000000000e+00 0.0000000000000000e+00 0.0000000000000000e+00  0.0000000000000000e+00 0.0000000000000000e+00 0.0000000000000000e+00  0.0000000000000000e+00 0.0000000000000000e+00 0.0000000000000000e+00  0.0000000000000000e+00 0.0000000000000000e+00 0.0000000000000000e+00  0.0000000000000000e+00 0.0000000000000000e+00 0.0000000000000000e+00  0.0000000000000000e+00 0.0000000000000000e+00 0.0000000000000000e+00  0.0000000000000000e+00 0.0000000000000000e+00 0.0000000000000000e+00  0.0000000000000000e+00 0.0000000000000000e+00 0.0000000000000000e+00  0.0000000000000000e+00 0.0000000000000000e+00 0.0000000000000000e+00  0.0000000000000000e+00 0.0000000000000000e+00 0.0000000000000000e+00  0.0000000000000000e+00 0.0000000000000000e+00 0.0000000000000000e+00  0.0000000000000000e+00 0.0000000000000000e+00 0.0000000000000000e+00  0.0000000000000000e+00 0.0000000000000000e+00 0.0000000000000000e+00  0.0000000000000000e+00 0.0000000000000000e+00 0.0000000000000000e+00  0.0000000000000000e+00 0.0000000000000000e+00 0.0000000000000000e+00  0.0000000000000000e+00 0.0000000000000000e+00 0.0000000000000000e+00  0.0000000000000000e+00 0.0000000000000000e+00 0.0000000000000000e+00  0.0000000000000000e+00 0.0000000000000000e+00 0.0000000000000000e+00  0.0000000000000000e+00 0.0000000000000000e+00 0.0000000000000000e+00  0.0000000000000000e+00 0.0000000000000000e+00 0.0000000000000000e+00  0.0000000000000000e+00 0.0000000000000000e+00 0.0000000000000000e+00  0.0000000000000000e+00 0.0000000000000000e+00 0.0000000000000000e+00  0.0000000000000000e+00 0.0000000000000000e+00 0.0000000000000000e+00  0.0000000000000000e+00 0.0000000000000000e+00 0.0000000000000000e+00  0.0000000000000000e+00 0.0000000000000000e+00 0.0000000000000000e+00  0.0000000000000000e+00 0.0000000000000000e+00 0.0000000000000000e+00  0.0000000000000000e+00 0.0000000000000000e+00 0.0000000000000000e+00  0.0000000000000000e+00 0.0000000000000000e+00 0.0000000000000000e+00  0.0000000000000000e+00 0.0000000000000000e+00 0.0000000000000000e+00  0.0000000000000000e+00 0.0000000000000000e+00 0.0000000000000000e+00  0.0000000000000000e+00 0.0000000000000000e+00 0.0000000000000000e+00  0.0000000000000000e+00 0.0000000000000000e+00 0.0000000000000000e+00  0.0000000000000000e+00 0.0000000000000000e+00 0.0000000000000000e+00  0.0000000000000000e+00 0.0000000000000000e+00 0.0000000000000000e+00  -1.4119415057618439e-12 0.0000000000000000e+00 0.0000000000000000e+00  0.0000000000000000e+00 0.0000000000000000e+00 0.0000000000000000e+00  0.0000000000000000e+00 0.0000000000000000e+00 0.0000000000000000e+00  0.0000000000000000e+00 0.0000000000000000e+00 0.0000000000000000e+00  0.0000000000000000e+00 0.0000000000000000e+00 0.0000000000000000e+00  0.0000000000000000e+00 0.0000000000000000e+00 0.0000000000000000e+00  1.8709251924026935e-12 -2.2775939405669477e-17 0.0000000000000000e+00  0.0000000000000000e+00 0.0000000000000000e+00 0.0000000000000000e+00  0.0000000000000000e+00 0.0000000000000000e+00 0.0000000000000000e+00  0.0000000000000000e+00 0.0000000000000000e+00 0.0000000000000000e+00  0.0000000000000000e+00 0.0000000000000000e+00 0.0000000000000000e+00  0.0000000000000000e+00 0.0000000000000000e+00 0.0000000000000000e+00  0.0000000000000000e+00 0.0000000000000000e+00 0.0000000000000000e+00  0.0000000000000000e+00 0.0000000000000000e+00 0.0000000000000000e+00  0.0000000000000000e+00 0.0000000000000000e+00 0.0000000000000000e+00  0.0000000000000000e+00 0.0000000000000000e+00 0.0000000000000000e+00  0.0000000000000000e+00 0.0000000000000000e+00 0.0000000000000000e+00  -2.5545216936615512e-13 1.8291501539277086e-14 0.0000000000000000e+00  0.0000000000000000e+00 0.0000000000000000e+00 0.0000000000000000e+00  0.0000000000000000e+00 0.0000000000000000e+00 0.0000000000000000e+00  0.0000000000000000e+00 0.0000000000000000e+00 0.0000000000000000e+00  0.0000000000000000e+00 0.0000000000000000e+00 0.0000000000000000e+00  1.0459051219040955e-13 7.7331805567483823e-14 0.0000000000000000e+00  0.0000000000000000e+00 0.0000000000000000e+00 0.0000000000000000e+00  0.0000000000000000e+00 0.0000000000000000e+00 0.0000000000000000e+00  0.0000000000000000e+00 0.0000000000000000e+00 0.0000000000000000e+00  0.0000000000000000e+00 0.0000000000000000e+00 0.0000000000000000e+00  0.0000000000000000e+00 0.0000000000000000e+00 0.0000000000000000e+00  0.0000000000000000e+00 0.0000000000000000e+00 0.0000000000000000e+00  0.0000000000000000e+00 0.0000000000000000e+00 0.0000000000000000e+00  0.0000000000000000e+00 0.0000000000000000e+00 0.0000000000000000e+00  0.0000000000000000e+00 0.0000000000000000e+00 0.0000000000000000e+00  0.0000000000000000e+00 0.0000000000000000e+00 0.0000000000000000e+00  0.0000000000000000e+00 0.0000000000000000e+00 0.0000000000000000e+00  0.0000000000000000e+00 0.0000000000000000e+00 0.0000000000000000e+00  0.0000000000000000e+00 0.0000000000000000e+00 0.0000000000000000e+00  0.0000000000000000e+00 0.0000000000000000e+00 0.0000000000000000e+00  0.0000000000000000e+00 0.0000000000000000e+00 0.0000000000000000e+00  0.0000000000000000e+00 0.0000000000000000e+00 0.0000000000000000e+00  0.0000000000000000e+00 0.0000000000000000e+00 0.0000000000000000e+00  0.0000000000000000e+00 0.0000000000000000e+00 0.0000000000000000e+00  0.0000000000000000e+00 0.0000000000000000e+00 0.0000000000000000e+00  0.0000000000000000e+00 0.0000000000000000e+00 0.0000000000000000e+00  0.0000000000000000e+00 0.0000000000000000e+00 0.0000000000000000e+00  0.0000000000000000e+00 0.0000000000000000e+00 0.0000000000000000e+00  0.0000000000000000e+00 0.0000000000000000e+00 0.0000000000000000e+00  0.0000000000000000e+00 0.0000000000000000e+00 0.0000000000000000e+00  0.0000000000000000e+00 0.0000000000000000e+00 0.0000000000000000e+00  0.0000000000000000e+00 0.0000000000000000e+00 0.0000000000000000e+00  0.0000000000000000e+00 0.0000000000000000e+00 0.0000000000000000e+00  0.0000000000000000e+00 0.0000000000000000e+00 0.0000000000000000e+00  0.0000000000000000e+00 0.0000000000000000e+00 0.0000000000000000e+00  0.0000000000000000e+00 0.0000000000000000e+00 0.0000000000000000e+00  0.0000000000000000e+00 0.0000000000000000e+00 0.0000000000000000e+00  1.8201997405854710e-12 8.7032416914981223e-13 0.0000000000000000e+00  -4.5771576007168940e-07 2.4750158315968502e-07 0.0000000000000000e+00  -9.1799757904517464e-07 1.5391872385120186e-06 0.0000000000000000e+00  -1.1051320214913651e-06 3.5591505487237121e-06 0.0000000000000000e+00  -1.2583879578211450e-06 6.3154068063294010e-06 0.0000000000000000e+00  -1.1820673913223626e-06 9.5656274919117779e-06 0.0000000000000000e+00  -1.1135194566761208e-06 1.3344082298254753e-05 0.0000000000000000e+00  -8.5390127555761943e-07 1.7462762820295069e-05 0.0000000000000000e+00  -5.1983398822482968e-07 2.1991977140998313e-05 0.0000000000000000e+00  -1.9362782833141880e-07 2.6793929084243759e-05 0.0000000000000000e+00  2.8590400500224862e-07 3.1838072885612370e-05 0.0000000000000000e+00  7.5259101480952603e-07 3.7095975099444958e-05 0.0000000000000000e+00  1.3290251700613626e-06 4.2503470207003646e-05 0.0000000000000000e+00  1.9138556933808981e-06 4.8035107868610694e-05 0.0000000000000000e+00  2.5580408153134236e-06 5.3640189350707905e-05 0.0000000000000000e+00  3.2304896284339078e-06 5.9311042161687216e-05 0.0000000000000000e+00  3.9191727635267529e-06 6.5008473724518080e-05 0.0000000000000000e+00  4.6330225527551426e-06 7.0714787699102411e-05 0.0000000000000000e+00  5.3651757816830601e-06 7.6406361410860223e-05 0.0000000000000000e+00  6.0980490332815235e-06 8.2070831381832307e-05 0.0000000000000000e+00  6.8498456069206347e-06 8.7687952590739134e-05 0.0000000000000000e+00  7.5893239468863054e-06 9.3252141024440289e-05 0.0000000000000000e+00  8.3411177212688481e-06 9.8744051906158071e-05 0.0000000000000000e+00  9.0693740098205106e-06 1.0417393466656533e-04 0.0000000000000000e+00  9.7895018600902645e-06 1.0951478941162095e-04 0.0000000000000000e+00  1.0518844089374970e-05 1.1478328660288804e-04 0.0000000000000000e+00  1.1215904986795045e-05 1.1996754827335422e-04 0.0000000000000000e+00  1.1902366964729082e-05 1.2505576237870593e-04 0.0000000000000000e+00  1.2560902548995042e-05 1.3007328765588636e-04 0.0000000000000000e+00  1.3205206760365303e-05 1.3499362572705668e-04 0.0000000000000000e+00  1.3817313736420723e-05 1.3984980884927030e-04 0.0000000000000000e+00  1.4411547986514723e-05 1.4461333987373748e-04 0.0000000000000000e+00  1.4970686070692572e-05 1.4932220430305431e-04 0.0000000000000000e+00  1.5508271008766482e-05 1.5394588412187131e-04 0.0000000000000000e+00  1.6009988701740266e-05 1.5852686523660576e-04 0.0000000000000000e+00  1.6485540863990634e-05 1.6303173454063752e-04 0.0000000000000000e+00  1.6924281706666260e-05 1.6750667844583713e-04 0.0000000000000000e+00  1.7335217568560250e-05 1.7191719768822679e-04 0.0000000000000000e+00  1.7709188575025735e-05 1.7630975281320639e-04 0.0000000000000000e+00  1.8053287439001889e-05 1.8064920352585796e-04 0.0000000000000000e+00  1.8359101880012139e-05 1.8498348511460436e-04 0.0000000000000000e+00  1.8629653182159338e-05 1.8928068594615218e-04 0.0000000000000000e+00  1.8868864684164361e-05 1.9357164092154410e-04 0.0000000000000000e+00  1.9072132647454252e-05 1.9784588284394477e-04 0.0000000000000000e+00  1.9256197549417617e-05 2.0211429883357796e-04 0.0000000000000000e+00  1.9400262123343952e-05 2.0638842886266416e-04 0.0000000000000000e+00  1.9546160120845513e-05 2.1062441597264443e-04 0.0000000000000000e+00  2.2329969599651716e-05 2.1487155428805612e-04 0.0000000000000000e+00  2.7983245821483418e-05 2.1518228697792183e-04 0.0000000000000000e+00  3.0845243526398659e-05 2.1099494763088353e-04 0.0000000000000000e+00  3.0722080997708583e-05 2.0679513386593948e-04 0.0000000000000000e+00  3.0597725879176650e-05 2.0261139255819559e-04 0.0000000000000000e+00  3.0445275876731694e-05 1.9840605916003680e-04 0.0000000000000000e+00  3.0274862191451652e-05 1.9419206380825635e-04 0.0000000000000000e+00  3.0076435686000286e-05 1.8996228289503862e-04 0.0000000000000000e+00  2.9864956095057299e-05 1.8571078851269615e-04 0.0000000000000000e+00  2.9621418408099295e-05 1.8144823373852765e-04 0.0000000000000000e+00  2.9367081382586290e-05 1.7714045825224293e-04 0.0000000000000000e+00  2.9082410368041113e-05 1.7281686855830029e-04 0.0000000000000000e+00  2.8792789954448133e-05 1.6843669106142428e-04 0.0000000000000000e+00  2.8471405591193154e-05 1.6402780365308353e-04 0.0000000000000000e+00  2.8150443733815930e-05 1.5955127572396318e-04 0.0000000000000000e+00  2.7794902067804794e-05 1.5503293539568879e-04 0.0000000000000000e+00  2.7444324239237239e-05 1.5043597402330782e-04 0.0000000000000000e+00  2.7055402051116884e-05 1.4578595489884099e-04 0.0000000000000000e+00  2.6674578769594055e-05 1.4104756011365486e-04 0.0000000000000000e+00  2.6252629299465919e-05 1.3624628101297054e-04 0.0000000000000000e+00  2.5841129676310392e-05 1.3134932091215512e-04 0.0000000000000000e+00  2.5385606073007612e-05 1.2638267723386049e-04 0.0000000000000000e+00  2.4940741211067955e-05 1.2131552305409335e-04 0.0000000000000000e+00  2.4449522501747827e-05 1.1617492108922147e-04 0.0000000000000000e+00  2.3960768316810175e-05 1.1093793615557625e-04 0.0000000000000000e+00  2.3434595168510453e-05 1.0562801600705327e-04 0.0000000000000000e+00  2.2884458580625113e-05 1.0022554485167748e-04 0.0000000000000000e+00  2.2332551300081374e-05 9.4759755600269763e-05 0.0000000000000000e+00  2.1738865105503873e-05 8.9226993340870133e-05 0.0000000000000000e+00  2.1123712881783079e-05 8.3624229813077000e-05 0.0000000000000000e+00  2.0473477539737705e-05 7.7989598686647107e-05 0.0000000000000000e+00  1.9792773521884691e-05 7.2306217905894753e-05 0.0000000000000000e+00  1.9077223276892967e-05 6.6622132564067091e-05 0.0000000000000000e+00  1.8313467856765667e-05 6.0936319071655369e-05 0.0000000000000000e+00  1.7523358151321112e-05 5.5276201965472894e-05 0.0000000000000000e+00  1.6693065787758851e-05 4.9681256553777592e-05 0.0000000000000000e+00  1.5800765066342979e-05 4.4144541701931849e-05 0.0000000000000000e+00  1.4869599567006631e-05 3.8747022228748356e-05 0.0000000000000000e+00  1.3865103804022193e-05 3.3480028917957572e-05 0.0000000000000000e+00  1.2823988311350062e-05 2.8422610372275346e-05 0.0000000000000000e+00  1.1655514603743027e-05 2.3626034774703710e-05 0.0000000000000000e+00  1.0498447907712068e-05 1.9079871908875745e-05 0.0000000000000000e+00  9.2783462920798248e-06 1.4946646487463391e-05 0.0000000000000000e+00  7.8860520784478845e-06 1.1134957162659657e-05 0.0000000000000000e+00  6.4821861424170268e-06 7.8619286385660924e-06 0.0000000000000000e+00  4.8934742531508815e-06 5.1344256299707735e-06 0.0000000000000000e+00  3.3476783659984752e-06 3.0581956069997514e-06 0.0000000000000000e+00  1.6245179327334002e-06 1.6369855607039779e-06 0.0000000000000000e+00  7.9921695122966132e-07 1.0874589423617482e-06 0.0000000000000000e+00  2.4943826166491513e-05 2.0869519082209991e-04 0.0000000000000000e+00  2.4699958275016523e-05 2.0061522076636996e-04 0.0000000000000000e+00  2.4121057748715869e-05 1.8734420521333939e-04 0.0000000000000000e+00  2.2593895107125747e-06 5.2395482535829916e-06 0.0000000000000000e+00  2.3644044176094826e-05 1.7891109830653955e-04 0.0000000000000000e+00  3.7154502999876265e-06 1.1577531472916125e-05 0.0000000000000000e+00  2.2991913105170706e-05 1.7020191396437104e-04 0.0000000000000000e+00  6.0537251600864693e-06 2.5198984644726995e-05 0.0000000000000000e+00  7.4315543162284151e-06 3.5147209019502858e-05 0.0000000000000000e+00  2.2239273409181944e-05 1.6132586841381810e-04 0.0000000000000000e+00  1.1250610114592408e-05 6.3202266331524620e-05 0.0000000000000000e+00  2.0453428104197808e-05 1.4288117773733497e-04 0.0000000000000000e+00  8.9564487642887525e-06 4.5565850647683120e-05 0.0000000000000000e+00  1.2544160114185174e-05 7.4367351904387413e-05 0.0000000000000000e+00  1.9430668105472871e-05 1.3322777355644454e-04 0.0000000000000000e+00  2.1391436873618105e-05 1.5223427238124449e-04 0.0000000000000000e+00  1.3929244053353065e-05 8.5688632062908885e-05 0.0000000000000000e+00  1.8328154393511185e-05 1.2324433875080004e-04 0.0000000000000000e+00  1.5308439691284226e-05 9.6365836989287126e-05 0.0000000000000000e+00  1.7090363579634729e-05 1.1312479557089417e-04 0.0000000000000000e+00  1.6170848072236195e-05 1.0449551994743684e-04 0.0000000000000000e+00  9.9448113107855636e-06 5.3930555657131324e-05 0.0000000000000000e+00  2.4545163570272720e-05 1.9426171681087659e-04 0.0000000000000000e+00  4.7641289082355066e-06 1.7736991231857968e-05 0.0000000000000000e+00  2.6833490512561181e-05 2.0470024590072506e-04 0.0000000000000000e+00  2.4423227064315911e-06 3.1567068334669361e-06 0.0000000000000000e+00  2.5034716594601960e-05 1.7469668291931749e-04 0.0000000000000000e+00  2.5611454726234222e-05 1.8332688468633679e-04 0.0000000000000000e+00  1.5066601316936054e-06 8.0483403346635526e-06 0.0000000000000000e+00  4.7528619288169639e-06 2.9740725357124655e-05 0.0000000000000000e+00  2.2761470911975594e-05 1.4775297006729141e-04 0.0000000000000000e+00  2.4364323042804897e-05 1.6592342285222928e-04 0.0000000000000000e+00  9.6344316427131711e-06 6.8429801212387402e-05 0.0000000000000000e+00  2.1837449402956615e-05 1.3826533721159905e-04 0.0000000000000000e+00  6.1066218335792359e-06 4.0283223900858846e-05 0.0000000000000000e+00  1.1053704349522230e-05 7.9817459713228732e-05 0.0000000000000000e+00  2.0836400690315991e-05 1.2846083064578151e-04 0.0000000000000000e+00  2.3605004833671690e-05 1.5695830959011435e-04 0.0000000000000000e+00  1.1968869621710354e-05 9.0936982766949686e-05 0.0000000000000000e+00  1.9760092785431645e-05 1.1831575317607032e-04 0.0000000000000000e+00  1.2672392461304921e-07 1.1190231735609807e-07 0.0000000000000000e+00  4.4760623669831416e-07 4.2738506228761602e-07 0.0000000000000000e+00  2.3691008759802309e-05 2.1196678949163950e-04 0.0000000000000000e+00  5.0727302117666732e-07 2.5465521311810181e-06 0.0000000000000000e+00  1.9231738715408958e-05 1.0906585650566193e-04 0.0000000000000000e+00  1.3265151512530496e-05 5.8865886187008629e-05 0.0000000000000000e+