<?xml version="1.0"?>
<VTKFile type="UnstructuredGrid"  version="0.1"  >
<UnstructuredGrid>
<Piece  NumberOfPoints="1419" NumberOfCells="2698">
<Points>
<DataArray  type="Float64"  NumberOfComponents="3"  format="ascii">0 0 0  0 0.41 0  2.5 0 0  2.5 0.41 0  0.6 0.19 0  0.6 0.21 0  0.25 0.2 0  0.15 0.2 0  0.2489897948556636 0.21 0  0.2489897948556636 0.19 0  0.6 0.2 0  0 0.3807142857143437 0  0 0.3514285714286952 0  0 0.3221428571430699 0  0 0.29285714285744 0  0 0.2635714285718054 0  0 0.2342857142861561 0  0 0.2050000000005308 0  0 0.175714285714732 0  0 0.1464285714289574 0  0 0.1171428571431897 0  0 0.08785714285737878 0  0 0.05857142857161107 0  0 0.02928571428580012 0  0.03015443760436003 0 0  0.06140001986583606 0 0  0.09377624077125973 0 0  0.1273239957535082 0 0  0.1620856860351972 0 0  0.1981052433264291 0 0  0.235428184091502 0 0  0.2741016576309132 0 0  0.3141745521465447 0 0  0.3556974926295285 0 0  0.3987229542472677 0 0  0.4433053055141081 0 0  0.4895008759286886 0 0  0.5373680609405097 0 0  0.5869673343216626 0 0  0.6383613676634521 0 0  0.6916151138468254 0 0  0.7467958595648856 0 0  0.8039733463919316 0 0  0.8632198139502143 0 0  0.9246101326867038 0 0  0.9882218810934433 0 0  1.054135445558498 0 0  1.122434100542598 0 0  1.193204177141305 0 0  1.266535089879536 0 0  1.342519516046404 0 0  1.421253448503939 0 0  1.502836389106271 0 0  1.587371439758838 0 0  1.674965418777374 0 0  1.765729001825544 0 0  1.859776908880082 0 0  1.957227977487062 0 0  2.058205329869943 0 0  2.162836591189951 0 0  2.271253957290865 0 0  2.383594446803425 0 0  2.5 0.1024999999997612 0  2.5 0.2049999999994743 0  2.5 0.3074999999997183 0  2.383594446803656 0.41 0  2.271253957291315 0.41 0  2.162836591190598 0.41 0  2.058205329870775 0.41 0  1.957227977488067 0.41 0  1.859776908881246 0.41 0  1.765729001826854 0.41 0  1.674965418778818 0.41 0  1.58737143976041 0.41 0  1.502836389107956 0.41 0  1.421253448505726 0.41 0  1.342519516048286 0.41 0  1.266535089881505 0.41 0  1.193204177143353 0.41 0  1.122434100544716 0.41 0  1.05413544556068 0.41 0  0.9882218810956305 0.41 0  0.9246101326886647 0.41 0  0.8632198139519631 0.41 0  0.8039733463934788 0.41 0  0.7467958595662458 0.41 0  0.6916151138480078 0.41 0  0.6383613676644679 0.41 0  0.5869673343225223 0.41 0  0.5373680609412221 0.41 0  0.4895008759292634 0.41 0  0.4433053055145528 0.41 0  0.3987229542475914 0.41 0  0.3556974926297398 0.41 0  0.3141745521466497 0.41 0  0.2741016576310038 0.41 0  0.2354281840915826 0.41 0  0.1981052433265003 0.41 0  0.1620856860352591 0.41 0  0.1273239957535623 0.41 0  0.09377624077128965 0.41 0  0.06140001986584975 0.41 0  0.03015443760436654 0.41 0  0.2497468076502589 0.2050254481002335 0  0.2497468076502614 0.1949745518997913 0  0.2469965252529372 0.1829317073451959 0  0.2439893735792749 0.1762316384219906 0  0.2400332147834255 0.1700443375285386 0  0.2352133972704371 0.1645032867342007 0  0.2296339016332438 0.1597280261969788 0  0.2234150974217223 0.1558215752574715 0  0.2166911463437691 0.1528682099456123 0  0.2096071079204251 0.1509316448471593 0  0.2023158100364996 0.1500536585536553 0  0.194974551899914 0.1502531923497262 0  0.1877417105387872 0.1515259415822739 0  0.1807733240461124 0.153844448527136 0  0.1742197252835808 0.15715869474974 0  0.1682222986673531 0.1613971801805478 0  0.162910430003803 0.1664684656256651 0  0.1583987151779087 0.1722631454351573 0  0.1547844879126891 0.178656207771761 0  0.1521457199348551 0.1855097315605723 0  0.1505393388476355 0.1926758619366523 0  0.1505393388476328 0.2073241380633295 0  0.1521457199348437 0.2144902684393899 0  0.1547844879126531 0.221343792228163 0  0.1583987151778488 0.2277368545647528 0  0.1629104300036858 0.2335315343742052 0  0.1682222986671726 0.2386028198193036 0  0.1742197252833576 0.2428413052501257 0  0.1807733240458683 0.2461555514727623 0  0.1877417105384929 0.2484740584176516 0  0.1949745518995776 0.2497468076502398 0  0.202315810036185 0.2499463414463592 0  0.2096071079201568 0.2490683551528932 0  0.2166911463435495 0.2471317900544655 0  0.2234150974215506 0.2441784247426195 0  0.2296339016331197 0.2402719738031125 0  0.2352133972703547 0.2354967132658811 0  0.2400332147833751 0.2299556624715287 0  0.2439893735792577 0.2237683615780412 0  0.246996525252926 0.2170682926548348 0  0.25645809709277 0.21 0  0.2639263993298655 0.21 0  0.271394701566961 0.21 0  0.2788630038040554 0.21 0  0.2863313060411479 0.21 0  0.2937996082782405 0.21 0  0.301267910515333 0.21 0  0.3087362127524279 0.21 0  0.3162045149895234 0.21 0  0.3236728172265972 0.21 0  0.3311411194636928 0.21 0  0.3386094217007701 0.21 0  0.3460777239378666 0.21 0  0.3535460261749672 0.21 0  0.3610143284120516 0.21 0  0.3684826306491596 0.21 0  0.3759509328862226 0.21 0  0.383419235123329 0.21 0  0.3908875373604028 0.21 0  0.3983558395975142 0.21 0  0.4058241418345938 0.21 0  0.4132924440716992 0.21 0  0.4207607463087888 0.21 0  0.4282290485459029 0.21 0  0.4356973507830418 0.21 0  0.4431656530201649 0.21 0  0.4506339552573136 0.21 0  0.4581022574944306 0.21 0  0.4655705597315852 0.21 0  0.4730388619686996 0.21 0  0.480507164205851 0.21 0  0.4879754664429498 0.21 0  0.4954437686800938 0.21 0  0.502912070917267 0.21 0  0.5103803731544119 0.21 0  0.5178486753915261 0.21 0  0.5253169776286404 0.21 0  0.5327852798657868 0.21 0  0.5402535821029386 0.21 0  0.54772188434007 0.21 0  0.5551901865771842 0.21 0  0.5626584888143201 0.21 0  0.5701267910514778 0.21 0  0.5775950932886138 0.21 0  0.5850633955257281 0.21 0  0.5925316977628483 0.21 0  0.6 0.2050000000000054 0  0.6 0.1950000000000217 0  0.5925316977628897 0.19 0  0.5850633955257988 0.19 0  0.5775950932887378 0.19 0  0.5701267910515998 0.19 0  0.5626584888145268 0.19 0  0.5551901865773963 0.19 0  0.547721884340339 0.19 0  0.5402535821032429 0.19 0  0.5327852798661811 0.19 0  0.5253169776290537 0.19 0  0.5178486753919799 0.19 0  0.5103803731549078 0.19 0  0.502912070917822 0.19 0  0.4954437686807294 0.19 0  0.4879754664436223 0.19 0  0.4805071642065402 0.19 0  0.4730388619694271 0.19 0  0.4655705597323621 0.19 0  0.4581022574952563 0.19 0  0.4506339552581777 0.19 0  0.4431656530210671 0.19 0  0.4356973507839815 0.19 0  0.4282290485468779 0.19 0  0.4207607463097617 0.19 0  0.4132924440726327 0.19 0  0.4058241418354857 0.19 0  0.3983558395983636 0.19 0  0.3908875373612097 0.19 0  0.3834192351240934 0.19 0  0.3759509328869369 0.19 0  0.3684826306498175 0.19 0  0.361014328412667 0.19 0  0.3535460261755617 0.19 0  0.3460777239384295 0.19 0  0.3386094217012945 0.19 0  0.3311411194641595 0.19 0  0.3236728172270245 0.19 0  0.3162045149898895 0.19 0  0.3087362127527544 0.19 0  0.3012679105156187 0.19 0  0.2937996082784807 0.19 0  0.2863313060413428 0.19 0  0.2788630038042048 0.19 0  0.2713947015670686 0.19 0  0.2639263993299336 0.19 0  0.2564580970927985 0.19 0  0.2607803159922026 0.2000727136295815 0  0.5887803774232762 0.2001272386983733 0  0.5745072403740523 0.2002044435018727 0  0.5511891430099709 0.2001122610077113 0  0.2751288526855082 0.20000000000002 0  0.5365194309847112 0.1999999999999436 0  0.2894621222999649 0.1998691686390484 0  0.5215828265105155 0.1999999999999228 0  0.3127789816668748 0.1998657885438805 0  0.3274069683451451 0.2000000000000796 0  0.5066462220363641 0.199999999999908 0  0.3650630746574081 0.199866017807523 0  0.476773013087985 0.1999999999998713 0  0.3417402379596385 0.1998691686391011 0  0.3796850840047755 0.200000000000134 0  0.4618364086138087 0.1999999999998546 0  0.4917096175621762 0.1999999999998808 0  0.3946216884789568 0.2000000000001512 0  0.446899804139621 0.1999999999998389 0  0.4089549580935208 0.1998691686391595 0  0.4322718174608562 0.200127451265745 0  0.4201487168029707 0.1999966199048527 0  0.3528922713220932 0.2000185703532356 0  0.5633122436674589 0.1999814296467508 0  0.3006558810093873 0.1999966199048318 0  0.5815926498168407 0.1966545283159175 0  0.2677053789419034 0.1964246479135325 0  0.5290511287476175 0.1970915826863981 0  0.5439877332217911 0.197091582686394 0  0.2825131256993216 0.2035478995978015 0  0.3199386661080599 0.202908417313604 0  0.4842413153250809 0.1970915826863873 0  0.5141145242734466 0.1970915826863843 0  0.3722167817676917 0.2029084173136195 0  0.4693047108508938 0.1970915826863783 0  0.3348752705822316 0.202908417313609 0  0.3871533862418661 0.2029084173136212 0  0.4543681063767183 0.1970915826863795 0  0.4991779197992749 0.1970915826863902 0  0.4020059614928624 0.203547899597858 0  0.4394315019025246 0.1970915826863714 0  0.2550657455369551 0.2034088125358657 0  0.2548908499171161 0.1966940311614271 0  0.5946539510196798 0.2024302972968126 0  0.267698176732111 0.2039977513680092 0  0.4261685417851465 0.196409292431739 0  0.3590076176283495 0.196411355804271 0  0.5571672426447437 0.2036011176410121 0  0.3066757059912147 0.1964092924317024 0  0.594380730180568 0.1966558399668133 0  0.4842413153245942 0.2040749161535287 0  0.4693047108503577 0.2040749161535231 0  0.3871533862424271 0.1959250838464788 0  0.372246743208829 0.1959123236376545 0  0.5141145242731028 0.2040749161535395 0  0.4543681063761134 0.2040749161535186 0  0.4019979587101454 0.1959834479682427 0  0.4394608940728603 0.2040870543693135 0  0.5439623148931173 0.2040856076781014 0  0.5290511287473298 0.2040749161535501 0  0.4991779197988497 0.2040749161535382 0  0.3347912413592433 0.1959225448935183 0  0.3199680582793816 0.1959123018030061 0  0.2825051229162361 0.1959834479681729 0  0.3590471196690275 0.2036304442587945 0  0.5571594006495384 0.1963685282145804 0  0.3067669986803285 0.203627750582736 0  0.4262598344738712 0.2036568242185335 0  0.5814408164431408 0.2041285596160068 0  0.5688286748170428 0.1961819304477386 0  0.4145905603063645 0.2038180695522843 0  0.3473758401724931 0.2038180695522752 0  0.2950977245128307 0.2038180695522663 0  0.5688286748170693 0.203818069552238 0  0.2950977245127906 0.1961819304477774 0  0.3473758401723931 0.1961819304478349 0  0.4145905603061963 0.1961819304479011 0  0.2601812407614425 0.2056861609747042
[...]
<PointData  Vectors="f_46-2"> 
<DataArray  type="Float64"  Name="f_46-2"  NumberOfComponents="3" format="ascii">0.0000000000000000e+00 0.0000000000000000e+00 0.0000000000000000e+00  0.0000000000000000e+00 0.0000000000000000e+00 0.0000000000000000e+00  0.0000000000000000e+00 0.0000000000000000e+00 0.0000000000000000e+00  0.0000000000000000e+00 0.0000000000000000e+00 0.0000000000000000e+00  3.3736027236403850e-05 2.9274100182500820e-04 0.0000000000000000e+00  1.6502756429579278e-05 2.9209058823899891e-04 0.0000000000000000e+00  0.0000000000000000e+00 0.0000000000000000e+00 0.0000000000000000e+00  0.0000000000000000e+00 0.0000000000000000e+00 0.0000000000000000e+00  0.0000000000000000e+00 0.0000000000000000e+00 0.0000000000000000e+00  0.0000000000000000e+00 0.0000000000000000e+00 0.0000000000000000e+00  2.4831425155951711e-05 2.9241396965786718e-04 0.0000000000000000e+00  0.0000000000000000e+00 0.0000000000000000e+00 0.0000000000000000e+00  0.0000000000000000e+00 0.0000000000000000e+00 0.0000000000000000e+00  0.0000000000000000e+00 0.0000000000000000e+00 0.0000000000000000e+00  0.0000000000000000e+00 0.0000000000000000e+00 0.0000000000000000e+00  0.0000000000000000e+00 0.0000000000000000e+00 0.0000000000000000e+00  0.0000000000000000e+00 0.0000000000000000e+00 0.0000000000000000e+00  0.0000000000000000e+00 0.0000000000000000e+00 0.0000000000000000e+00  0.0000000000000000e+00 0.0000000000000000e+00 0.0000000000000000e+00  0.0000000000000000e+00 0.0000000000000000e+00 0.0000000000000000e+00  0.0000000000000000e+00 0.0000000000000000e+00 0.0000000000000000e+00  0.0000000000000000e+00 0.0000000000000000e+00 0.0000000000000000e+00  0.0000000000000000e+00 0.0000000000000000e+00 0.0000000000000000e+00  0.0000000000000000e+00 0.0000000000000000e+00 0.0000000000000000e+00  0.0000000000000000e+00 0.0000000000000000e+00 0.0000000000000000e+00  0.0000000000000000e+00 0.0000000000000000e+00 0.0000000000000000e+00  0.0000000000000000e+00 0.0000000000000000e+00 0.0000000000000000e+00  0.0000000000000000e+00 0.0000000000000000e+00 0.0000000000000000e+00  0.0000000000000000e+00 0.0000000000000000e+00 0.0000000000000000e+00  0.0000000000000000e+00 0.0000000000000000e+00 0.0000000000000000e+00  0.0000000000000000e+00 0.0000000000000000e+00 0.0000000000000000e+00  0.0000000000000000e+00 0.0000000000000000e+00 0.0000000000000000e+00  0.0000000000000000e+00 0.0000000000000000e+00 0.0000000000000000e+00  0.0000000000000000e+00 0.0000000000000000e+00 0.0000000000000000e+00  0.0000000000000000e+00 0.0000000000000000e+00 0.0000000000000000e+00  -2.9877596038008592e-14 -1.4707000100662366e-16 0.0000000000000000e+00  0.0000000000000000e+00 0.0000000000000000e+00 0.0000000000000000e+00  0.0000000000000000e+00 0.0000000000000000e+00 0.0000000000000000e+00  0.0000000000000000e+00 0.0000000000000000e+00 0.0000000000000000e+00  0.0000000000000000e+00 0.0000000000000000e+00 0.0000000000000000e+00  0.0000000000000000e+00 0.0000000000000000e+00 0.0000000000000000e+00  0.0000000000000000e+00 0.0000000000000000e+00 0.0000000000000000e+00  0.0000000000000000e+00 0.0000000000000000e+00 0.0000000000000000e+00  0.0000000000000000e+00 0.0000000000000000e+00 0.0000000000000000e+00  0.0000000000000000e+00 0.0000000000000000e+00 0.0000000000000000e+00  0.0000000000000000e+00 0.0000000000000000e+00 0.0000000000000000e+00  0.0000000000000000e+00 0.0000000000000000e+00 0.0000000000000000e+00  0.0000000000000000e+00 0.0000000000000000e+00 0.0000000000000000e+00  0.0000000000000000e+00 0.0000000000000000e+00 0.0000000000000000e+00  0.0000000000000000e+00 0.0000000000000000e+00 0.0000000000000000e+00  0.0000000000000000e+00 0.0000000000000000e+00 0.0000000000000000e+00  0.0000000000000000e+00 0.0000000000000000e+00 0.0000000000000000e+00  0.0000000000000000e+00 0.0000000000000000e+00 0.0000000000000000e+00  0.0000000000000000e+00 0.0000000000000000e+00 0.0000000000000000e+00  0.0000000000000000e+00 0.0000000000000000e+00 0.0000000000000000e+00  0.0000000000000000e+00 0.0000000000000000e+00 0.0000000000000000e+00  0.0000000000000000e+00 0.0000000000000000e+00 0.0000000000000000e+00  0.0000000000000000e+00 0.0000000000000000e+00 0.0000000000000000e+00  0.0000000000000000e+00 0.0000000000000000e+00 0.0000000000000000e+00  0.0000000000000000e+00 0.0000000000000000e+00 0.0000000000000000e+00  0.0000000000000000e+00 0.0000000000000000e+00 0.0000000000000000e+00  0.0000000000000000e+00 0.0000000000000000e+00 0.0000000000000000e+00  0.0000000000000000e+00 0.0000000000000000e+00 0.0000000000000000e+00  0.0000000000000000e+00 0.0000000000000000e+00 0.0000000000000000e+00  0.0000000000000000e+00 0.0000000000000000e+00 0.0000000000000000e+00  0.0000000000000000e+00 0.0000000000000000e+00 0.0000000000000000e+00  0.0000000000000000e+00 0.0000000000000000e+00 0.0000000000000000e+00  0.0000000000000000e+00 0.0000000000000000e+00 0.0000000000000000e+00  0.0000000000000000e+00 0.0000000000000000e+00 0.0000000000000000e+00  0.0000000000000000e+00 0.0000000000000000e+00 0.0000000000000000e+00  0.0000000000000000e+00 0.0000000000000000e+00 0.0000000000000000e+00  0.0000000000000000e+00 0.0000000000000000e+00 0.0000000000000000e+00  0.0000000000000000e+00 0.0000000000000000e+00 0.0000000000000000e+00  0.0000000000000000e+00 0.0000000000000000e+00 0.0000000000000000e+00  0.0000000000000000e+00 0.0000000000000000e+00 0.0000000000000000e+00  0.0000000000000000e+00 0.0000000000000000e+00 0.0000000000000000e+00  0.0000000000000000e+00 0.0000000000000000e+00 0.0000000000000000e+00  0.0000000000000000e+00 0.0000000000000000e+00 0.0000000000000000e+00  0.0000000000000000e+00 0.0000000000000000e+00 0.0000000000000000e+00  0.0000000000000000e+00 0.0000000000000000e+00 0.0000000000000000e+00  0.0000000000000000e+00 0.0000000000000000e+00 0.0000000000000000e+00  0.0000000000000000e+00 0.0000000000000000e+00 0.0000000000000000e+00  0.0000000000000000e+00 0.0000000000000000e+00 0.0000000000000000e+00  0.0000000000000000e+00 0.0000000000000000e+00 0.0000000000000000e+00  0.0000000000000000e+00 0.0000000000000000e+00 0.0000000000000000e+00  0.0000000000000000e+00 0.0000000000000000e+00 0.0000000000000000e+00  0.0000000000000000e+00 0.0000000000000000e+00 0.0000000000000000e+00  0.0000000000000000e+00 0.0000000000000000e+00 0.0000000000000000e+00  2.4591084905902464e-15 0.0000000000000000e+00 0.0000000000000000e+00  0.0000000000000000e+00 0.0000000000000000e+00 0.0000000000000000e+00  0.0000000000000000e+00 0.0000000000000000e+00 0.0000000000000000e+00  0.0000000000000000e+00 0.0000000000000000e+00 0.0000000000000000e+00  0.0000000000000000e+00 0.0000000000000000e+00 0.0000000000000000e+00  0.0000000000000000e+00 0.0000000000000000e+00 0.0000000000000000e+00  -1.3124553810602200e-13 -4.2442663577612451e-17 0.0000000000000000e+00  0.0000000000000000e+00 0.0000000000000000e+00 0.0000000000000000e+00  0.0000000000000000e+00 0.0000000000000000e+00 0.0000000000000000e+00  0.0000000000000000e+00 0.0000000000000000e+00 0.0000000000000000e+00  0.0000000000000000e+00 0.0000000000000000e+00 0.0000000000000000e+00  0.0000000000000000e+00 0.0000000000000000e+00 0.0000000000000000e+00  0.0000000000000000e+00 0.0000000000000000e+00 0.0000000000000000e+00  0.0000000000000000e+00 0.0000000000000000e+00 0.0000000000000000e+00  0.0000000000000000e+00 0.0000000000000000e+00 0.0000000000000000e+00  0.0000000000000000e+00 0.0000000000000000e+00 0.0000000000000000e+00  0.0000000000000000e+00 0.0000000000000000e+00 0.0000000000000000e+00  -8.5092010507356091e-14 -3.3582216451804873e-14 0.0000000000000000e+00  0.0000000000000000e+00 0.0000000000000000e+00 0.0000000000000000e+00  0.0000000000000000e+00 0.0000000000000000e+00 0.0000000000000000e+00  0.0000000000000000e+00 0.0000000000000000e+00 0.0000000000000000e+00  0.0000000000000000e+00 0.0000000000000000e+00 0.0000000000000000e+00  -1.5218123117361680e-13 9.0809216269034233e-22 0.0000000000000000e+00  0.0000000000000000e+00 0.0000000000000000e+00 0.0000000000000000e+00  0.0000000000000000e+00 0.0000000000000000e+00 0.0000000000000000e+00  0.0000000000000000e+00 0.0000000000000000e+00 0.0000000000000000e+00  0.0000000000000000e+00 0.0000000000000000e+00 0.0000000000000000e+00  0.0000000000000000e+00 0.0000000000000000e+00 0.0000000000000000e+00  0.0000000000000000e+00 0.0000000000000000e+00 0.0000000000000000e+00  0.0000000000000000e+00 0.0000000000000000e+00 0.0000000000000000e+00  0.0000000000000000e+00 0.0000000000000000e+00 0.0000000000000000e+00  0.0000000000000000e+00 0.0000000000000000e+00 0.0000000000000000e+00  0.0000000000000000e+00 0.0000000000000000e+00 0.0000000000000000e+00  0.0000000000000000e+00 0.0000000000000000e+00 0.0000000000000000e+00  0.0000000000000000e+00 0.0000000000000000e+00 0.0000000000000000e+00  0.0000000000000000e+00 0.0000000000000000e+00 0.0000000000000000e+00  0.0000000000000000e+00 0.0000000000000000e+00 0.0000000000000000e+00  0.0000000000000000e+00 0.0000000000000000e+00 0.0000000000000000e+00  0.0000000000000000e+00 0.0000000000000000e+00 0.0000000000000000e+00  0.0000000000000000e+00 0.0000000000000000e+00 0.0000000000000000e+00  0.0000000000000000e+00 0.0000000000000000e+00 0.0000000000000000e+00  0.0000000000000000e+00 0.0000000000000000e+00 0.0000000000000000e+00  0.0000000000000000e+00 0.0000000000000000e+00 0.0000000000000000e+00  0.0000000000000000e+00 0.0000000000000000e+00 0.0000000000000000e+00  0.0000000000000000e+00 0.0000000000000000e+00 0.0000000000000000e+00  0.0000000000000000e+00 0.0000000000000000e+00 0.0000000000000000e+00  0.0000000000000000e+00 0.0000000000000000e+00 0.0000000000000000e+00  0.0000000000000000e+00 0.0000000000000000e+00 0.0000000000000000e+00  0.0000000000000000e+00 0.0000000000000000e+00 0.0000000000000000e+00  0.0000000000000000e+00 0.0000000000000000e+00 0.0000000000000000e+00  0.0000000000000000e+00 0.0000000000000000e+00 0.0000000000000000e+00  0.0000000000000000e+00 0.0000000000000000e+00 0.0000000000000000e+00  0.0000000000000000e+00 0.0000000000000000e+00 0.0000000000000000e+00  0.0000000000000000e+00 0.0000000000000000e+00 0.0000000000000000e+00  -8.3895003018890983e-13 -3.4756690159591376e-13 0.0000000000000000e+00  -6.2125175185672913e-07 3.8127254503550883e-07 0.0000000000000000e+00  -1.2662999488500902e-06 1.8666452272102214e-06 0.0000000000000000e+00  -1.6152452017674669e-06 4.2037158959309407e-06 0.0000000000000000e+00  -1.9431192598094553e-06 7.4069807957301698e-06 0.0000000000000000e+00  -2.0115200031599515e-06 1.1212508522284015e-05 0.0000000000000000e+00  -2.1073556843880098e-06 1.5664535331186550e-05 0.0000000000000000e+00  -1.9789146101356765e-06 2.0544249020338972e-05 0.0000000000000000e+00  -1.7717379024673519e-06 2.5949507050185816e-05 0.0000000000000000e+00  -1.5915888536494113e-06 3.1714389042643520e-05 0.0000000000000000e+00  -1.2224316709397789e-06 3.7812232541478508e-05 0.0000000000000000e+00  -8.9112573908531254e-07 4.4212669163246423e-05 0.0000000000000000e+00  -4.1543860562116054e-07 5.0844923118110519e-05 0.0000000000000000e+00  4.9698551983758239e-08 5.7680605680162068e-05 0.0000000000000000e+00  5.9953802320482221e-07 6.4654126815484351e-05 0.0000000000000000e+00  1.1808425530784527e-06 7.1773316937452755e-05 0.0000000000000000e+00  1.7657993890264061e-06 7.8979213874109561e-05 0.0000000000000000e+00  2.4013036290970265e-06 8.6256585889533390e-05 0.0000000000000000e+00  3.0392386004551831e-06 9.3579775869582238e-05 0.0000000000000000e+00  3.7022375153203010e-06 1.0093087677403988e-04 0.0000000000000000e+00  4.3714325608807530e-06 1.0828566313725135e-04 0.0000000000000000e+00  5.0456062808545372e-06 1.1563770874827542e-04 0.0000000000000000e+00  5.7252293716814047e-06 1.2296525678800839e-04 0.0000000000000000e+00  6.3961354844373943e-06 1.3026622316822240e-04 0.0000000000000000e+00  7.0617875884809074e-06 1.3752395271714673e-04 0.0000000000000000e+00  7.7316439919712112e-06 1.4474007705898942e-04 0.0000000000000000e+00  8.3797450974979512e-06 1.5190858591756755e-04 0.0000000000000000e+00  9.0177695221690920e-06 1.5901212536098818e-04 0.0000000000000000e+00  9.6341748682777403e-06 1.6607163815589787e-04 0.0000000000000000e+00  1.0237360726077324e-05 1.7306082511894181e-04 0.0000000000000000e+00  1.0813938556791135e-05 1.8000735381275130e-04 0.0000000000000000e+00  1.1373926117427880e-05 1.8688319120621521e-04 0.0000000000000000e+00  1.1903759670674388e-05 1.9372122395626179e-04 0.0000000000000000e+00  1.2413519541039528e-05 2.0049146152366815e-04 0.0000000000000000e+00  1.2891651245008622e-05 2.0723172858063093e-04 0.0000000000000000e+00  1.3345230908588713e-05 2.1390919485454634e-04 0.0000000000000000e+00  1.3765609382981563e-05 2.2056585077306817e-04 0.0000000000000000e+00  1.4159761675530266e-05 2.2716783135636078e-04 0.0000000000000000e+00  1.4519904162127397e-05 2.3375798001436896e-04 0.0000000000000000e+00  1.4851652927689341e-05 2.4030178672692216e-04 0.0000000000000000e+00  1.5147471188664579e-05 2.4684417023260446e-04 0.0000000000000000e+00  1.5409221970995408e-05 2.5335402437823756e-04 0.0000000000000000e+00  1.5641567761797485e-05 2.5985955916740409e-04 0.0000000000000000e+00  1.5839254046208321e-05 2.6635094474269564e-04 0.0000000000000000e+00  1.6018158437905646e-05 2.7283771422132412e-04 0.0000000000000000e+00  1.6158362895889832e-05 2.7933128040865551e-04 0.0000000000000000e+00  1.6300941848387882e-05 2.8578778413389721e-04 0.0000000000000000e+00  2.0570307625912267e-05 2.9225681196213497e-04 0.0000000000000000e+00  2.9197521176069049e-05 2.9256813663454130e-04 0.0000000000000000e+00  3.3547499978412739e-05 2.8616031083566085e-04 0.0000000000000000e+00  3.3425339537919800e-05 2.7973950099443532e-04 0.0000000000000000e+00  3.3302030914582628e-05 2.7333536712921091e-04 0.0000000000000000e+00  3.3150026587425749e-05 2.6691086553095743e-04 0.0000000000000000e+00  3.2980158754179784e-05 2.6047893082816148e-04 0.0000000000000000e+00  3.2781856718224998e-05 2.5403363165496924e-04 0.0000000000000000e+00  3.2568974117024630e-05 2.4756906341839483e-04 0.0000000000000000e+00  3.2324475934077289e-05 2.4109719268650926e-04 0.0000000000000000e+00  3.2066331307048549e-05 2.3458467423478815e-04 0.0000000000000000e+00  3.1778764477378773e-05 2.2806242156243756e-04 0.0000000000000000e+00  3.1482093437838360e-05 2.2149050335457698e-04 0.0000000000000000e+00  3.1155061223330885e-05 2.1489891912051309e-04 0.0000000000000000e+00  3.0822785449914281e-05 2.0824963560537948e-04 0.0000000000000000e+00  3.0458057078770660e-05 2.0157118385933628e-04 0.0000000000000000e+00  3.0090923674254109e-05 1.9482763408693537e-04 0.0000000000000000e+00  2.9688549085821720e-05 1.8804778031657944e-04 0.0000000000000000e+00  2.9285059574018568e-05 1.8119718048206646e-04 0.0000000000000000e+00  2.8844688194692270e-05 1.7430505569128509e-04 0.0000000000000000e+00  2.8403535027972131e-05 1.6733942635810981e-04 0.0000000000000000e+00  2.7923972365267270e-05 1.6033041690651810e-04 0.0000000000000000e+00  2.7441443117199848e-05 1.5324823527870695e-04 0.0000000000000000e+00  2.6919629081784021e-05 1.4612452483431359e-04 0.0000000000000000e+00  2.6385302238787487e-05 1.3893799123855711e-04 0.0000000000000000e+00  2.5819435295444954e-05 1.3171195657581721e-04 0.0000000000000000e+00  2.5226372950335879e-05 1.2443900128999378e-04 0.0000000000000000e+00  2.4617888090172547e-05 1.1713650196952778e-04 0.0000000000000000e+00  2.3970880420349790e-05 1.0981805460139903e-04 0.0000000000000000e+00  2.3292133132315827e-05 1.0247521881536544e-04 0.0000000000000000e+00  2.2579495121578318e-05 9.5155258676952423e-05 0.0000000000000000e+00  2.1826307791290875e-05 8.7839892380767816e-05 0.0000000000000000e+00  2.1039428080643880e-05 8.0582455453889076e-05 0.0000000000000000e+00  2.0186887257436961e-05 7.3392144143972181e-05 0.0000000000000000e+00  1.9319300086099801e-05 6.6282760089867945e-05 0.0000000000000000e+00  1.8407685737771466e-05 5.9320402406282193e-05 0.0000000000000000e+00  1.7412317614741106e-05 5.2474572946515067e-05 0.0000000000000000e+00  1.6384088187301941e-05 4.5855302015498223e-05 0.0000000000000000e+00  1.5268568010170095e-05 3.9444978654592238e-05 0.0000000000000000e+00  1.4119698695501861e-05 3.3330180881169710e-05 0.0000000000000000e+00  1.2819427727655429e-05 2.7576027982798731e-05 0.0000000000000000e+00  1.1547508996754572e-05 2.2152093759533744e-05 0.0000000000000000e+00  1.0208289174080307e-05 1.7257909172963166e-05 0.0000000000000000e+00  8.6660311239382534e-06 1.2769212292047696e-05 0.0000000000000000e+00  7.1245259891126260e-06 8.9391765441854498e-06 0.0000000000000000e+00  5.3715547025666351e-06 5.7707777701138466e-06 0.0000000000000000e+00  3.6781328113716333e-06 3.3755780577347099e-06 0.0000000000000000e+00  1.7799863818556883e-06 1.7595156070461917e-06 0.0000000000000000e+00  7.9152465612573742e-07 1.2229619110487256e-06 0.0000000000000000e+00  2.4636263530706591e-05 2.8274342557556580e-04 0.0000000000000000e+00  2.4373878320379083e-05 2.7042026132818614e-04 0.0000000000000000e+00  2.3832824605787161e-05 2.5022818303965328e-04 0.0000000000000000e+00  2.2425081493142538e-06 6.0094431479647700e-06 0.0000000000000000e+00  2.3397459144926357e-05 2.3745522744395234e-04 0.0000000000000000e+00  3.6982093257420325e-06 1.3414203994099296e-05 0.0000000000000000e+00  2.2755388637869294e-05 2.2434776900511527e-04 0.0000000000000000e+00  6.0244438049868793e-06 2.9599073065454666e-05 0.0000000000000000e+00  7.3728539919396355e-06 4.1623263921174795e-05 0.0000000000000000e+00  2.2014181299462977e-05 2.1110484767290126e-04 0.0000000000000000e+00  1.1186284254439317e-05 7.6427141014662436e-05 0.0000000000000000e+00  2.0254525049270604e-05 1.8407559549851317e-04 0.0000000000000000e+00  8.9079974551014990e-06 5.4387995175668685e-05 0.0000000000000000e+00  1.2439224426081367e-05 9.0676691195438393e-05 0.0000000000000000e+00  1.9245993617276679e-05 1.7023737944698328e-04 0.0000000000000000e+00  2.1178966596226182e-05 1.9769095967730568e-04 0.0000000000000000e+00  1.3810247002691648e-05 1.0537403977924154e-04 0.0000000000000000e+00  1.8158253629663988e-05 1.5616589607618685e-04 0.0000000000000000e+00  1.5207739355284734e-05 1.1948089128308405e-04 0.0000000000000000e+00  1.6901661273420692e-05 1.4215661103524174e-04 0.0000000000000000e+00  1.6028014589931026e-05 1.3040936293217724e-04 0.0000000000000000e+00  9.8607577143360047e-06 6.4784193926927124e-05 0.0000000000000000e+00  2.4290007550691283e-05 2.6074196570803106e-04 0.0000000000000000e+00  4.7280432434461430e-06 2.0698778582820320e-05 0.0000000000000000e+00  2.7560011758144026e-05 2.7661164404293884e-04 0.0000000000000000e+00  2.5811798512376701e-06 3.5546060902737984e-06 0.0000000000000000e+00  2.5647897721097401e-05 2.3103847339284804e-04 0.0000000000000000e+00  2.6219673086269694e-05 2.4407846978385071e-04 0.0000000000000000e+00  1.2265536555868286e-06 9.3312006159295618e-06 0.0000000000000000e+00  4.2917714121675348e-06 3.5123749104449392e-05 0.0000000000000000e+00  2.3383146493575459e-05 1.9107047168098314e-04 0.0000000000000000e+00  2.4981796866462932e-05 2.1788122298930395e-04 0.0000000000000000e+00  8.9265086600438700e-06 8.3141341836926857e-05 0.0000000000000000e+00  2.2457724105178164e-05 1.7735734197784120e-04 0.0000000000000000e+00  5.5701616768072994e-06 4.7953728030619012e-05 0.0000000000000000e+00  1.0288385253290988e-05 9.7794215493761784e-05 0.0000000000000000e+00  2.1452115008610935e-05 1.6341424911742912e-04 0.0000000000000000e+00  2.4225529376417565e-05 2.0456988834683835e-04 0.0000000000000000e+00  1.0998478560227975e-05 1.1237425015312715e-04 0.0000000000000000e+00  2.0368024769818197e-05 1.4923765198160754e-04 0.0000000000000000e+00  9.6227786739008305e-08 1.4183134767086723e-07 0.0000000000000000e+00  4.7019839804120093e-07 4.5219726934413083e-07 0.0000000000000000e+00  2.2697129240670727e-05 2.8776179425067536e-04 0.0000000000000000e+00  3.2831794281118960e-07 2.9489390717989098e-06 0.0000000000000000e+00  2.0004210160099789e-05 1.3651594338079514e-04 0.0000000000000000e+00  1.3878579784669132e-05 7.0890813102061871e-05 0.000000000