<?xml version="1.0"?>
<VTKFile type="UnstructuredGrid"  version="0.1"  >
<UnstructuredGrid>
<Piece  NumberOfPoints="1419" NumberOfCells="2698">
<Points>
<DataArray  type="Float64"  NumberOfComponents="3"  format="ascii">0 0 0  0 0.41 0  2.5 0 0  2.5 0.41 0  0.6 0.19 0  0.6 0.21 0  0.25 0.2 0  0.15 0.2 0  0.2489897948556636 0.21 0  0.2489897948556636 0.19 0  0.6 0.2 0  0 0.3807142857143437 0  0 0.3514285714286952 0  0 0.3221428571430699 0  0 0.29285714285744 0  0 0.2635714285718054 0  0 0.2342857142861561 0  0 0.2050000000005308 0  0 0.175714285714732 0  0 0.1464285714289574 0  0 0.1171428571431897 0  0 0.08785714285737878 0  0 0.05857142857161107 0  0 0.02928571428580012 0  0.03015443760436003 0 0  0.06140001986583606 0 0  0.09377624077125973 0 0  0.1273239957535082 0 0  0.1620856860351972 0 0  0.1981052433264291 0 0  0.235428184091502 0 0  0.2741016576309132 0 0  0.3141745521465447 0 0  0.3556974926295285 0 0  0.3987229542472677 0 0  0.4433053055141081 0 0  0.4895008759286886 0 0  0.5373680609405097 0 0  0.5869673343216626 0 0  0.6383613676634521 0 0  0.6916151138468254 0 0  0.7467958595648856 0 0  0.8039733463919316 0 0  0.8632198139502143 0 0  0.9246101326867038 0 0  0.9882218810934433 0 0  1.054135445558498 0 0  1.122434100542598 0 0  1.193204177141305 0 0  1.266535089879536 0 0  1.342519516046404 0 0  1.421253448503939 0 0  1.502836389106271 0 0  1.587371439758838 0 0  1.674965418777374 0 0  1.765729001825544 0 0  1.859776908880082 0 0  1.957227977487062 0 0  2.058205329869943 0 0  2.162836591189951 0 0  2.271253957290865 0 0  2.383594446803425 0 0  2.5 0.1024999999997612 0  2.5 0.2049999999994743 0  2.5 0.3074999999997183 0  2.383594446803656 0.41 0  2.271253957291315 0.41 0  2.162836591190598 0.41 0  2.058205329870775 0.41 0  1.957227977488067 0.41 0  1.859776908881246 0.41 0  1.765729001826854 0.41 0  1.674965418778818 0.41 0  1.58737143976041 0.41 0  1.502836389107956 0.41 0  1.421253448505726 0.41 0  1.342519516048286 0.41 0  1.266535089881505 0.41 0  1.193204177143353 0.41 0  1.122434100544716 0.41 0  1.05413544556068 0.41 0  0.9882218810956305 0.41 0  0.9246101326886647 0.41 0  0.8632198139519631 0.41 0  0.8039733463934788 0.41 0  0.7467958595662458 0.41 0  0.6916151138480078 0.41 0  0.6383613676644679 0.41 0  0.5869673343225223 0.41 0  0.5373680609412221 0.41 0  0.4895008759292634 0.41 0  0.4433053055145528 0.41 0  0.3987229542475914 0.41 0  0.3556974926297398 0.41 0  0.3141745521466497 0.41 0  0.2741016576310038 0.41 0  0.2354281840915826 0.41 0  0.1981052433265003 0.41 0  0.1620856860352591 0.41 0  0.1273239957535623 0.41 0  0.09377624077128965 0.41 0  0.06140001986584975 0.41 0  0.03015443760436654 0.41 0  0.2497468076502589 0.2050254481002335 0  0.2497468076502614 0.1949745518997913 0  0.2469965252529372 0.1829317073451959 0  0.2439893735792749 0.1762316384219906 0  0.2400332147834255 0.1700443375285386 0  0.2352133972704371 0.1645032867342007 0  0.2296339016332438 0.1597280261969788 0  0.2234150974217223 0.1558215752574715 0  0.2166911463437691 0.1528682099456123 0  0.2096071079204251 0.1509316448471593 0  0.2023158100364996 0.1500536585536553 0  0.194974551899914 0.1502531923497262 0  0.1877417105387872 0.1515259415822739 0  0.1807733240461124 0.153844448527136 0  0.1742197252835808 0.15715869474974 0  0.1682222986673531 0.1613971801805478 0  0.162910430003803 0.1664684656256651 0  0.1583987151779087 0.1722631454351573 0  0.1547844879126891 0.178656207771761 0  0.1521457199348551 0.1855097315605723 0  0.1505393388476355 0.1926758619366523 0  0.1505393388476328 0.2073241380633295 0  0.1521457199348437 0.2144902684393899 0  0.1547844879126531 0.221343792228163 0  0.1583987151778488 0.2277368545647528 0  0.1629104300036858 0.2335315343742052 0  0.1682222986671726 0.2386028198193036 0  0.1742197252833576 0.2428413052501257 0  0.1807733240458683 0.2461555514727623 0  0.1877417105384929 0.2484740584176516 0  0.1949745518995776 0.2497468076502398 0  0.202315810036185 0.2499463414463592 0  0.2096071079201568 0.2490683551528932 0  0.2166911463435495 0.2471317900544655 0  0.2234150974215506 0.2441784247426195 0  0.2296339016331197 0.2402719738031125 0  0.2352133972703547 0.2354967132658811 0  0.2400332147833751 0.2299556624715287 0  0.2439893735792577 0.2237683615780412 0  0.246996525252926 0.2170682926548348 0  0.25645809709277 0.21 0  0.2639263993298655 0.21 0  0.271394701566961 0.21 0  0.2788630038040554 0.21 0  0.2863313060411479 0.21 0  0.2937996082782405 0.21 0  0.301267910515333 0.21 0  0.3087362127524279 0.21 0  0.3162045149895234 0.21 0  0.3236728172265972 0.21 0  0.3311411194636928 0.21 0  0.3386094217007701 0.21 0  0.3460777239378666 0.21 0  0.3535460261749672 0.21 0  0.3610143284120516 0.21 0  0.3684826306491596 0.21 0  0.3759509328862226 0.21 0  0.383419235123329 0.21 0  0.3908875373604028 0.21 0  0.3983558395975142 0.21 0  0.4058241418345938 0.21 0  0.4132924440716992 0.21 0  0.4207607463087888 0.21 0  0.4282290485459029 0.21 0  0.4356973507830418 0.21 0  0.4431656530201649 0.21 0  0.4506339552573136 0.21 0  0.4581022574944306 0.21 0  0.4655705597315852 0.21 0  0.4730388619686996 0.21 0  0.480507164205851 0.21 0  0.4879754664429498 0.21 0  0.4954437686800938 0.21 0  0.502912070917267 0.21 0  0.5103803731544119 0.21 0  0.5178486753915261 0.21 0  0.5253169776286404 0.21 0  0.5327852798657868 0.21 0  0.5402535821029386 0.21 0  0.54772188434007 0.21 0  0.5551901865771842 0.21 0  0.5626584888143201 0.21 0  0.5701267910514778 0.21 0  0.5775950932886138 0.21 0  0.5850633955257281 0.21 0  0.5925316977628483 0.21 0  0.6 0.2050000000000054 0  0.6 0.1950000000000217 0  0.5925316977628897 0.19 0  0.5850633955257988 0.19 0  0.5775950932887378 0.19 0  0.5701267910515998 0.19 0  0.5626584888145268 0.19 0  0.5551901865773963 0.19 0  0.547721884340339 0.19 0  0.5402535821032429 0.19 0  0.5327852798661811 0.19 0  0.5253169776290537 0.19 0  0.5178486753919799 0.19 0  0.5103803731549078 0.19 0  0.502912070917822 0.19 0  0.4954437686807294 0.19 0  0.4879754664436223 0.19 0  0.4805071642065402 0.19 0  0.4730388619694271 0.19 0  0.4655705597323621 0.19 0  0.4581022574952563 0.19 0  0.4506339552581777 0.19 0  0.4431656530210671 0.19 0  0.4356973507839815 0.19 0  0.4282290485468779 0.19 0  0.4207607463097617 0.19 0  0.4132924440726327 0.19 0  0.4058241418354857 0.19 0  0.3983558395983636 0.19 0  0.3908875373612097 0.19 0  0.3834192351240934 0.19 0  0.3759509328869369 0.19 0  0.3684826306498175 0.19 0  0.361014328412667 0.19 0  0.3535460261755617 0.19 0  0.3460777239384295 0.19 0  0.3386094217012945 0.19 0  0.3311411194641595 0.19 0  0.3236728172270245 0.19 0  0.3162045149898895 0.19 0  0.3087362127527544 0.19 0  0.3012679105156187 0.19 0  0.2937996082784807 0.19 0  0.2863313060413428 0.19 0  0.2788630038042048 0.19 0  0.2713947015670686 0.19 0  0.2639263993299336 0.19 0  0.2564580970927985 0.19 0  0.2607803159922026 0.2000727136295815 0  0.5887803774232762 0.2001272386983733 0  0.5745072403740523 0.2002044435018727 0  0.5511891430099709 0.2001122610077113 0  0.2751288526855082 0.20000000000002 0  0.5365194309847112 0.1999999999999436 0  0.2894621222999649 0.1998691686390484 0  0.5215828265105155 0.1999999999999228 0  0.3127789816668748 0.1998657885438805 0  0.3274069683451451 0.2000000000000796 0  0.5066462220363641 0.199999999999908 0  0.3650630746574081 0.199866017807523 0  0.476773013087985 0.1999999999998713 0  0.3417402379596385 0.1998691686391011 0  0.3796850840047755 0.200000000000134 0  0.4618364086138087 0.1999999999998546 0  0.4917096175621762 0.1999999999998808 0  0.3946216884789568 0.2000000000001512 0  0.446899804139621 0.1999999999998389 0  0.4089549580935208 0.1998691686391595 0  0.4322718174608562 0.200127451265745 0  0.4201487168029707 0.1999966199048527 0  0.3528922713220932 0.2000185703532356 0  0.5633122436674589 0.1999814296467508 0  0.3006558810093873 0.1999966199048318 0  0.5815926498168407 0.1966545283159175 0  0.2677053789419034 0.1964246479135325 0  0.5290511287476175 0.1970915826863981 0  0.5439877332217911 0.197091582686394 0  0.2825131256993216 0.2035478995978015 0  0.3199386661080599 0.202908417313604 0  0.4842413153250809 0.1970915826863873 0  0.5141145242734466 0.1970915826863843 0  0.3722167817676917 0.2029084173136195 0  0.4693047108508938 0.1970915826863783 0  0.3348752705822316 0.202908417313609 0  0.3871533862418661 0.2029084173136212 0  0.4543681063767183 0.1970915826863795 0  0.4991779197992749 0.1970915826863902 0  0.4020059614928624 0.203547899597858 0  0.4394315019025246 0.1970915826863714 0  0.2550657455369551 0.2034088125358657 0  0.2548908499171161 0.1966940311614271 0  0.5946539510196798 0.2024302972968126 0  0.267698176732111 0.2039977513680092 0  0.4261685417851465 0.196409292431739 0  0.3590076176283495 0.196411355804271 0  0.5571672426447437 0.2036011176410121 0  0.3066757059912147 0.1964092924317024 0  0.594380730180568 0.1966558399668133 0  0.4842413153245942 0.2040749161535287 0  0.4693047108503577 0.2040749161535231 0  0.3871533862424271 0.1959250838464788 0  0.372246743208829 0.1959123236376545 0  0.5141145242731028 0.2040749161535395 0  0.4543681063761134 0.2040749161535186 0  0.4019979587101454 0.1959834479682427 0  0.4394608940728603 0.2040870543693135 0  0.5439623148931173 0.2040856076781014 0  0.5290511287473298 0.2040749161535501 0  0.4991779197988497 0.2040749161535382 0  0.3347912413592433 0.1959225448935183 0  0.3199680582793816 0.1959123018030061 0  0.2825051229162361 0.1959834479681729 0  0.3590471196690275 0.2036304442587945 0  0.5571594006495384 0.1963685282145804 0  0.3067669986803285 0.203627750582736 0  0.4262598344738712 0.2036568242185335 0  0.5814408164431408 0.2041285596160068 0  0.5688286748170428 0.1961819304477386 0  0.4145905603063645 0.2038180695522843 0  0.3473758401724931 0.2038180695522752 0  0.2950977245128307 0.2038180695522663 0  0.5688286748170693 0.203818069552238 0  0.2950977245127906 0.1961819304477774 0  0.3473758401723931 0.1961819304478349 0  0.4145905603061963 0.1961819304479011 0  0.2601812407614425 0.2056861609747042
[...]
<PointData  Vectors="f_46-2"> 
<DataArray  type="Float64"  Name="f_46-2"  NumberOfComponents="3" format="ascii">0.0000000000000000e+00 0.0000000000000000e+00 0.0000000000000000e+00  0.0000000000000000e+00 0.0000000000000000e+00 0.0000000000000000e+00  0.0000000000000000e+00 0.0000000000000000e+00 0.0000000000000000e+00  0.0000000000000000e+00 0.0000000000000000e+00 0.0000000000000000e+00  4.2757080466135000e-05 5.5305499954198247e-04 0.0000000000000000e+00  5.7344939977015830e-06 5.5239176029521074e-04 0.0000000000000000e+00  0.0000000000000000e+00 0.0000000000000000e+00 0.0000000000000000e+00  0.0000000000000000e+00 0.0000000000000000e+00 0.0000000000000000e+00  0.0000000000000000e+00 0.0000000000000000e+00 0.0000000000000000e+00  0.0000000000000000e+00 0.0000000000000000e+00 0.0000000000000000e+00  2.3964371578668784e-05 5.5271933243981647e-04 0.0000000000000000e+00  0.0000000000000000e+00 0.0000000000000000e+00 0.0000000000000000e+00  0.0000000000000000e+00 0.0000000000000000e+00 0.0000000000000000e+00  0.0000000000000000e+00 0.0000000000000000e+00 0.0000000000000000e+00  0.0000000000000000e+00 0.0000000000000000e+00 0.0000000000000000e+00  0.0000000000000000e+00 0.0000000000000000e+00 0.0000000000000000e+00  0.0000000000000000e+00 0.0000000000000000e+00 0.0000000000000000e+00  0.0000000000000000e+00 0.0000000000000000e+00 0.0000000000000000e+00  0.0000000000000000e+00 0.0000000000000000e+00 0.0000000000000000e+00  0.0000000000000000e+00 0.0000000000000000e+00 0.0000000000000000e+00  0.0000000000000000e+00 0.0000000000000000e+00 0.0000000000000000e+00  0.0000000000000000e+00 0.0000000000000000e+00 0.0000000000000000e+00  0.0000000000000000e+00 0.0000000000000000e+00 0.0000000000000000e+00  0.0000000000000000e+00 0.0000000000000000e+00 0.0000000000000000e+00  0.0000000000000000e+00 0.0000000000000000e+00 0.0000000000000000e+00  0.0000000000000000e+00 0.0000000000000000e+00 0.0000000000000000e+00  0.0000000000000000e+00 0.0000000000000000e+00 0.0000000000000000e+00  0.0000000000000000e+00 0.0000000000000000e+00 0.0000000000000000e+00  0.0000000000000000e+00 0.0000000000000000e+00 0.0000000000000000e+00  0.0000000000000000e+00 0.0000000000000000e+00 0.0000000000000000e+00  0.0000000000000000e+00 0.0000000000000000e+00 0.0000000000000000e+00  0.0000000000000000e+00 0.0000000000000000e+00 0.0000000000000000e+00  0.0000000000000000e+00 0.0000000000000000e+00 0.0000000000000000e+00  0.0000000000000000e+00 0.0000000000000000e+00 0.0000000000000000e+00  0.0000000000000000e+00 0.0000000000000000e+00 0.0000000000000000e+00  2.3265947062948136e-13 3.6760917480095696e-17 0.0000000000000000e+00  0.0000000000000000e+00 0.0000000000000000e+00 0.0000000000000000e+00  0.0000000000000000e+00 0.0000000000000000e+00 0.0000000000000000e+00  0.0000000000000000e+00 0.0000000000000000e+00 0.0000000000000000e+00  0.0000000000000000e+00 0.0000000000000000e+00 0.0000000000000000e+00  0.0000000000000000e+00 0.0000000000000000e+00 0.0000000000000000e+00  0.0000000000000000e+00 0.0000000000000000e+00 0.0000000000000000e+00  0.0000000000000000e+00 0.0000000000000000e+00 0.0000000000000000e+00  0.0000000000000000e+00 0.0000000000000000e+00 0.0000000000000000e+00  0.0000000000000000e+00 0.0000000000000000e+00 0.0000000000000000e+00  0.0000000000000000e+00 0.0000000000000000e+00 0.0000000000000000e+00  0.0000000000000000e+00 0.0000000000000000e+00 0.0000000000000000e+00  0.0000000000000000e+00 0.0000000000000000e+00 0.0000000000000000e+00  0.0000000000000000e+00 0.0000000000000000e+00 0.0000000000000000e+00  0.0000000000000000e+00 0.0000000000000000e+00 0.0000000000000000e+00  0.0000000000000000e+00 0.0000000000000000e+00 0.0000000000000000e+00  0.0000000000000000e+00 0.0000000000000000e+00 0.0000000000000000e+00  0.0000000000000000e+00 0.0000000000000000e+00 0.0000000000000000e+00  0.0000000000000000e+00 0.0000000000000000e+00 0.0000000000000000e+00  0.0000000000000000e+00 0.0000000000000000e+00 0.0000000000000000e+00  0.0000000000000000e+00 0.0000000000000000e+00 0.0000000000000000e+00  0.0000000000000000e+00 0.0000000000000000e+00 0.0000000000000000e+00  0.0000000000000000e+00 0.0000000000000000e+00 0.0000000000000000e+00  0.0000000000000000e+00 0.0000000000000000e+00 0.0000000000000000e+00  0.0000000000000000e+00 0.0000000000000000e+00 0.0000000000000000e+00  0.0000000000000000e+00 0.0000000000000000e+00 0.0000000000000000e+00  0.0000000000000000e+00 0.0000000000000000e+00 0.0000000000000000e+00  0.0000000000000000e+00 0.0000000000000000e+00 0.0000000000000000e+00  0.0000000000000000e+00 0.0000000000000000e+00 0.0000000000000000e+00  0.0000000000000000e+00 0.0000000000000000e+00 0.0000000000000000e+00  0.0000000000000000e+00 0.0000000000000000e+00 0.0000000000000000e+00  0.0000000000000000e+00 0.0000000000000000e+00 0.0000000000000000e+00  0.0000000000000000e+00 0.0000000000000000e+00 0.0000000000000000e+00  0.0000000000000000e+00 0.0000000000000000e+00 0.0000000000000000e+00  0.0000000000000000e+00 0.0000000000000000e+00 0.0000000000000000e+00  0.0000000000000000e+00 0.0000000000000000e+00 0.0000000000000000e+00  0.0000000000000000e+00 0.0000000000000000e+00 0.0000000000000000e+00  0.0000000000000000e+00 0.0000000000000000e+00 0.0000000000000000e+00  0.0000000000000000e+00 0.0000000000000000e+00 0.0000000000000000e+00  0.0000000000000000e+00 0.0000000000000000e+00 0.0000000000000000e+00  0.0000000000000000e+00 0.0000000000000000e+00 0.0000000000000000e+00  0.0000000000000000e+00 0.0000000000000000e+00 0.0000000000000000e+00  0.0000000000000000e+00 0.0000000000000000e+00 0.0000000000000000e+00  0.0000000000000000e+00 0.0000000000000000e+00 0.0000000000000000e+00  0.0000000000000000e+00 0.0000000000000000e+00 0.0000000000000000e+00  0.0000000000000000e+00 0.0000000000000000e+00 0.0000000000000000e+00  0.0000000000000000e+00 0.0000000000000000e+00 0.0000000000000000e+00  0.0000000000000000e+00 0.0000000000000000e+00 0.0000000000000000e+00  0.0000000000000000e+00 0.0000000000000000e+00 0.0000000000000000e+00  0.0000000000000000e+00 0.0000000000000000e+00 0.0000000000000000e+00  0.0000000000000000e+00 0.0000000000000000e+00 0.0000000000000000e+00  0.0000000000000000e+00 0.0000000000000000e+00 0.0000000000000000e+00  0.0000000000000000e+00 0.0000000000000000e+00 0.0000000000000000e+00  -3.6254948824792174e-15 0.0000000000000000e+00 0.0000000000000000e+00  0.0000000000000000e+00 0.0000000000000000e+00 0.0000000000000000e+00  0.0000000000000000e+00 0.0000000000000000e+00 0.0000000000000000e+00  0.0000000000000000e+00 0.0000000000000000e+00 0.0000000000000000e+00  0.0000000000000000e+00 0.0000000000000000e+00 0.0000000000000000e+00  0.0000000000000000e+00 0.0000000000000000e+00 0.0000000000000000e+00  -7.4687644877811380e-13 4.7451423238596367e-17 0.0000000000000000e+00  0.0000000000000000e+00 0.0000000000000000e+00 0.0000000000000000e+00  0.0000000000000000e+00 0.0000000000000000e+00 0.0000000000000000e+00  0.0000000000000000e+00 0.0000000000000000e+00 0.0000000000000000e+00  0.0000000000000000e+00 0.0000000000000000e+00 0.0000000000000000e+00  0.0000000000000000e+00 0.0000000000000000e+00 0.0000000000000000e+00  0.0000000000000000e+00 0.0000000000000000e+00 0.0000000000000000e+00  0.0000000000000000e+00 0.0000000000000000e+00 0.0000000000000000e+00  0.0000000000000000e+00 0.0000000000000000e+00 0.0000000000000000e+00  0.0000000000000000e+00 0.0000000000000000e+00 0.0000000000000000e+00  0.0000000000000000e+00 0.0000000000000000e+00 0.0000000000000000e+00  -3.1525905226152701e-13 1.9907463439821728e-13 0.0000000000000000e+00  0.0000000000000000e+00 0.0000000000000000e+00 0.0000000000000000e+00  0.0000000000000000e+00 0.0000000000000000e+00 0.0000000000000000e+00  0.0000000000000000e+00 0.0000000000000000e+00 0.0000000000000000e+00  0.0000000000000000e+00 0.0000000000000000e+00 0.0000000000000000e+00  -7.9906186462513518e-14 -7.2102731137301536e-13 0.0000000000000000e+00  0.0000000000000000e+00 0.0000000000000000e+00 0.0000000000000000e+00  0.0000000000000000e+00 0.0000000000000000e+00 0.0000000000000000e+00  0.0000000000000000e+00 0.0000000000000000e+00 0.0000000000000000e+00  0.0000000000000000e+00 0.0000000000000000e+00 0.0000000000000000e+00  0.0000000000000000e+00 0.0000000000000000e+00 0.0000000000000000e+00  0.0000000000000000e+00 0.0000000000000000e+00 0.0000000000000000e+00  0.0000000000000000e+00 0.0000000000000000e+00 0.0000000000000000e+00  0.0000000000000000e+00 0.0000000000000000e+00 0.0000000000000000e+00  0.0000000000000000e+00 0.0000000000000000e+00 0.0000000000000000e+00  0.0000000000000000e+00 0.0000000000000000e+00 0.0000000000000000e+00  0.0000000000000000e+00 0.0000000000000000e+00 0.0000000000000000e+00  0.0000000000000000e+00 0.0000000000000000e+00 0.0000000000000000e+00  0.0000000000000000e+00 0.0000000000000000e+00 0.0000000000000000e+00  0.0000000000000000e+00 0.0000000000000000e+00 0.0000000000000000e+00  0.0000000000000000e+00 0.0000000000000000e+00 0.0000000000000000e+00  0.0000000000000000e+00 0.0000000000000000e+00 0.0000000000000000e+00  0.0000000000000000e+00 0.0000000000000000e+00 0.0000000000000000e+00  0.0000000000000000e+00 0.0000000000000000e+00 0.0000000000000000e+00  0.0000000000000000e+00 0.0000000000000000e+00 0.0000000000000000e+00  0.0000000000000000e+00 0.0000000000000000e+00 0.0000000000000000e+00  0.0000000000000000e+00 0.0000000000000000e+00 0.0000000000000000e+00  0.0000000000000000e+00 0.0000000000000000e+00 0.0000000000000000e+00  0.0000000000000000e+00 0.0000000000000000e+00 0.0000000000000000e+00  0.0000000000000000e+00 0.0000000000000000e+00 0.0000000000000000e+00  0.0000000000000000e+00 0.0000000000000000e+00 0.0000000000000000e+00  0.0000000000000000e+00 0.0000000000000000e+00 0.0000000000000000e+00  0.0000000000000000e+00 0.0000000000000000e+00 0.0000000000000000e+00  0.0000000000000000e+00 0.0000000000000000e+00 0.0000000000000000e+00  0.0000000000000000e+00 0.0000000000000000e+00 0.0000000000000000e+00  0.0000000000000000e+00 0.0000000000000000e+00 0.0000000000000000e+00  0.0000000000000000e+00 0.0000000000000000e+00 0.0000000000000000e+00  -1.0507112506427110e-14 4.6829203484584032e-14 0.0000000000000000e+00  -1.1889070088269379e-06 8.4658546368887799e-07 0.0000000000000000e+00  -2.4734913615747462e-06 3.0121967489704857e-06 0.0000000000000000e+00  -3.3795883905944166e-06 6.4593631715297927e-06 0.0000000000000000e+00  -4.3069870702738308e-06 1.1224567728218498e-05 0.0000000000000000e+00  -4.8695947623218278e-06 1.6965988212545314e-05 0.0000000000000000e+00  -5.5253276768426507e-06 2.3761642567720954e-05 0.0000000000000000e+00  -5.8411626151991549e-06 3.1285000191410719e-05 0.0000000000000000e+00  -6.0619546537806530e-06 3.9726964255338911e-05 0.0000000000000000e+00  -6.3732732754571057e-06 4.8824144130609159e-05 0.0000000000000000e+00  -6.3727219671115752e-06 5.8561347042199127e-05 0.0000000000000000e+00  -6.4924929795075109e-06 6.8900766768844105e-05 0.0000000000000000e+00  -6.3498984309387154e-06 7.9747013125107549e-05 0.0000000000000000e+00  -6.2791147149537222e-06 9.1060966024695078e-05 0.0000000000000000e+00  -6.0379328243649296e-06 1.0272600894197472e-04 0.0000000000000000e+00  -5.7531558800031216e-06 1.1479982603290168e-04 0.0000000000000000e+00  -5.5043420849488189e-06 1.2715711374880571e-04 0.0000000000000000e+00  -5.1205409051551434e-06 1.3978917732427587e-04 0.0000000000000000e+00  -4.7841071170917235e-06 1.5266306090314807e-04 0.0000000000000000e+00  -4.3428473450422986e-06 1.6574092668475800e-04 0.0000000000000000e+00  -3.9346980952395716e-06 1.7898554450531903e-04 0.0000000000000000e+00  -3.4653800791643516e-06 1.9238598139573326e-04 0.0000000000000000e+00  -3.0109855726873967e-06 2.0591233894477927e-04 0.0000000000000000e+00  -2.5180997703722734e-06 2.1952275032400154e-04 0.0000000000000000e+00  -2.0207346401642501e-06 2.3323221319869366e-04 0.0000000000000000e+00  -1.5341012321636913e-06 2.4699501121344447e-04 0.0000000000000000e+00  -1.0361864385771870e-06 2.6082276772412653e-04 0.0000000000000000e+00  -5.4650922805666512e-07 2.7468061402218002e-04 0.0000000000000000e+00  -5.9057994835141276e-08 2.8857563577633404e-04 0.0000000000000000e+00  4.1820750181842232e-07 3.0248187450282942e-04 0.0000000000000000e+00  8.8559059158990170e-07 3.1641078037935710e-04 0.0000000000000000e+00  1.3399533385897594e-06 3.3033534649252680e-04 0.0000000000000000e+00  1.7786383349157027e-06 3.4427350382146429e-04 0.0000000000000000e+00  2.2011735345879439e-06 3.5819636330141144e-04 0.0000000000000000e+00  2.6043018748264852e-06 3.7212841655616781e-04 0.0000000000000000e+00  2.9870501169953658e-06 3.8603802209909974e-04 0.0000000000000000e+00  3.3469402180076594e-06 3.9995533574904208e-04 0.0000000000000000e+00  3.6846875136776056e-06 4.1384784648840499e-04 0.0000000000000000e+00  3.9969080136115044e-06 4.2774822236177199e-04 0.0000000000000000e+00  4.2845532095054487e-06 4.4162336461733164e-04 0.0000000000000000e+00  4.5431510816934691e-06 4.5550952893252294e-04 0.0000000000000000e+00  4.7707751659071356e-06 4.6937788251472481e-04 0.0000000000000000e+00  4.9749648318893327e-06 4.8324856823149195e-04 0.0000000000000000e+00  5.1483197138839155e-06 4.9711377982555860e-04 0.0000000000000000e+00  5.3039888786775027e-06 5.1097859308407614e-04 0.0000000000000000e+00  5.4252462885536135e-06 5.2485409265710611e-04 0.0000000000000000e+00  5.5503071041839531e-06 5.3869654082109610e-04 0.0000000000000000e+00  1.4755999878887206e-05 5.5255945288722218e-04 0.0000000000000000e+00  3.3275293878677492e-05 5.5287731287413113e-04 0.0000000000000000e+00  4.2579382739880757e-05 5.3908680048437403e-04 0.0000000000000000e+00  4.2466117680225546e-05 5.2527852207420907e-04 0.0000000000000000e+00  4.2351634028020957e-05 5.1148931700808987e-04 0.0000000000000000e+00  4.2206340467358728e-05 4.9768431279250097e-04 0.0000000000000000e+00  4.2043483417851251e-05 4.8387638298267791e-04 0.0000000000000000e+00  4.1850667960185374e-05 4.7006353304282234e-04 0.0000000000000000e+00  4.1638258015863398e-05 4.5623976861170818e-04 0.0000000000000000e+00  4.1395477656580297e-05 4.4242122848776319e-04 0.0000000000000000e+00  4.1129922928739264e-05 4.2857674631918328e-04 0.0000000000000000e+00  4.0837653848636267e-05 4.1474210849795434e-04 0.0000000000000000e+00  4.0523213787291606e-05 4.0087938751977423e-04 0.0000000000000000e+00  4.0182512137215437e-05 3.8702533458872504e-04 0.0000000000000000e+00  3.9818948915472285e-05 3.7314394907860313e-04 0.0000000000000000e+00  3.9429191128866794e-05 3.5927229103810643e-04 0.0000000000000000e+00  3.9014308745005761e-05 3.4537641635260912e-04 0.0000000000000000e+00  3.8573286827659393e-05 3.3149530066981680e-04 0.0000000000000000e+00  3.8102768457458666e-05 3.1759649987212499e-04 0.0000000000000000e+00  3.7607842637154213e-05 3.0372105902554277e-04 0.0000000000000000e+00  3.7077450866094335e-05 2.8983893969287072e-04 0.0000000000000000e+00  3.6525212389406084e-05 2.7599350716013999e-04 0.0000000000000000e+00  3.5927626415996321e-05 2.6215775754671324e-04 0.0000000000000000e+00  3.5311703568756628e-05 2.4837827536509807e-04 0.0000000000000000e+00  3.4636084333701743e-05 2.3463875797863462e-04 0.0000000000000000e+00  3.3946248329482503e-05 2.2096295433102575e-04 0.0000000000000000e+00  3.3218103613204340e-05 2.0738197113656350e-04 0.0000000000000000e+00  3.2430762378186852e-05 1.9387667652356300e-04 0.0000000000000000e+00  3.1613630770684305e-05 1.8051611539883353e-04 0.0000000000000000e+00  3.0730758423424451e-05 1.6727504813388079e-04 0.0000000000000000e+00  2.9816231531286189e-05 1.5423182871218197e-04 0.0000000000000000e+00  2.8827118522361569e-05 1.4136374888420455e-04 0.0000000000000000e+00  2.7806352727524825e-05 1.2874343605553387e-04 0.0000000000000000e+00  2.6660909979159793e-05 1.1641389323880340e-04 0.0000000000000000e+00  2.5535812875760574e-05 1.0434619573157225e-04 0.0000000000000000e+00  2.4352135538651449e-05 9.2695146363488691e-05 0.0000000000000000e+00  2.3010945637062258e-05 8.1353438277036644e-05 0.0000000000000000e+00  2.1654463533199508e-05 7.0529697697263341e-05 0.0000000000000000e+00  2.0161796536705811e-05 6.0177011771138809e-05 0.0000000000000000e+00  1.8644638402074036e-05 5.0409967505073342e-05 0.0000000000000000e+00  1.6892062009551889e-05 4.1341117114701091e-05 0.0000000000000000e+00  1.5223590543134133e-05 3.2874271272522211e-05 0.0000000000000000e+00  1.3471134012340012e-05 2.5336385450040723e-05 0.0000000000000000e+00  1.1407916508401235e-05 1.8491873454585433e-05 0.0000000000000000e+00  9.3854162216005822e-06 1.2719846991895460e-05 0.0000000000000000e+00  7.0572116677907451e-06 8.0105706591979554e-06 0.0000000000000000e+00  4.8443637450856882e-06 4.4985226399386394e-06 0.0000000000000000e+00  2.3297793054485149e-06 2.1971537191014070e-06 0.0000000000000000e+00  7.7190216427572986e-07 1.7027606741040873e-06 0.0000000000000000e+00  2.3660563812812210e-05 5.3194826366335522e-04 0.0000000000000000e+00  2.3347059617622398e-05 5.0551202369590749e-04 0.0000000000000000e+00  2.2948243019330894e-05 4.6230322037516154e-04 0.0000000000000000e+00  2.2031396795245579e-06 8.7120379674677527e-06 0.0000000000000000e+00  2.2659992476541090e-05 4.3509830805702805e-04 0.0000000000000000e+00  3.6686633684686216e-06 1.9838074037825413e-05 0.0000000000000000e+00  2.2058309878712132e-05 4.0736226005878205e-04 0.0000000000000000e+00  5.9693433172542658e-06 4.4920107539654797e-05 0.0000000000000000e+00  7.2253916269116152e-06 6.4115780116467171e-05 0.0000000000000000e+00  2.1359896872440850e-05 3.7958889063653949e-04 0.0000000000000000e+00  1.1039641782215556e-05 1.2207467829219201e-04 0.0000000000000000e+00  1.9690354210682872e-05 3.2395478891763353e-04 0.0000000000000000e+00  8.8039845954783856e-06 8.4955617324057909e-05 0.0000000000000000e+00  1.2161100828958148e-05 1.4683793353487555e-04 0.0000000000000000e+00  1.8727780051132312e-05 2.9613972378947291e-04 0.0000000000000000e+00  2.0569214059977486e-05 3.5178140767310525e-04 0.0000000000000000e+00  1.3491092877431887e-05 1.7300012220002614e-04 0.0000000000000000e+00  1.7686307753723503e-05 2.6838461858434969e-04 0.0000000000000000e+00  1.4956251223777628e-05 1.9871201089010490e-04 0.0000000000000000e+00  1.6362207959776854e-05 2.4132131798981906e-04 0.0000000000000000e+00  1.5638541559229639e-05 2.1908074458382076e-04 0.0000000000000000e+00  9.6405748862717106e-06 1.0231961869646602e-04 0.0000000000000000e+00  2.3507141736105668e-05 4.8477651701956092e-04 0.0000000000000000e+00  4.6411032515392520e-06 3.1033280607269550e-05 0.0000000000000000e+00  3.0028872896384797e-05 5.1871111595161912e-04 0.0000000000000000e+00  3.0794367086879134e-06 4.9573464974322667e-06 0.0000000000000000e+00  2.7774214391294796e-05 4.2135929743040881e-04 0.0000000000000000e+00  2.8320939268384827e-05 4.4906444070143866e-04 0.0000000000000000e+00  2.7657240963100534e-07 1.3822277093038663e-05 0.0000000000000000e+00  2.7508368474032952e-06 5.3840917507095852e-05 0.0000000000000000e+00  2.5555845470863305e-05 3.3803372152154694e-04 0.0000000000000000e+00  2.7129659457171925e-05 3.9361860542743316e-04 0.0000000000000000e+00  6.5902271141720188e-06 1.3385759678620130e-04 0.0000000000000000e+00  2.4629721587037597e-05 3.1022080101653722e-04 0.0000000000000000e+00  3.7838525260314578e-06 7.4558175038568465e-05 0.0000000000000000e+00  7.7715244273855802e-06 1.5961939032551063e-04 0.0000000000000000e+00  2.3612191151252342e-05 2.8244091191385141e-04 0.0000000000000000e+00  2.6389525215745658e-05 3.6584067890577164e-04 0.0000000000000000e+00  7.8018422978800545e-06 1.8592824322639662e-04 0.0000000000000000e+00  2.2504766308170057e-05 2.5475271192568585e-04 0.0000000000000000e+00  -7.6229013102544685e-09 2.4767243096166861e-07 0.0000000000000000e+00  5.5189665138346684e-07 5.4284837984566082e-07 0.0000000000000000e+00  1.9434351171421438e-05 5.4277560717000157e-04 0.0000000000000000e+00  -2.8315226718496426e-07 4.3622844169728986e-06 0.0000000000000000e+00  2.2697003707171942e-05 2.3036450065124108e-04 0.0000000000000000e+00  1.6045945450497785e-05 1.1243892540351836e