<?xml version="1.0"?>
<VTKFile type="UnstructuredGrid"  version="0.1"  >
<UnstructuredGrid>
<Piece  NumberOfPoints="1419" NumberOfCells="2698">
<Points>
<DataArray  type="Float64"  NumberOfComponents="3"  format="ascii">0 0 0  0 0.41 0  2.5 0 0  2.5 0.41 0  0.6 0.19 0  0.6 0.21 0  0.25 0.2 0  0.15 0.2 0  0.2489897948556636 0.21 0  0.2489897948556636 0.19 0  0.6 0.2 0  0 0.3807142857143437 0  0 0.3514285714286952 0  0 0.3221428571430699 0  0 0.29285714285744 0  0 0.2635714285718054 0  0 0.2342857142861561 0  0 0.2050000000005308 0  0 0.175714285714732 0  0 0.1464285714289574 0  0 0.1171428571431897 0  0 0.08785714285737878 0  0 0.05857142857161107 0  0 0.02928571428580012 0  0.03015443760436003 0 0  0.06140001986583606 0 0  0.09377624077125973 0 0  0.1273239957535082 0 0  0.1620856860351972 0 0  0.1981052433264291 0 0  0.235428184091502 0 0  0.2741016576309132 0 0  0.3141745521465447 0 0  0.3556974926295285 0 0  0.3987229542472677 0 0  0.4433053055141081 0 0  0.4895008759286886 0 0  0.5373680609405097 0 0  0.5869673343216626 0 0  0.6383613676634521 0 0  0.6916151138468254 0 0  0.7467958595648856 0 0  0.8039733463919316 0 0  0.8632198139502143 0 0  0.9246101326867038 0 0  0.9882218810934433 0 0  1.054135445558498 0 0  1.122434100542598 0 0  1.193204177141305 0 0  1.266535089879536 0 0  1.342519516046404 0 0  1.421253448503939 0 0  1.502836389106271 0 0  1.587371439758838 0 0  1.674965418777374 0 0  1.765729001825544 0 0  1.859776908880082 0 0  1.957227977487062 0 0  2.058205329869943 0 0  2.162836591189951 0 0  2.271253957290865 0 0  2.383594446803425 0 0  2.5 0.1024999999997612 0  2.5 0.2049999999994743 0  2.5 0.3074999999997183 0  2.383594446803656 0.41 0  2.271253957291315 0.41 0  2.162836591190598 0.41 0  2.058205329870775 0.41 0  1.957227977488067 0.41 0  1.859776908881246 0.41 0  1.765729001826854 0.41 0  1.674965418778818 0.41 0  1.58737143976041 0.41 0  1.502836389107956 0.41 0  1.421253448505726 0.41 0  1.342519516048286 0.41 0  1.266535089881505 0.41 0  1.193204177143353 0.41 0  1.122434100544716 0.41 0  1.05413544556068 0.41 0  0.9882218810956305 0.41 0  0.9246101326886647 0.41 0  0.8632198139519631 0.41 0  0.8039733463934788 0.41 0  0.7467958595662458 0.41 0  0.6916151138480078 0.41 0  0.6383613676644679 0.41 0  0.5869673343225223 0.41 0  0.5373680609412221 0.41 0  0.4895008759292634 0.41 0  0.4433053055145528 0.41 0  0.3987229542475914 0.41 0  0.3556974926297398 0.41 0  0.3141745521466497 0.41 0  0.2741016576310038 0.41 0  0.2354281840915826 0.41 0  0.1981052433265003 0.41 0  0.1620856860352591 0.41 0  0.1273239957535623 0.41 0  0.09377624077128965 0.41 0  0.06140001986584975 0.41 0  0.03015443760436654 0.41 0  0.2497468076502589 0.2050254481002335 0  0.2497468076502614 0.1949745518997913 0  0.2469965252529372 0.1829317073451959 0  0.2439893735792749 0.1762316384219906 0  0.2400332147834255 0.1700443375285386 0  0.2352133972704371 0.1645032867342007 0  0.2296339016332438 0.1597280261969788 0  0.2234150974217223 0.1558215752574715 0  0.2166911463437691 0.1528682099456123 0  0.2096071079204251 0.1509316448471593 0  0.2023158100364996 0.1500536585536553 0  0.194974551899914 0.1502531923497262 0  0.1877417105387872 0.1515259415822739 0  0.1807733240461124 0.153844448527136 0  0.1742197252835808 0.15715869474974 0  0.1682222986673531 0.1613971801805478 0  0.162910430003803 0.1664684656256651 0  0.1583987151779087 0.1722631454351573 0  0.1547844879126891 0.178656207771761 0  0.1521457199348551 0.1855097315605723 0  0.1505393388476355 0.1926758619366523 0  0.1505393388476328 0.2073241380633295 0  0.1521457199348437 0.2144902684393899 0  0.1547844879126531 0.221343792228163 0  0.1583987151778488 0.2277368545647528 0  0.1629104300036858 0.2335315343742052 0  0.1682222986671726 0.2386028198193036 0  0.1742197252833576 0.2428413052501257 0  0.1807733240458683 0.2461555514727623 0  0.1877417105384929 0.2484740584176516 0  0.1949745518995776 0.2497468076502398 0  0.202315810036185 0.2499463414463592 0  0.2096071079201568 0.2490683551528932 0  0.2166911463435495 0.2471317900544655 0  0.2234150974215506 0.2441784247426195 0  0.2296339016331197 0.2402719738031125 0  0.2352133972703547 0.2354967132658811 0  0.2400332147833751 0.2299556624715287 0  0.2439893735792577 0.2237683615780412 0  0.246996525252926 0.2170682926548348 0  0.25645809709277 0.21 0  0.2639263993298655 0.21 0  0.271394701566961 0.21 0  0.2788630038040554 0.21 0  0.2863313060411479 0.21 0  0.2937996082782405 0.21 0  0.301267910515333 0.21 0  0.3087362127524279 0.21 0  0.3162045149895234 0.21 0  0.3236728172265972 0.21 0  0.3311411194636928 0.21 0  0.3386094217007701 0.21 0  0.3460777239378666 0.21 0  0.3535460261749672 0.21 0  0.3610143284120516 0.21 0  0.3684826306491596 0.21 0  0.3759509328862226 0.21 0  0.383419235123329 0.21 0  0.3908875373604028 0.21 0  0.3983558395975142 0.21 0  0.4058241418345938 0.21 0  0.4132924440716992 0.21 0  0.4207607463087888 0.21 0  0.4282290485459029 0.21 0  0.4356973507830418 0.21 0  0.4431656530201649 0.21 0  0.4506339552573136 0.21 0  0.4581022574944306 0.21 0  0.4655705597315852 0.21 0  0.4730388619686996 0.21 0  0.480507164205851 0.21 0  0.4879754664429498 0.21 0  0.4954437686800938 0.21 0  0.502912070917267 0.21 0  0.5103803731544119 0.21 0  0.5178486753915261 0.21 0  0.5253169776286404 0.21 0  0.5327852798657868 0.21 0  0.5402535821029386 0.21 0  0.54772188434007 0.21 0  0.5551901865771842 0.21 0  0.5626584888143201 0.21 0  0.5701267910514778 0.21 0  0.5775950932886138 0.21 0  0.5850633955257281 0.21 0  0.5925316977628483 0.21 0  0.6 0.2050000000000054 0  0.6 0.1950000000000217 0  0.5925316977628897 0.19 0  0.5850633955257988 0.19 0  0.5775950932887378 0.19 0  0.5701267910515998 0.19 0  0.5626584888145268 0.19 0  0.5551901865773963 0.19 0  0.547721884340339 0.19 0  0.5402535821032429 0.19 0  0.5327852798661811 0.19 0  0.5253169776290537 0.19 0  0.5178486753919799 0.19 0  0.5103803731549078 0.19 0  0.502912070917822 0.19 0  0.4954437686807294 0.19 0  0.4879754664436223 0.19 0  0.4805071642065402 0.19 0  0.4730388619694271 0.19 0  0.4655705597323621 0.19 0  0.4581022574952563 0.19 0  0.4506339552581777 0.19 0  0.4431656530210671 0.19 0  0.4356973507839815 0.19 0  0.4282290485468779 0.19 0  0.4207607463097617 0.19 0  0.4132924440726327 0.19 0  0.4058241418354857 0.19 0  0.3983558395983636 0.19 0  0.3908875373612097 0.19 0  0.3834192351240934 0.19 0  0.3759509328869369 0.19 0  0.3684826306498175 0.19 0  0.361014328412667 0.19 0  0.3535460261755617 0.19 0  0.3460777239384295 0.19 0  0.3386094217012945 0.19 0  0.3311411194641595 0.19 0  0.3236728172270245 0.19 0  0.3162045149898895 0.19 0  0.3087362127527544 0.19 0  0.3012679105156187 0.19 0  0.2937996082784807 0.19 0  0.2863313060413428 0.19 0  0.2788630038042048 0.19 0  0.2713947015670686 0.19 0  0.2639263993299336 0.19 0  0.2564580970927985 0.19 0  0.2607803159922026 0.2000727136295815 0  0.5887803774232762 0.2001272386983733 0  0.5745072403740523 0.2002044435018727 0  0.5511891430099709 0.2001122610077113 0  0.2751288526855082 0.20000000000002 0  0.5365194309847112 0.1999999999999436 0  0.2894621222999649 0.1998691686390484 0  0.5215828265105155 0.1999999999999228 0  0.3127789816668748 0.1998657885438805 0  0.3274069683451451 0.2000000000000796 0  0.5066462220363641 0.199999999999908 0  0.3650630746574081 0.199866017807523 0  0.476773013087985 0.1999999999998713 0  0.3417402379596385 0.1998691686391011 0  0.3796850840047755 0.200000000000134 0  0.4618364086138087 0.1999999999998546 0  0.4917096175621762 0.1999999999998808 0  0.3946216884789568 0.2000000000001512 0  0.446899804139621 0.1999999999998389 0  0.4089549580935208 0.1998691686391595 0  0.4322718174608562 0.200127451265745 0  0.4201487168029707 0.1999966199048527 0  0.3528922713220932 0.2000185703532356 0  0.5633122436674589 0.1999814296467508 0  0.3006558810093873 0.1999966199048318 0  0.5815926498168407 0.1966545283159175 0  0.2677053789419034 0.1964246479135325 0  0.5290511287476175 0.1970915826863981 0  0.5439877332217911 0.197091582686394 0  0.2825131256993216 0.2035478995978015 0  0.3199386661080599 0.202908417313604 0  0.4842413153250809 0.1970915826863873 0  0.5141145242734466 0.1970915826863843 0  0.3722167817676917 0.2029084173136195 0  0.4693047108508938 0.1970915826863783 0  0.3348752705822316 0.202908417313609 0  0.3871533862418661 0.2029084173136212 0  0.4543681063767183 0.1970915826863795 0  0.4991779197992749 0.1970915826863902 0  0.4020059614928624 0.203547899597858 0  0.4394315019025246 0.1970915826863714 0  0.2550657455369551 0.2034088125358657 0  0.2548908499171161 0.1966940311614271 0  0.5946539510196798 0.2024302972968126 0  0.267698176732111 0.2039977513680092 0  0.4261685417851465 0.196409292431739 0  0.3590076176283495 0.196411355804271 0  0.5571672426447437 0.2036011176410121 0  0.3066757059912147 0.1964092924317024 0  0.594380730180568 0.1966558399668133 0  0.4842413153245942 0.2040749161535287 0  0.4693047108503577 0.2040749161535231 0  0.3871533862424271 0.1959250838464788 0  0.372246743208829 0.1959123236376545 0  0.5141145242731028 0.2040749161535395 0  0.4543681063761134 0.2040749161535186 0  0.4019979587101454 0.1959834479682427 0  0.4394608940728603 0.2040870543693135 0  0.5439623148931173 0.2040856076781014 0  0.5290511287473298 0.2040749161535501 0  0.4991779197988497 0.2040749161535382 0  0.3347912413592433 0.1959225448935183 0  0.3199680582793816 0.1959123018030061 0  0.2825051229162361 0.1959834479681729 0  0.3590471196690275 0.2036304442587945 0  0.5571594006495384 0.1963685282145804 0  0.3067669986803285 0.203627750582736 0  0.4262598344738712 0.2036568242185335 0  0.5814408164431408 0.2041285596160068 0  0.5688286748170428 0.1961819304477386 0  0.4145905603063645 0.2038180695522843 0  0.3473758401724931 0.2038180695522752 0  0.2950977245128307 0.2038180695522663 0  0.5688286748170693 0.203818069552238 0  0.2950977245127906 0.1961819304477774 0  0.3473758401723931 0.1961819304478349 0  0.4145905603061963 0.1961819304479011 0  0.2601812407614425 0.2056861609747042
[...]
<PointData  Vectors="f_46-2"> 
<DataArray  type="Float64"  Name="f_46-2"  NumberOfComponents="3" format="ascii">0.0000000000000000e+00 0.0000000000000000e+00 0.0000000000000000e+00  0.0000000000000000e+00 0.0000000000000000e+00 0.0000000000000000e+00  0.0000000000000000e+00 0.0000000000000000e+00 0.0000000000000000e+00  0.0000000000000000e+00 0.0000000000000000e+00 0.0000000000000000e+00  3.0118931342495548e-05 1.8900601754992890e-04 0.0000000000000000e+00  2.0858716760451138e-05 1.8835694905426609e-04 0.0000000000000000e+00  0.0000000000000000e+00 0.0000000000000000e+00 0.0000000000000000e+00  0.0000000000000000e+00 0.0000000000000000e+00 0.0000000000000000e+00  0.0000000000000000e+00 0.0000000000000000e+00 0.0000000000000000e+00  0.0000000000000000e+00 0.0000000000000000e+00 0.0000000000000000e+00  2.5199132418342974e-05 1.8868045905012291e-04 0.0000000000000000e+00  0.0000000000000000e+00 0.0000000000000000e+00 0.0000000000000000e+00  0.0000000000000000e+00 0.0000000000000000e+00 0.0000000000000000e+00  0.0000000000000000e+00 0.0000000000000000e+00 0.0000000000000000e+00  0.0000000000000000e+00 0.0000000000000000e+00 0.0000000000000000e+00  0.0000000000000000e+00 0.0000000000000000e+00 0.0000000000000000e+00  0.0000000000000000e+00 0.0000000000000000e+00 0.0000000000000000e+00  0.0000000000000000e+00 0.0000000000000000e+00 0.0000000000000000e+00  0.0000000000000000e+00 0.0000000000000000e+00 0.0000000000000000e+00  0.0000000000000000e+00 0.0000000000000000e+00 0.0000000000000000e+00  0.0000000000000000e+00 0.0000000000000000e+00 0.0000000000000000e+00  0.0000000000000000e+00 0.0000000000000000e+00 0.0000000000000000e+00  0.0000000000000000e+00 0.0000000000000000e+00 0.0000000000000000e+00  0.0000000000000000e+00 0.0000000000000000e+00 0.0000000000000000e+00  0.0000000000000000e+00 0.0000000000000000e+00 0.0000000000000000e+00  0.0000000000000000e+00 0.0000000000000000e+00 0.0000000000000000e+00  0.0000000000000000e+00 0.0000000000000000e+00 0.0000000000000000e+00  0.0000000000000000e+00 0.0000000000000000e+00 0.0000000000000000e+00  0.0000000000000000e+00 0.0000000000000000e+00 0.0000000000000000e+00  0.0000000000000000e+00 0.0000000000000000e+00 0.0000000000000000e+00  0.0000000000000000e+00 0.0000000000000000e+00 0.0000000000000000e+00  0.0000000000000000e+00 0.0000000000000000e+00 0.0000000000000000e+00  0.0000000000000000e+00 0.0000000000000000e+00 0.0000000000000000e+00  0.0000000000000000e+00 0.0000000000000000e+00 0.0000000000000000e+00  0.0000000000000000e+00 0.0000000000000000e+00 0.0000000000000000e+00  -1.7595263414995435e-13 -3.8618192081550580e-17 0.0000000000000000e+00  0.0000000000000000e+00 0.0000000000000000e+00 0.0000000000000000e+00  0.0000000000000000e+00 0.0000000000000000e+00 0.0000000000000000e+00  0.0000000000000000e+00 0.0000000000000000e+00 0.0000000000000000e+00  0.0000000000000000e+00 0.0000000000000000e+00 0.0000000000000000e+00  0.0000000000000000e+00 0.0000000000000000e+00 0.0000000000000000e+00  0.0000000000000000e+00 0.0000000000000000e+00 0.0000000000000000e+00  0.0000000000000000e+00 0.0000000000000000e+00 0.0000000000000000e+00  0.0000000000000000e+00 0.0000000000000000e+00 0.0000000000000000e+00  0.0000000000000000e+00 0.0000000000000000e+00 0.0000000000000000e+00  0.0000000000000000e+00 0.0000000000000000e+00 0.0000000000000000e+00  0.0000000000000000e+00 0.0000000000000000e+00 0.0000000000000000e+00  0.0000000000000000e+00 0.0000000000000000e+00 0.0000000000000000e+00  0.0000000000000000e+00 0.0000000000000000e+00 0.0000000000000000e+00  0.0000000000000000e+00 0.0000000000000000e+00 0.0000000000000000e+00  0.0000000000000000e+00 0.0000000000000000e+00 0.0000000000000000e+00  0.0000000000000000e+00 0.0000000000000000e+00 0.0000000000000000e+00  0.0000000000000000e+00 0.0000000000000000e+00 0.0000000000000000e+00  0.0000000000000000e+00 0.0000000000000000e+00 0.0000000000000000e+00  0.0000000000000000e+00 0.0000000000000000e+00 0.0000000000000000e+00  0.0000000000000000e+00 0.0000000000000000e+00 0.0000000000000000e+00  0.0000000000000000e+00 0.0000000000000000e+00 0.0000000000000000e+00  0.0000000000000000e+00 0.0000000000000000e+00 0.0000000000000000e+00  0.0000000000000000e+00 0.0000000000000000e+00 0.0000000000000000e+00  0.0000000000000000e+00 0.0000000000000000e+00 0.0000000000000000e+00  0.0000000000000000e+00 0.0000000000000000e+00 0.0000000000000000e+00  0.0000000000000000e+00 0.0000000000000000e+00 0.0000000000000000e+00  0.0000000000000000e+00 0.0000000000000000e+00 0.0000000000000000e+00  0.0000000000000000e+00 0.0000000000000000e+00 0.0000000000000000e+00  0.0000000000000000e+00 0.0000000000000000e+00 0.0000000000000000e+00  0.0000000000000000e+00 0.0000000000000000e+00 0.0000000000000000e+00  0.0000000000000000e+00 0.0000000000000000e+00 0.0000000000000000e+00  0.0000000000000000e+00 0.0000000000000000e+00 0.0000000000000000e+00  0.0000000000000000e+00 0.0000000000000000e+00 0.0000000000000000e+00  0.0000000000000000e+00 0.0000000000000000e+00 0.0000000000000000e+00  0.0000000000000000e+00 0.0000000000000000e+00 0.0000000000000000e+00  0.0000000000000000e+00 0.0000000000000000e+00 0.0000000000000000e+00  0.0000000000000000e+00 0.0000000000000000e+00 0.0000000000000000e+00  0.0000000000000000e+00 0.0000000000000000e+00 0.0000000000000000e+00  0.0000000000000000e+00 0.0000000000000000e+00 0.0000000000000000e+00  0.0000000000000000e+00 0.0000000000000000e+00 0.0000000000000000e+00  0.0000000000000000e+00 0.0000000000000000e+00 0.0000000000000000e+00  0.0000000000000000e+00 0.0000000000000000e+00 0.0000000000000000e+00  0.0000000000000000e+00 0.0000000000000000e+00 0.0000000000000000e+00  0.0000000000000000e+00 0.0000000000000000e+00 0.0000000000000000e+00  0.0000000000000000e+00 0.0000000000000000e+00 0.0000000000000000e+00  0.0000000000000000e+00 0.0000000000000000e+00 0.0000000000000000e+00  0.0000000000000000e+00 0.0000000000000000e+00 0.0000000000000000e+00  0.0000000000000000e+00 0.0000000000000000e+00 0.0000000000000000e+00  0.0000000000000000e+00 0.0000000000000000e+00 0.0000000000000000e+00  0.0000000000000000e+00 0.0000000000000000e+00 0.0000000000000000e+00  0.0000000000000000e+00 0.0000000000000000e+00 0.0000000000000000e+00  0.0000000000000000e+00 0.0000000000000000e+00 0.0000000000000000e+00  3.5477073368009460e-10 0.0000000000000000e+00 0.0000000000000000e+00  0.0000000000000000e+00 0.0000000000000000e+00 0.0000000000000000e+00  0.0000000000000000e+00 0.0000000000000000e+00 0.0000000000000000e+00  0.0000000000000000e+00 0.0000000000000000e+00 0.0000000000000000e+00  0.0000000000000000e+00 0.0000000000000000e+00 0.0000000000000000e+00  0.0000000000000000e+00 0.0000000000000000e+00 0.0000000000000000e+00  1.0666834118462712e-13 2.0642119292523340e-17 0.0000000000000000e+00  0.0000000000000000e+00 0.0000000000000000e+00 0.0000000000000000e+00  0.0000000000000000e+00 0.0000000000000000e+00 0.0000000000000000e+00  0.0000000000000000e+00 0.0000000000000000e+00 0.0000000000000000e+00  0.0000000000000000e+00 0.0000000000000000e+00 0.0000000000000000e+00  0.0000000000000000e+00 0.0000000000000000e+00 0.0000000000000000e+00  0.0000000000000000e+00 0.0000000000000000e+00 0.0000000000000000e+00  0.0000000000000000e+00 0.0000000000000000e+00 0.0000000000000000e+00  0.0000000000000000e+00 0.0000000000000000e+00 0.0000000000000000e+00  0.0000000000000000e+00 0.0000000000000000e+00 0.0000000000000000e+00  0.0000000000000000e+00 0.0000000000000000e+00 0.0000000000000000e+00  -1.5824366567290551e-12 4.2272979312764700e-14 0.0000000000000000e+00  0.0000000000000000e+00 0.0000000000000000e+00 0.0000000000000000e+00  0.0000000000000000e+00 0.0000000000000000e+00 0.0000000000000000e+00  0.0000000000000000e+00 0.0000000000000000e+00 0.0000000000000000e+00  0.0000000000000000e+00 0.0000000000000000e+00 0.0000000000000000e+00  8.6622706476472152e-13 -2.0755103061125281e-18 0.0000000000000000e+00  0.0000000000000000e+00 0.0000000000000000e+00 0.0000000000000000e+00  0.0000000000000000e+00 0.0000000000000000e+00 0.0000000000000000e+00  0.0000000000000000e+00 0.0000000000000000e+00 0.0000000000000000e+00  0.0000000000000000e+00 0.0000000000000000e+00 0.0000000000000000e+00  0.0000000000000000e+00 0.0000000000000000e+00 0.0000000000000000e+00  0.0000000000000000e+00 0.0000000000000000e+00 0.0000000000000000e+00  0.0000000000000000e+00 0.0000000000000000e+00 0.0000000000000000e+00  0.0000000000000000e+00 0.0000000000000000e+00 0.0000000000000000e+00  0.0000000000000000e+00 0.0000000000000000e+00 0.0000000000000000e+00  0.0000000000000000e+00 0.0000000000000000e+00 0.0000000000000000e+00  0.0000000000000000e+00 0.0000000000000000e+00 0.0000000000000000e+00  0.0000000000000000e+00 0.0000000000000000e+00 0.0000000000000000e+00  0.0000000000000000e+00 0.0000000000000000e+00 0.0000000000000000e+00  0.0000000000000000e+00 0.0000000000000000e+00 0.0000000000000000e+00  0.0000000000000000e+00 0.0000000000000000e+00 0.0000000000000000e+00  0.0000000000000000e+00 0.0000000000000000e+00 0.0000000000000000e+00  0.0000000000000000e+00 0.0000000000000000e+00 0.0000000000000000e+00  0.0000000000000000e+00 0.0000000000000000e+00 0.0000000000000000e+00  0.0000000000000000e+00 0.0000000000000000e+00 0.0000000000000000e+00  0.0000000000000000e+00 0.0000000000000000e+00 0.0000000000000000e+00  0.0000000000000000e+00 0.0000000000000000e+00 0.0000000000000000e+00  0.0000000000000000e+00 0.0000000000000000e+00 0.0000000000000000e+00  0.0000000000000000e+00 0.0000000000000000e+00 0.0000000000000000e+00  0.0000000000000000e+00 0.0000000000000000e+00 0.0000000000000000e+00  0.0000000000000000e+00 0.0000000000000000e+00 0.0000000000000000e+00  0.0000000000000000e+00 0.0000000000000000e+00 0.0000000000000000e+00  0.0000000000000000e+00 0.0000000000000000e+00 0.0000000000000000e+00  0.0000000000000000e+00 0.0000000000000000e+00 0.0000000000000000e+00  0.0000000000000000e+00 0.0000000000000000e+00 0.0000000000000000e+00  0.0000000000000000e+00 0.0000000000000000e+00 0.0000000000000000e+00  0.0000000000000000e+00 0.0000000000000000e+00 0.0000000000000000e+00  2.8427481987674920e-12 -6.9308320644096982e-13 0.0000000000000000e+00  -4.0196270690711549e-07 2.0185536383185353e-07 0.0000000000000000e+00  -7.9924938216272625e-07 1.4277282651318875e-06 0.0000000000000000e+00  -9.3116429151827843e-07 3.3399357993720829e-06 0.0000000000000000e+00  -1.0248292687952428e-06 5.9442790498589631e-06 0.0000000000000000e+00  -8.9907193216018434e-07 9.0057491766546282e-06 0.0000000000000000e+00  -7.7438596941533094e-07 1.2555218272429110e-05 0.0000000000000000e+00  -4.6991979757962858e-07 1.6415147800351494e-05 0.0000000000000000e+00  -9.2453938808692307e-08 2.0646456620648216e-05 0.0000000000000000e+00  2.8368970839538473e-07 2.5120910844833422e-05 0.0000000000000000e+00  8.0101739147145898e-07 2.9806628226790663e-05 0.0000000000000000e+00  1.3140364428330966e-06 3.4675825797849592e-05 0.0000000000000000e+00  1.9250073000353560e-06 3.9666570901376286e-05 0.0000000000000000e+00  2.5508532357885283e-06 4.4754406612614054e-05 0.0000000000000000e+00  3.2274148958121171e-06 4.9893704787407761e-05 0.0000000000000000e+00  3.9311587459382613e-06 5.5071486864306671e-05 0.0000000000000000e+00  4.6554454130368669e-06 6.0255302213513700e-05 0.0000000000000000e+00  5.3962358732367052e-06 6.5426603305360930e-05 0.0000000000000000e+00  6.1607634195169890e-06 7.0562458297472935e-05 0.0000000000000000e+00  6.9176890387876332e-06 7.5652391513598193e-05 0.0000000000000000e+00  7.6978914527678688e-06 8.0677515597426936e-05 0.0000000000000000e+00  8.4598540979946843e-06 8.5632537081829215e-05 0.0000000000000000e+00  9.2364705042411005e-06 9.0498935365939623e-05 0.0000000000000000e+00  9.9844664485730781e-06 9.5291184305528270e-05 0.0000000000000000e+00  1.0723333915672211e-05 9.9978754681498877e-05 0.0000000000000000e+00  1.1473104544845242e-05 1.0458345966211974e-04 0.0000000000000000e+00  1.2186966734269386e-05 1.0909144767087163e-04 0.0000000000000000e+00  1.2890013476255773e-05 1.1349278546297076e-04 0.0000000000000000e+00  1.3562946971434036e-05 1.1781438983868719e-04 0.0000000000000000e+00  1.4221259242864512e-05 1.2202967224252409e-04 0.0000000000000000e+00  1.4845430531648555e-05 1.2617355223313301e-04 0.0000000000000000e+00  1.5451244441937823e-05 1.3021734792680365e-04 0.0000000000000000e+00  1.6020243555999061e-05 1.3420083909870592e-04 0.0000000000000000e+00  1.6567139048283195e-05 1.3809329765138723e-04 0.0000000000000000e+00  1.7076696079411386e-05 1.4193884698745303e-04 0.0000000000000000e+00  1.7559496562194042e-05 1.4570384322404583e-04 0.0000000000000000e+00  1.8004242456227241e-05 1.4943593706544337e-04 0.0000000000000000e+00  1.8420615151191067e-05 1.5310038529706957e-04 0.0000000000000000e+00  1.8799014723249086e-05 1.5674489785901614e-04 0.0000000000000000e+00  1.9147017254130191e-05 1.6033409718618270e-04 0.0000000000000000e+00  1.9455944338444643e-05 1.6391694265202071e-04 0.0000000000000000e+00  1.9729189816116537e-05 1.6746124420378817e-04 0.0000000000000000e+00  1.9970461490245947e-05 1.7099869805932988e-04 0.0000000000000000e+00  2.0175363818345285e-05 1.7451862509394777e-04 0.0000000000000000e+00  2.0360919811556577e-05 1.7803234434284461e-04 0.0000000000000000e+00  2.0506059636462740e-05 1.8155143609385605e-04 0.0000000000000000e+00  2.0652850271803013e-05 1.8503204368208140e-04 0.0000000000000000e+00  2.2931137007690737e-05 1.8852344528689087e-04 0.0000000000000000e+00  2.7572737455502961e-05 1.8883411123428228e-04 0.0000000000000000e+00  2.9928702224495914e-05 1.8540223427893464e-04 0.0000000000000000e+00  2.9805375275471566e-05 1.8195795612131589e-04 0.0000000000000000e+00  2.9680831143192556e-05 1.7852956542353590e-04 0.0000000000000000e+00  2.9528375349147877e-05 1.7507920254880547e-04 0.0000000000000000e+00  2.9357917082587754e-05 1.7161979868424951e-04 0.0000000000000000e+00  2.9159569462592807e-05 1.6814385225438183e-04 0.0000000000000000e+00  2.8948652890474070e-05 1.6464542480446119e-04 0.0000000000000000e+00  2.8705522538990637e-05 1.6113474900286188e-04 0.0000000000000000e+00  2.8452510003314612e-05 1.5757738082765321e-04 0.0000000000000000e+00  2.8168858540038299e-05 1.5400224598036868e-04 0.0000000000000000e+00  2.7881616181116357e-05 1.5036826345340764e-04 0.0000000000000000e+00  2.7562140777302367e-05 1.4670261985735719e-04 0.0000000000000000e+00  2.7244961560087954e-05 1.4296604852156880e-04 0.0000000000000000e+00  2.6892493773882617e-05 1.3918348190181712e-04 0.0000000000000000e+00  2.6547453497312380e-05 1.3531777827178673e-04 0.0000000000000000e+00  2.6163030168936255e-05 1.3139341587213937e-04 0.0000000000000000e+00  2.5789810226838610e-05 1.2737474169342389e-04 0.0000000000000000e+00  2.5374036529496080e-05 1.2328598261445364e-04 0.0000000000000000e+00  2.4972520222028257e-05 1.1909402743582718e-04 0.0000000000000000e+00  2.4525082571810073e-05 1.1482346570351196e-04 0.0000000000000000e+00  2.4092941802883787e-05 1.1044308680989078e-04 0.0000000000000000e+00  2.3612046227541835e-05 1.0597838688560535e-04 0.0000000000000000e+00  2.3138725343488466e-05 1.0140584440720904e-04 0.0000000000000000e+00  2.2625985163714869e-05 9.6748943880879885e-05 0.0000000000000000e+00  2.2090386721540940e-05 9.1983891537329981e-05 0.0000000000000000e+00  2.1557685857452324e-05 8.7143964351000071e-05 0.0000000000000000e+00  2.0982090841632438e-05 8.2219607673699425e-05 0.0000000000000000e+00  2.0388538999883275e-05 7.7209640183296564e-05 0.0000000000000000e+00  1.9759490434679394e-05 7.2149075048838200e-05 0.0000000000000000e+00  1.9103412848133894e-05 6.7021511719591581e-05 0.0000000000000000e+00  1.8412085177085619e-05 6.1873193881764873e-05 0.0000000000000000e+00  1.7678503168170814e-05 5.6699611906303385e-05 0.0000000000000000e+00  1.6914691137886401e-05 5.1532855782436540e-05 0.0000000000000000e+00  1.6111994074118183e-05 4.6403318772183633e-05 0.0000000000000000e+00  1.5254696260522532e-05 4.1312108615253043e-05 0.0000000000000000e+00  1.4356463495645533e-05 3.6330290759826182e-05 0.0000000000000000e+00  1.3389641572146339e-05 3.1452251716993776e-05 0.0000000000000000e+00  1.2385063721471839e-05 2.6754495568513622e-05 0.0000000000000000e+00  1.1261294574233647e-05 2.2283576381978492e-05 0.0000000000000000e+00  1.0143142120965710e-05 1.8035895170727396e-05 0.0000000000000000e+00  8.9633855016239637e-06 1.4161385337384548e-05 0.0000000000000000e+00  7.6219157734681189e-06 1.0579840424049892e-05 0.0000000000000000e+00  6.2646569083210165e-06 7.4961370262406526e-06 0.0000000000000000e+00  4.7315884590765179e-06 4.9184660131091782e-06 0.0000000000000000e+00  3.2357667932739848e-06 2.9506153956607401e-06 0.0000000000000000e+00  1.5718779447891391e-06 1.5955791372471111e-06 0.0000000000000000e+00  8.0209141610588675e-07 1.0414518672505558e-06 0.0000000000000000e+00  2.5051308102189992e-05 1.8348231547217166e-04 0.0000000000000000e+00  2.4814108226820358e-05 1.7684582582181129e-04 0.0000000000000000e+00  2.4222950073428813e-05 1.6592958049273980e-04 0.0000000000000000e+00  2.2658325753054876e-06 4.9779926032977456e-06 0.0000000000000000e+00  2.3732110261483099e-05 1.5897338230981870e-04 0.0000000000000000e+00  3.7224220099848954e-06 1.0953397184700653e-05 0.0000000000000000e+00  2.3076849817961475e-05 1.5176137523646832e-04 0.0000000000000000e+00  6.0654095425721060e-06 2.3703245316988243e-05 0.0000000000000000e+00  7.4536109794816951e-06 3.2945331663150628e-05 0.0000000000000000e+00  2.2320532744411899e-05 1.4437226247016784e-04 0.0000000000000000e+00  1.1275458933729557e-05 5.8703454825295011e-05 0.0000000000000000e+00  2.0525916557000084e-05 1.2885193156862254e-04 0.0000000000000000e+00  8.9753599515717512e-06 4.2565712001614930e-05 0.0000000000000000e+00  1.2583164964386884e-05 6.8818168666275544e-05 0.0000000000000000e+00  1.9498243105412258e-05 1.2062460460822926e-04 0.0000000000000000e+00  2.1468520379475616e-05 1.3675286756149800e-04 0.0000000000000000e+00  1.3973363437235017e-05 7.8989444055252528e-05 0.0000000000000000e+00  1.8390548254905666e-05 1.1203445441595272e-04 0.0000000000000000e+00  1.5346621105973265e-05 8.8498108161297090e-05 0.0000000000000000e+00  1.7158958115874010e-05 1.0324064765685755e-04 0.0000000000000000e+00  1.6223596942691045e-05 9.5674016969546027e-05 0.0000000000000000e+00  9.9760994723412923e-06 5.0238983515385110e-05 0.0000000000000000e+00  2.4635484086825838e-05 1.7162347063560165e-04 0.0000000000000000e+00  4.7778107879315089e-06 1.6730339391792045e-05 0.0000000000000000e+00  2.6589358011876732e-05 1.8021434669367029e-04 0.0000000000000000e+00  2.3956128018319466e-06 3.0216398354359808e-06 0.0000000000000000e+00  2.4830265031331423e-05 1.5550866404268304e-04 0.0000000000000000e+00  2.5408435223008489e-05 1.6263796237464344e-04 0.0000000000000000e+00  1.6027949703476599e-06 7.6123631236801949e-06 0.0000000000000000e+00  4.9116170539604613e-06 2.7910585574076006e-05 0.0000000000000000e+00  2.2554398489130048e-05 1.3300044911429494e-04 0.0000000000000000e+00  2.4158588011508471e-05 1.4822794962716425e-04 0.0000000000000000e+00  9.8786108672105168e-06 6.3424656064570476e-05 0.0000000000000000e+00  2.1630779229552995e-05 1.2495262370047693e-04 0.0000000000000000e+00  6.2914280898876450e-06 3.7674874614254398e-05 0.0000000000000000e+00  1.1317820055334599e-05 7.3700222012746961e-05 0.0000000000000000e+00  2.0631143779067644e-05 1.1655855554890071e-04 0.0000000000000000e+00  2.3398320834288839e-05 1.4074297636157505e-04 0.0000000000000000e+00  1.2303221944400867e-05 8.3640787036992035e-05 0.0000000000000000e+00  1.9557297135611071e-05 1.0778753741354745e-04 0.0000000000000000e+00  1.3718724894607815e-07 1.0169692299717979e-07 0.0000000000000000e+00  4.4002484327321496e-07 4.1901883808758672e-07 0.0000000000000000e+00  2.4031820181672325e-05 1.8615966777906672e-04 0.0000000000000000e+00  5.6857614817211405e-07 2.4097773657637829e-06 0.0000000000000000e+00  1.8972668922453260e-05 9.9720946600236917e-05 0.0000000000000000e+00  1.3059121913224339e-05 5.4775709029890745e-05 0.0000000000000000e