<?xml version="1.0"?>
<VTKFile type="UnstructuredGrid"  version="0.1"  >
<UnstructuredGrid>
<Piece  NumberOfPoints="1419" NumberOfCells="2698">
<Points>
<DataArray  type="Float64"  NumberOfComponents="3"  format="ascii">0 0 0  0 0.41 0  2.5 0 0  2.5 0.41 0  0.6 0.19 0  0.6 0.21 0  0.25 0.2 0  0.15 0.2 0  0.2489897948556636 0.21 0  0.2489897948556636 0.19 0  0.6 0.2 0  0 0.3807142857143437 0  0 0.3514285714286952 0  0 0.3221428571430699 0  0 0.29285714285744 0  0 0.2635714285718054 0  0 0.2342857142861561 0  0 0.2050000000005308 0  0 0.175714285714732 0  0 0.1464285714289574 0  0 0.1171428571431897 0  0 0.08785714285737878 0  0 0.05857142857161107 0  0 0.02928571428580012 0  0.03015443760436003 0 0  0.06140001986583606 0 0  0.09377624077125973 0 0  0.1273239957535082 0 0  0.1620856860351972 0 0  0.1981052433264291 0 0  0.235428184091502 0 0  0.2741016576309132 0 0  0.3141745521465447 0 0  0.3556974926295285 0 0  0.3987229542472677 0 0  0.4433053055141081 0 0  0.4895008759286886 0 0  0.5373680609405097 0 0  0.5869673343216626 0 0  0.6383613676634521 0 0  0.6916151138468254 0 0  0.7467958595648856 0 0  0.8039733463919316 0 0  0.8632198139502143 0 0  0.9246101326867038 0 0  0.9882218810934433 0 0  1.054135445558498 0 0  1.122434100542598 0 0  1.193204177141305 0 0  1.266535089879536 0 0  1.342519516046404 0 0  1.421253448503939 0 0  1.502836389106271 0 0  1.587371439758838 0 0  1.674965418777374 0 0  1.765729001825544 0 0  1.859776908880082 0 0  1.957227977487062 0 0  2.058205329869943 0 0  2.162836591189951 0 0  2.271253957290865 0 0  2.383594446803425 0 0  2.5 0.1024999999997612 0  2.5 0.2049999999994743 0  2.5 0.3074999999997183 0  2.383594446803656 0.41 0  2.271253957291315 0.41 0  2.162836591190598 0.41 0  2.058205329870775 0.41 0  1.957227977488067 0.41 0  1.859776908881246 0.41 0  1.765729001826854 0.41 0  1.674965418778818 0.41 0  1.58737143976041 0.41 0  1.502836389107956 0.41 0  1.421253448505726 0.41 0  1.342519516048286 0.41 0  1.266535089881505 0.41 0  1.193204177143353 0.41 0  1.122434100544716 0.41 0  1.05413544556068 0.41 0  0.9882218810956305 0.41 0  0.9246101326886647 0.41 0  0.8632198139519631 0.41 0  0.8039733463934788 0.41 0  0.7467958595662458 0.41 0  0.6916151138480078 0.41 0  0.6383613676644679 0.41 0  0.5869673343225223 0.41 0  0.5373680609412221 0.41 0  0.4895008759292634 0.41 0  0.4433053055145528 0.41 0  0.3987229542475914 0.41 0  0.3556974926297398 0.41 0  0.3141745521466497 0.41 0  0.2741016576310038 0.41 0  0.2354281840915826 0.41 0  0.1981052433265003 0.41 0  0.1620856860352591 0.41 0  0.1273239957535623 0.41 0  0.09377624077128965 0.41 0  0.06140001986584975 0.41 0  0.03015443760436654 0.41 0  0.2497468076502589 0.2050254481002335 0  0.2497468076502614 0.1949745518997913 0  0.2469965252529372 0.1829317073451959 0  0.2439893735792749 0.1762316384219906 0  0.2400332147834255 0.1700443375285386 0  0.2352133972704371 0.1645032867342007 0  0.2296339016332438 0.1597280261969788 0  0.2234150974217223 0.1558215752574715 0  0.2166911463437691 0.1528682099456123 0  0.2096071079204251 0.1509316448471593 0  0.2023158100364996 0.1500536585536553 0  0.194974551899914 0.1502531923497262 0  0.1877417105387872 0.1515259415822739 0  0.1807733240461124 0.153844448527136 0  0.1742197252835808 0.15715869474974 0  0.1682222986673531 0.1613971801805478 0  0.162910430003803 0.1664684656256651 0  0.1583987151779087 0.1722631454351573 0  0.1547844879126891 0.178656207771761 0  0.1521457199348551 0.1855097315605723 0  0.1505393388476355 0.1926758619366523 0  0.1505393388476328 0.2073241380633295 0  0.1521457199348437 0.2144902684393899 0  0.1547844879126531 0.221343792228163 0  0.1583987151778488 0.2277368545647528 0  0.1629104300036858 0.2335315343742052 0  0.1682222986671726 0.2386028198193036 0  0.1742197252833576 0.2428413052501257 0  0.1807733240458683 0.2461555514727623 0  0.1877417105384929 0.2484740584176516 0  0.1949745518995776 0.2497468076502398 0  0.202315810036185 0.2499463414463592 0  0.2096071079201568 0.2490683551528932 0  0.2166911463435495 0.2471317900544655 0  0.2234150974215506 0.2441784247426195 0  0.2296339016331197 0.2402719738031125 0  0.2352133972703547 0.2354967132658811 0  0.2400332147833751 0.2299556624715287 0  0.2439893735792577 0.2237683615780412 0  0.246996525252926 0.2170682926548348 0  0.25645809709277 0.21 0  0.2639263993298655 0.21 0  0.271394701566961 0.21 0  0.2788630038040554 0.21 0  0.2863313060411479 0.21 0  0.2937996082782405 0.21 0  0.301267910515333 0.21 0  0.3087362127524279 0.21 0  0.3162045149895234 0.21 0  0.3236728172265972 0.21 0  0.3311411194636928 0.21 0  0.3386094217007701 0.21 0  0.3460777239378666 0.21 0  0.3535460261749672 0.21 0  0.3610143284120516 0.21 0  0.3684826306491596 0.21 0  0.3759509328862226 0.21 0  0.383419235123329 0.21 0  0.3908875373604028 0.21 0  0.3983558395975142 0.21 0  0.4058241418345938 0.21 0  0.4132924440716992 0.21 0  0.4207607463087888 0.21 0  0.4282290485459029 0.21 0  0.4356973507830418 0.21 0  0.4431656530201649 0.21 0  0.4506339552573136 0.21 0  0.4581022574944306 0.21 0  0.4655705597315852 0.21 0  0.4730388619686996 0.21 0  0.480507164205851 0.21 0  0.4879754664429498 0.21 0  0.4954437686800938 0.21 0  0.502912070917267 0.21 0  0.5103803731544119 0.21 0  0.5178486753915261 0.21 0  0.5253169776286404 0.21 0  0.5327852798657868 0.21 0  0.5402535821029386 0.21 0  0.54772188434007 0.21 0  0.5551901865771842 0.21 0  0.5626584888143201 0.21 0  0.5701267910514778 0.21 0  0.5775950932886138 0.21 0  0.5850633955257281 0.21 0  0.5925316977628483 0.21 0  0.6 0.2050000000000054 0  0.6 0.1950000000000217 0  0.5925316977628897 0.19 0  0.5850633955257988 0.19 0  0.5775950932887378 0.19 0  0.5701267910515998 0.19 0  0.5626584888145268 0.19 0  0.5551901865773963 0.19 0  0.547721884340339 0.19 0  0.5402535821032429 0.19 0  0.5327852798661811 0.19 0  0.5253169776290537 0.19 0  0.5178486753919799 0.19 0  0.5103803731549078 0.19 0  0.502912070917822 0.19 0  0.4954437686807294 0.19 0  0.4879754664436223 0.19 0  0.4805071642065402 0.19 0  0.4730388619694271 0.19 0  0.4655705597323621 0.19 0  0.4581022574952563 0.19 0  0.4506339552581777 0.19 0  0.4431656530210671 0.19 0  0.4356973507839815 0.19 0  0.4282290485468779 0.19 0  0.4207607463097617 0.19 0  0.4132924440726327 0.19 0  0.4058241418354857 0.19 0  0.3983558395983636 0.19 0  0.3908875373612097 0.19 0  0.3834192351240934 0.19 0  0.3759509328869369 0.19 0  0.3684826306498175 0.19 0  0.361014328412667 0.19 0  0.3535460261755617 0.19 0  0.3460777239384295 0.19 0  0.3386094217012945 0.19 0  0.3311411194641595 0.19 0  0.3236728172270245 0.19 0  0.3162045149898895 0.19 0  0.3087362127527544 0.19 0  0.3012679105156187 0.19 0  0.2937996082784807 0.19 0  0.2863313060413428 0.19 0  0.2788630038042048 0.19 0  0.2713947015670686 0.19 0  0.2639263993299336 0.19 0  0.2564580970927985 0.19 0  0.2607803159922026 0.2000727136295815 0  0.5887803774232762 0.2001272386983733 0  0.5745072403740523 0.2002044435018727 0  0.5511891430099709 0.2001122610077113 0  0.2751288526855082 0.20000000000002 0  0.5365194309847112 0.1999999999999436 0  0.2894621222999649 0.1998691686390484 0  0.5215828265105155 0.1999999999999228 0  0.3127789816668748 0.1998657885438805 0  0.3274069683451451 0.2000000000000796 0  0.5066462220363641 0.199999999999908 0  0.3650630746574081 0.199866017807523 0  0.476773013087985 0.1999999999998713 0  0.3417402379596385 0.1998691686391011 0  0.3796850840047755 0.200000000000134 0  0.4618364086138087 0.1999999999998546 0  0.4917096175621762 0.1999999999998808 0  0.3946216884789568 0.2000000000001512 0  0.446899804139621 0.1999999999998389 0  0.4089549580935208 0.1998691686391595 0  0.4322718174608562 0.200127451265745 0  0.4201487168029707 0.1999966199048527 0  0.3528922713220932 0.2000185703532356 0  0.5633122436674589 0.1999814296467508 0  0.3006558810093873 0.1999966199048318 0  0.5815926498168407 0.1966545283159175 0  0.2677053789419034 0.1964246479135325 0  0.5290511287476175 0.1970915826863981 0  0.5439877332217911 0.197091582686394 0  0.2825131256993216 0.2035478995978015 0  0.3199386661080599 0.202908417313604 0  0.4842413153250809 0.1970915826863873 0  0.5141145242734466 0.1970915826863843 0  0.3722167817676917 0.2029084173136195 0  0.4693047108508938 0.1970915826863783 0  0.3348752705822316 0.202908417313609 0  0.3871533862418661 0.2029084173136212 0  0.4543681063767183 0.1970915826863795 0  0.4991779197992749 0.1970915826863902 0  0.4020059614928624 0.203547899597858 0  0.4394315019025246 0.1970915826863714 0  0.2550657455369551 0.2034088125358657 0  0.2548908499171161 0.1966940311614271 0  0.5946539510196798 0.2024302972968126 0  0.267698176732111 0.2039977513680092 0  0.4261685417851465 0.196409292431739 0  0.3590076176283495 0.196411355804271 0  0.5571672426447437 0.2036011176410121 0  0.3066757059912147 0.1964092924317024 0  0.594380730180568 0.1966558399668133 0  0.4842413153245942 0.2040749161535287 0  0.4693047108503577 0.2040749161535231 0  0.3871533862424271 0.1959250838464788 0  0.372246743208829 0.1959123236376545 0  0.5141145242731028 0.2040749161535395 0  0.4543681063761134 0.2040749161535186 0  0.4019979587101454 0.1959834479682427 0  0.4394608940728603 0.2040870543693135 0  0.5439623148931173 0.2040856076781014 0  0.5290511287473298 0.2040749161535501 0  0.4991779197988497 0.2040749161535382 0  0.3347912413592433 0.1959225448935183 0  0.3199680582793816 0.1959123018030061 0  0.2825051229162361 0.1959834479681729 0  0.3590471196690275 0.2036304442587945 0  0.5571594006495384 0.1963685282145804 0  0.3067669986803285 0.203627750582736 0  0.4262598344738712 0.2036568242185335 0  0.5814408164431408 0.2041285596160068 0  0.5688286748170428 0.1961819304477386 0  0.4145905603063645 0.2038180695522843 0  0.3473758401724931 0.2038180695522752 0  0.2950977245128307 0.2038180695522663 0  0.5688286748170693 0.203818069552238 0  0.2950977245127906 0.1961819304477774 0  0.3473758401723931 0.1961819304478349 0  0.4145905603061963 0.1961819304479011 0  0.2601812407614425 0.2056861609747042
[...]
<PointData  Vectors="f_46-2"> 
<DataArray  type="Float64"  Name="f_46-2"  NumberOfComponents="3" format="ascii">0.0000000000000000e+00 0.0000000000000000e+00 0.0000000000000000e+00  0.0000000000000000e+00 0.0000000000000000e+00 0.0000000000000000e+00  0.0000000000000000e+00 0.0000000000000000e+00 0.0000000000000000e+00  0.0000000000000000e+00 0.0000000000000000e+00 0.0000000000000000e+00  3.0537881314100002e-05 2.0106266473169594e-04 0.0000000000000000e+00  2.0351887806494305e-05 2.0041354565790060e-04 0.0000000000000000e+00  0.0000000000000000e+00 0.0000000000000000e+00 0.0000000000000000e+00  0.0000000000000000e+00 0.0000000000000000e+00 0.0000000000000000e+00  0.0000000000000000e+00 0.0000000000000000e+00 0.0000000000000000e+00  0.0000000000000000e+00 0.0000000000000000e+00 0.0000000000000000e+00  2.5155360673269461e-05 2.0073699323368136e-04 0.0000000000000000e+00  0.0000000000000000e+00 0.0000000000000000e+00 0.0000000000000000e+00  0.0000000000000000e+00 0.0000000000000000e+00 0.0000000000000000e+00  0.0000000000000000e+00 0.0000000000000000e+00 0.0000000000000000e+00  0.0000000000000000e+00 0.0000000000000000e+00 0.0000000000000000e+00  0.0000000000000000e+00 0.0000000000000000e+00 0.0000000000000000e+00  0.0000000000000000e+00 0.0000000000000000e+00 0.0000000000000000e+00  0.0000000000000000e+00 0.0000000000000000e+00 0.0000000000000000e+00  0.0000000000000000e+00 0.0000000000000000e+00 0.0000000000000000e+00  0.0000000000000000e+00 0.0000000000000000e+00 0.0000000000000000e+00  0.0000000000000000e+00 0.0000000000000000e+00 0.0000000000000000e+00  0.0000000000000000e+00 0.0000000000000000e+00 0.0000000000000000e+00  0.0000000000000000e+00 0.0000000000000000e+00 0.0000000000000000e+00  0.0000000000000000e+00 0.0000000000000000e+00 0.0000000000000000e+00  0.0000000000000000e+00 0.0000000000000000e+00 0.0000000000000000e+00  0.0000000000000000e+00 0.0000000000000000e+00 0.0000000000000000e+00  0.0000000000000000e+00 0.0000000000000000e+00 0.0000000000000000e+00  0.0000000000000000e+00 0.0000000000000000e+00 0.0000000000000000e+00  0.0000000000000000e+00 0.0000000000000000e+00 0.0000000000000000e+00  0.0000000000000000e+00 0.0000000000000000e+00 0.0000000000000000e+00  0.0000000000000000e+00 0.0000000000000000e+00 0.0000000000000000e+00  0.0000000000000000e+00 0.0000000000000000e+00 0.0000000000000000e+00  0.0000000000000000e+00 0.0000000000000000e+00 0.0000000000000000e+00  0.0000000000000000e+00 0.0000000000000000e+00 0.0000000000000000e+00  0.0000000000000000e+00 0.0000000000000000e+00 0.0000000000000000e+00  -1.2284927400421096e-14 -4.0192651398115331e-17 0.0000000000000000e+00  0.0000000000000000e+00 0.0000000000000000e+00 0.0000000000000000e+00  0.0000000000000000e+00 0.0000000000000000e+00 0.0000000000000000e+00  0.0000000000000000e+00 0.0000000000000000e+00 0.0000000000000000e+00  0.0000000000000000e+00 0.0000000000000000e+00 0.0000000000000000e+00  0.0000000000000000e+00 0.0000000000000000e+00 0.0000000000000000e+00  0.0000000000000000e+00 0.0000000000000000e+00 0.0000000000000000e+00  0.0000000000000000e+00 0.0000000000000000e+00 0.0000000000000000e+00  0.0000000000000000e+00 0.0000000000000000e+00 0.0000000000000000e+00  0.0000000000000000e+00 0.0000000000000000e+00 0.0000000000000000e+00  0.0000000000000000e+00 0.0000000000000000e+00 0.0000000000000000e+00  0.0000000000000000e+00 0.0000000000000000e+00 0.0000000000000000e+00  0.0000000000000000e+00 0.0000000000000000e+00 0.0000000000000000e+00  0.0000000000000000e+00 0.0000000000000000e+00 0.0000000000000000e+00  0.0000000000000000e+00 0.0000000000000000e+00 0.0000000000000000e+00  0.0000000000000000e+00 0.0000000000000000e+00 0.0000000000000000e+00  0.0000000000000000e+00 0.0000000000000000e+00 0.0000000000000000e+00  0.0000000000000000e+00 0.0000000000000000e+00 0.0000000000000000e+00  0.0000000000000000e+00 0.0000000000000000e+00 0.0000000000000000e+00  0.0000000000000000e+00 0.0000000000000000e+00 0.0000000000000000e+00  0.0000000000000000e+00 0.0000000000000000e+00 0.0000000000000000e+00  0.0000000000000000e+00 0.0000000000000000e+00 0.0000000000000000e+00  0.0000000000000000e+00 0.0000000000000000e+00 0.0000000000000000e+00  0.0000000000000000e+00 0.0000000000000000e+00 0.0000000000000000e+00  0.0000000000000000e+00 0.0000000000000000e+00 0.0000000000000000e+00  0.0000000000000000e+00 0.0000000000000000e+00 0.0000000000000000e+00  0.0000000000000000e+00 0.0000000000000000e+00 0.0000000000000000e+00  0.0000000000000000e+00 0.0000000000000000e+00 0.0000000000000000e+00  0.0000000000000000e+00 0.0000000000000000e+00 0.0000000000000000e+00  0.0000000000000000e+00 0.0000000000000000e+00 0.0000000000000000e+00  0.0000000000000000e+00 0.0000000000000000e+00 0.0000000000000000e+00  0.0000000000000000e+00 0.0000000000000000e+00 0.0000000000000000e+00  0.0000000000000000e+00 0.0000000000000000e+00 0.0000000000000000e+00  0.0000000000000000e+00 0.0000000000000000e+00 0.0000000000000000e+00  0.0000000000000000e+00 0.0000000000000000e+00 0.0000000000000000e+00  0.0000000000000000e+00 0.0000000000000000e+00 0.0000000000000000e+00  0.0000000000000000e+00 0.0000000000000000e+00 0.0000000000000000e+00  0.0000000000000000e+00 0.0000000000000000e+00 0.0000000000000000e+00  0.0000000000000000e+00 0.0000000000000000e+00 0.0000000000000000e+00  0.0000000000000000e+00 0.0000000000000000e+00 0.0000000000000000e+00  0.0000000000000000e+00 0.0000000000000000e+00 0.0000000000000000e+00  0.0000000000000000e+00 0.0000000000000000e+00 0.0000000000000000e+00  0.0000000000000000e+00 0.0000000000000000e+00 0.0000000000000000e+00  0.0000000000000000e+00 0.0000000000000000e+00 0.0000000000000000e+00  0.0000000000000000e+00 0.0000000000000000e+00 0.0000000000000000e+00  0.0000000000000000e+00 0.0000000000000000e+00 0.0000000000000000e+00  0.0000000000000000e+00 0.0000000000000000e+00 0.0000000000000000e+00  0.0000000000000000e+00 0.0000000000000000e+00 0.0000000000000000e+00  0.0000000000000000e+00 0.0000000000000000e+00 0.0000000000000000e+00  0.0000000000000000e+00 0.0000000000000000e+00 0.0000000000000000e+00  0.0000000000000000e+00 0.0000000000000000e+00 0.0000000000000000e+00  0.0000000000000000e+00 0.0000000000000000e+00 0.0000000000000000e+00  0.0000000000000000e+00 0.0000000000000000e+00 0.0000000000000000e+00  -7.0373262321945352e-13 0.0000000000000000e+00 0.0000000000000000e+00  0.0000000000000000e+00 0.0000000000000000e+00 0.0000000000000000e+00  0.0000000000000000e+00 0.0000000000000000e+00 0.0000000000000000e+00  0.0000000000000000e+00 0.0000000000000000e+00 0.0000000000000000e+00  0.0000000000000000e+00 0.0000000000000000e+00 0.0000000000000000e+00  0.0000000000000000e+00 0.0000000000000000e+00 0.0000000000000000e+00  3.6371635566624409e-12 1.9368446882619487e-18 0.0000000000000000e+00  0.0000000000000000e+00 0.0000000000000000e+00 0.0000000000000000e+00  0.0000000000000000e+00 0.0000000000000000e+00 0.0000000000000000e+00  0.0000000000000000e+00 0.0000000000000000e+00 0.0000000000000000e+00  0.0000000000000000e+00 0.0000000000000000e+00 0.0000000000000000e+00  0.0000000000000000e+00 0.0000000000000000e+00 0.0000000000000000e+00  0.0000000000000000e+00 0.0000000000000000e+00 0.0000000000000000e+00  0.0000000000000000e+00 0.0000000000000000e+00 0.0000000000000000e+00  0.0000000000000000e+00 0.0000000000000000e+00 0.0000000000000000e+00  0.0000000000000000e+00 0.0000000000000000e+00 0.0000000000000000e+00  0.0000000000000000e+00 0.0000000000000000e+00 0.0000000000000000e+00  -1.4356784160293219e-13 2.0460160754575800e-14 0.0000000000000000e+00  0.0000000000000000e+00 0.0000000000000000e+00 0.0000000000000000e+00  0.0000000000000000e+00 0.0000000000000000e+00 0.0000000000000000e+00  0.0000000000000000e+00 0.0000000000000000e+00 0.0000000000000000e+00  0.0000000000000000e+00 0.0000000000000000e+00 0.0000000000000000e+00  1.5704772442971798e-13 1.9391104399876401e-14 0.0000000000000000e+00  0.0000000000000000e+00 0.0000000000000000e+00 0.0000000000000000e+00  0.0000000000000000e+00 0.0000000000000000e+00 0.0000000000000000e+00  0.0000000000000000e+00 0.0000000000000000e+00 0.0000000000000000e+00  0.0000000000000000e+00 0.0000000000000000e+00 0.0000000000000000e+00  0.0000000000000000e+00 0.0000000000000000e+00 0.0000000000000000e+00  0.0000000000000000e+00 0.0000000000000000e+00 0.0000000000000000e+00  0.0000000000000000e+00 0.0000000000000000e+00 0.0000000000000000e+00  0.0000000000000000e+00 0.0000000000000000e+00 0.0000000000000000e+00  0.0000000000000000e+00 0.0000000000000000e+00 0.0000000000000000e+00  0.0000000000000000e+00 0.0000000000000000e+00 0.0000000000000000e+00  0.0000000000000000e+00 0.0000000000000000e+00 0.0000000000000000e+00  0.0000000000000000e+00 0.0000000000000000e+00 0.0000000000000000e+00  0.0000000000000000e+00 0.0000000000000000e+00 0.0000000000000000e+00  0.0000000000000000e+00 0.0000000000000000e+00 0.0000000000000000e+00  0.0000000000000000e+00 0.0000000000000000e+00 0.0000000000000000e+00  0.0000000000000000e+00 0.0000000000000000e+00 0.0000000000000000e+00  0.0000000000000000e+00 0.0000000000000000e+00 0.0000000000000000e+00  0.0000000000000000e+00 0.0000000000000000e+00 0.0000000000000000e+00  0.0000000000000000e+00 0.0000000000000000e+00 0.0000000000000000e+00  0.0000000000000000e+00 0.0000000000000000e+00 0.0000000000000000e+00  0.0000000000000000e+00 0.0000000000000000e+00 0.0000000000000000e+00  0.0000000000000000e+00 0.0000000000000000e+00 0.0000000000000000e+00  0.0000000000000000e+00 0.0000000000000000e+00 0.0000000000000000e+00  0.0000000000000000e+00 0.0000000000000000e+00 0.0000000000000000e+00  0.0000000000000000e+00 0.0000000000000000e+00 0.0000000000000000e+00  0.0000000000000000e+00 0.0000000000000000e+00 0.0000000000000000e+00  0.0000000000000000e+00 0.0000000000000000e+00 0.0000000000000000e+00  0.0000000000000000e+00 0.0000000000000000e+00 0.0000000000000000e+00  0.0000000000000000e+00 0.0000000000000000e+00 0.0000000000000000e+00  0.0000000000000000e+00 0.0000000000000000e+00 0.0000000000000000e+00  0.0000000000000000e+00 0.0000000000000000e+00 0.0000000000000000e+00  -9.8303881684302612e-13 -1.0967177832435510e-12 0.0000000000000000e+00  -4.2749149879221436e-07 2.2276024387429174e-07 0.0000000000000000e+00  -8.5362230331313239e-07 1.4787547417545187e-06 0.0000000000000000e+00  -1.0108235170058168e-06 3.4402789656487084e-06 0.0000000000000000e+00  -1.1317755926262054e-06 6.1141479446420034e-06 0.0000000000000000e+00  -1.0286580929092651e-06 9.2620032188165423e-06 0.0000000000000000e+00  -9.2967867623639727e-07 1.2916272087555626e-05 0.0000000000000000e+00  -6.4575178929956808e-07 1.6894624120649226e-05 0.0000000000000000e+00  -2.8816166095172849e-07 2.1262275579864081e-05 0.0000000000000000e+00  6.5113628135180182e-08 2.5886616332338172e-05 0.0000000000000000e+00  5.6512994879128505e-07 3.0736375891919863e-05 0.0000000000000000e+00  1.0569307646142081e-06 3.5783473750699687e-05 0.0000000000000000e+00  1.6520819811659632e-06 4.0964955517120603e-05 0.0000000000000000e+00  2.2591429253751910e-06 4.6255909739030571e-05 0.0000000000000000e+00  2.9208736289847909e-06 5.1608387401372549e-05 0.0000000000000000e+00  3.6102815652437819e-06 5.7011838783601122e-05 0.0000000000000000e+00  4.3182604882615422e-06 6.2430727413685463e-05 0.0000000000000000e+00  5.0467084269015050e-06 6.7846895119925380e-05 0.0000000000000000e+00  5.7964069531580117e-06 7.3237093820706795e-05 0.0000000000000000e+00  6.5423130344630184e-06 7.8589983109268570e-05 0.0000000000000000e+00  7.3095044083726131e-06 8.3886054454900254e-05 0.0000000000000000e+00  8.0611670898704190e-06 8.9119879998009451e-05 0.0000000000000000e+00  8.8264152760072513e-06 9.4272561773430503e-05 0.0000000000000000e+00  9.5653703092311779e-06 9.9356639574646257e-05 0.0000000000000000e+00  1.0295656317249516e-05 1.0434319774274418e-04 0.0000000000000000e+00  1.1036075373101504e-05 1.0925169643962308e-04 0.0000000000000000e+00  1.1742247802606040e-05 1.1406918384113057e-04 0.0000000000000000e+00  1.2437707125493707e-05 1.1878486841702173e-04 0.0000000000000000e+00  1.3104055973406823e-05 1.2342495014501116e-04 0.0000000000000000e+00  1.3755965483470710e-05 1.2796288341516019e-04 0.0000000000000000e+00  1.4374625468173407e-05 1.3243272036886548e-04 0.0000000000000000e+00  1.4975153299166535e-05 1.3680586554434495e-04 0.0000000000000000e+00  1.5539654325201130e-05 1.4112127433277193e-04 0.0000000000000000e+00  1.6082306750999340e-05 1.4534831686700890e-04 0.0000000000000000e+00  1.6588294910169413e-05 1.4953036464876926e-04 0.0000000000000000e+00  1.7067799532734962e-05 1.5363388156941867e-04 0.0000000000000000e+00  1.7509818474311954e-05 1.5770584685501204e-04 0.0000000000000000e+00  1.7923725921965464e-05 1.6171163071410189e-04 0.0000000000000000e+00  1.8300120878027830e-05 1.6569837119615786e-04 0.0000000000000000e+00  1.8646359988221379e-05 1.6963080070726686e-04 0.0000000000000000e+00  1.8953884132930879e-05 1.7355741117183843e-04 0.0000000000000000e+00  1.9225918490085963e-05 1.7744614001045727e-04 0.0000000000000000e+00  1.9466266854328195e-05 1.8132829236679974e-04 0.0000000000000000e+00  1.9670439506835900e-05 1.8519328561732634e-04 0.0000000000000000e+00  1.9855331179285651e-05 1.8905224352704894e-04 0.0000000000000000e+00  1.9999994775686812e-05 1.9291672822780611e-04 0.0000000000000000e+00  2.0146392387700714e-05 1.9674288302354035e-04 0.0000000000000000e+00  2.2655940094784163e-05 2.0057998827177859e-04 0.0000000000000000e+00  2.7760329795943954e-05 2.0089067634499415e-04 0.0000000000000000e+00  3.0347768996709087e-05 1.9711320852661615e-04 0.0000000000000000e+00  3.0224506170650916e-05 1.9332331236603808e-04 0.0000000000000000e+00  3.0100038033216838e-05 1.8954938691534315e-04 0.0000000000000000e+00  2.9947576025873752e-05 1.8575366056308829e-04 0.0000000000000000e+00  2.9777129646750349e-05 1.8194906377180282e-04 0.0000000000000000e+00  2.9578738946509980e-05 1.7812826565136950e-04 0.0000000000000000e+00  2.9367560703518797e-05 1.7428533267653911e-04 0.0000000000000000e+00  2.9124240193826591e-05 1.7043068759094990e-04 0.0000000000000000e+00  2.8870622284270215e-05 1.6653001634578087e-04 0.0000000000000000e+00  2.8586504358841692e-05 1.6261246191127254e-04 0.0000000000000000e+00  2.8298178988457166e-05 1.5863708510141031e-04 0.0000000000000000e+00  2.7977834215095887e-05 1.5463138605311243e-04 0.0000000000000000e+00  2.7658933658343782e-05 1.5055625374098456e-04 0.0000000000000000e+00  2.7305067113728590e-05 1.4643702805126503e-04 0.0000000000000000e+00  2.6957505731276277e-05 1.4223672182862182e-04 0.0000000000000000e+00  2.6571034383129106e-05 1.3798030809238462e-04 0.0000000000000000e+00  2.6194350190608357e-05 1.3363228960447095e-04 0.0000000000000000e+00  2.5775763003296256e-05 1.2921747085735866e-04 0.0000000000000000e+00  2.5369694285032840e-05 1.2470288707126039e-04 0.0000000000000000e+00  2.4918569878092958e-05 1.2011377174496930e-04 0.0000000000000000e+00  2.4480622314994861e-05 1.1541909201860525e-04 0.0000000000000000e+00  2.3995016380493360e-05 1.1064506107229853e-04 0.0000000000000000e+00  2.3514647989424111e-05 1.0576842766784719e-04 0.0000000000000000e+00  2.2995774004941905e-05 1.0081266050082539e-04 0.0000000000000000e+00  2.2453535537963632e-05 9.5755878116180200e-05 0.0000000000000000e+00  2.1912058229882131e-05 9.0629508524574151e-05 0.0000000000000000e+00  2.1328196251507524e-05 8.5426697249713578e-05 0.0000000000000000e+00  2.0724771116871576e-05 8.0145418411258778e-05 0.0000000000000000e+00  2.0086038033359584e-05 7.4822114288644883e-05 0.0000000000000000e+00  1.9418701291906439e-05 6.9440163805697047e-05 0.0000000000000000e+00  1.8716299008656697e-05 6.4046635911634578e-05 0.0000000000000000e+00  1.7968918542238501e-05 5.8638616338149317e-05 0.0000000000000000e+00  1.7193081995342600e-05 5.3246059936880245e-05 0.0000000000000000e+00  1.6377766547893837e-05 4.7903516701993764e-05 0.0000000000000000e+00  1.5504460016777532e-05 4.2608410504666679e-05 0.0000000000000000e+00  1.4591166329002878e-05 3.7436337410924577e-05 0.0000000000000000e+00  1.3607113803823694e-05 3.2380285217963991e-05 0.0000000000000000e+00  1.2585825796900307e-05 2.7517922446736845e-05 0.0000000000000000e+00  1.1441609063729280e-05 2.2897960641694116e-05 0.0000000000000000e+00  1.0305659561655079e-05 1.8513673945422314e-05 0.0000000000000000e+00  9.1074515644442803e-06 1.4520758498538317e-05 0.0000000000000000e+00  7.7427346196111105e-06 1.0833884158080984e-05 0.0000000000000000e+00  6.3641592242139532e-06 7.6635328444452714e-06 0.0000000000000000e+00  4.8056386970868728e-06 5.0172886442856747e-06 0.0000000000000000e+00  3.2869595397000028e-06 2.9998365512543498e-06 0.0000000000000000e+00  1.5959573044921746e-06 1.6145157717383541e-06 0.0000000000000000e+00  8.0075856596095831e-07 1.0625080832001865e-06 0.0000000000000000e+00  2.5001928162467064e-05 1.9501954539717179e-04 0.0000000000000000e+00  2.4761654233342430e-05 1.8772273650650244e-04 0.0000000000000000e+00  2.4176062805982183e-05 1.7572927997587049e-04 0.0000000000000000e+00  2.2628368593057977e-06 5.0976984099945742e-06 0.0000000000000000e+00  2.3691525001571731e-05 1.6809742886357974e-04 0.0000000000000000e+00  3.7191572017024474e-06 1.1239043271405854e-05 0.0000000000000000e+00  2.3037676205662502e-05 1.6020046427477099e-04 0.0000000000000000e+00  6.0599461224707627e-06 2.4387797762563151e-05 0.0000000000000000e+00  7.4433755426290035e-06 3.3953063502771175e-05 0.0000000000000000e+00  2.2283026736456934e-05 1.5213104145982229e-04 0.0000000000000000e+00  1.1263884296494102e-05 6.0762440741702952e-05 0.0000000000000000e+00  2.0492412872989117e-05 1.3527261135650066e-04 0.0000000000000000e+00  8.9665404693559459e-06 4.3938787315529623e-05 0.0000000000000000e+00  1.2565088191759067e-05 7.1357891290291979e-05 0.0000000000000000e+00  1.9466992095611317e-05 1.2639269285984452e-04 0.0000000000000000e+00  2.1432916282575659e-05 1.4383803336892755e-04 0.0000000000000000e+00  1.3952922751890891e-05 8.2055504200599498e-05 0.0000000000000000e+00  1.8361678314506248e-05 1.1716492375881792e-04 0.0000000000000000e+00  1.5328876906863342e-05 9.2098986700818949e-05 0.0000000000000000e+00  1.7127264800396122e-05 1.0776438590215185e-04 0.0000000000000000e+00  1.6199170690189602e-05 9.9711414984213505e-05 0.0000000000000000e+00  9.9615971934633786e-06 5.1928512624989632e-05 0.0000000000000000e+00  2.4593911398145237e-05 1.8198293101099412e-04 0.0000000000000000e+00  4.7714545658362699e-06 1.7191051799689929e-05 0.0000000000000000e+00  2.6700813259858279e-05 1.9141901866528526e-04 0.0000000000000000e+00  2.4169583662819178e-06 3.0834501440997642e-06 0.0000000000000000e+00  2.4923496832752844e-05 1.6428972471433379e-04 0.0000000000000000e+00  2.5501027897576690e-05 1.7210566861898917e-04 0.0000000000000000e+00  1.5587360563874002e-06 7.8119015039942546e-06 0.0000000000000000e+00  4.8388311227322661e-06 2.8748188671399806e-05 0.0000000000000000e+00  2.2648817466748570e-05 1.3975208676120335e-04 0.0000000000000000e+00  2.4252396621662292e-05 1.5632615183801309e-04 0.0000000000000000e+00  9.7666414971908178e-06 6.5715388715432459e-05 0.0000000000000000e+00  2.1725022572203461e-05 1.3104540567523016e-04 0.0000000000000000e+00  6.2066938318131427e-06 3.8868643448059321e-05 0.0000000000000000e+00  1.1196702747471066e-05 7.6499940756066269e-05 0.0000000000000000e+00  2.0724753952515508e-05 1.2200588419470548e-04 0.0000000000000000e+00  2.3492559645250655e-05 1.4816395408102727e-04 0.0000000000000000e+00  1.2149937022020592e-05 8.6980095984088432e-05 0.0000000000000000e+00  1.9649798424960987e-05 1.1260603111257814e-04 0.0000000000000000e+00  1.3239186861865403e-07 1.0637119680004226e-07 0.0000000000000000e+00  4.4348823116696041e-07 4.2284468408155534e-07 0.0000000000000000e+00  2.3875713170555567e-05 1.9796873632544750e-04 0.0000000000000000e+00  5.4048753068032334e-07 2.4723813648733100e-06 0.0000000000000000e+00  1.9090943008271099e-05 1.0399788278252048e-04 0.0000000000000000e+00  1.3153225332230515e-05 5.6647663525852123e-05 0.0000000000000000