<?xml version="1.0"?>
<VTKFile type="UnstructuredGrid"  version="0.1"  >
<UnstructuredGrid>
<Piece  NumberOfPoints="1419" NumberOfCells="2698">
<Points>
<DataArray  type="Float64"  NumberOfComponents="3"  format="ascii">0 0 0  0 0.41 0  2.5 0 0  2.5 0.41 0  0.6 0.19 0  0.6 0.21 0  0.25 0.2 0  0.15 0.2 0  0.2489897948556636 0.21 0  0.2489897948556636 0.19 0  0.6 0.2 0  0 0.3807142857143437 0  0 0.3514285714286952 0  0 0.3221428571430699 0  0 0.29285714285744 0  0 0.2635714285718054 0  0 0.2342857142861561 0  0 0.2050000000005308 0  0 0.175714285714732 0  0 0.1464285714289574 0  0 0.1171428571431897 0  0 0.08785714285737878 0  0 0.05857142857161107 0  0 0.02928571428580012 0  0.03015443760436003 0 0  0.06140001986583606 0 0  0.09377624077125973 0 0  0.1273239957535082 0 0  0.1620856860351972 0 0  0.1981052433264291 0 0  0.235428184091502 0 0  0.2741016576309132 0 0  0.3141745521465447 0 0  0.3556974926295285 0 0  0.3987229542472677 0 0  0.4433053055141081 0 0  0.4895008759286886 0 0  0.5373680609405097 0 0  0.5869673343216626 0 0  0.6383613676634521 0 0  0.6916151138468254 0 0  0.7467958595648856 0 0  0.8039733463919316 0 0  0.8632198139502143 0 0  0.9246101326867038 0 0  0.9882218810934433 0 0  1.054135445558498 0 0  1.122434100542598 0 0  1.193204177141305 0 0  1.266535089879536 0 0  1.342519516046404 0 0  1.421253448503939 0 0  1.502836389106271 0 0  1.587371439758838 0 0  1.674965418777374 0 0  1.765729001825544 0 0  1.859776908880082 0 0  1.957227977487062 0 0  2.058205329869943 0 0  2.162836591189951 0 0  2.271253957290865 0 0  2.383594446803425 0 0  2.5 0.1024999999997612 0  2.5 0.2049999999994743 0  2.5 0.3074999999997183 0  2.383594446803656 0.41 0  2.271253957291315 0.41 0  2.162836591190598 0.41 0  2.058205329870775 0.41 0  1.957227977488067 0.41 0  1.859776908881246 0.41 0  1.765729001826854 0.41 0  1.674965418778818 0.41 0  1.58737143976041 0.41 0  1.502836389107956 0.41 0  1.421253448505726 0.41 0  1.342519516048286 0.41 0  1.266535089881505 0.41 0  1.193204177143353 0.41 0  1.122434100544716 0.41 0  1.05413544556068 0.41 0  0.9882218810956305 0.41 0  0.9246101326886647 0.41 0  0.8632198139519631 0.41 0  0.8039733463934788 0.41 0  0.7467958595662458 0.41 0  0.6916151138480078 0.41 0  0.6383613676644679 0.41 0  0.5869673343225223 0.41 0  0.5373680609412221 0.41 0  0.4895008759292634 0.41 0  0.4433053055145528 0.41 0  0.3987229542475914 0.41 0  0.3556974926297398 0.41 0  0.3141745521466497 0.41 0  0.2741016576310038 0.41 0  0.2354281840915826 0.41 0  0.1981052433265003 0.41 0  0.1620856860352591 0.41 0  0.1273239957535623 0.41 0  0.09377624077128965 0.41 0  0.06140001986584975 0.41 0  0.03015443760436654 0.41 0  0.2497468076502589 0.2050254481002335 0  0.2497468076502614 0.1949745518997913 0  0.2469965252529372 0.1829317073451959 0  0.2439893735792749 0.1762316384219906 0  0.2400332147834255 0.1700443375285386 0  0.2352133972704371 0.1645032867342007 0  0.2296339016332438 0.1597280261969788 0  0.2234150974217223 0.1558215752574715 0  0.2166911463437691 0.1528682099456123 0  0.2096071079204251 0.1509316448471593 0  0.2023158100364996 0.1500536585536553 0  0.194974551899914 0.1502531923497262 0  0.1877417105387872 0.1515259415822739 0  0.1807733240461124 0.153844448527136 0  0.1742197252835808 0.15715869474974 0  0.1682222986673531 0.1613971801805478 0  0.162910430003803 0.1664684656256651 0  0.1583987151779087 0.1722631454351573 0  0.1547844879126891 0.178656207771761 0  0.1521457199348551 0.1855097315605723 0  0.1505393388476355 0.1926758619366523 0  0.1505393388476328 0.2073241380633295 0  0.1521457199348437 0.2144902684393899 0  0.1547844879126531 0.221343792228163 0  0.1583987151778488 0.2277368545647528 0  0.1629104300036858 0.2335315343742052 0  0.1682222986671726 0.2386028198193036 0  0.1742197252833576 0.2428413052501257 0  0.1807733240458683 0.2461555514727623 0  0.1877417105384929 0.2484740584176516 0  0.1949745518995776 0.2497468076502398 0  0.202315810036185 0.2499463414463592 0  0.2096071079201568 0.2490683551528932 0  0.2166911463435495 0.2471317900544655 0  0.2234150974215506 0.2441784247426195 0  0.2296339016331197 0.2402719738031125 0  0.2352133972703547 0.2354967132658811 0  0.2400332147833751 0.2299556624715287 0  0.2439893735792577 0.2237683615780412 0  0.246996525252926 0.2170682926548348 0  0.25645809709277 0.21 0  0.2639263993298655 0.21 0  0.271394701566961 0.21 0  0.2788630038040554 0.21 0  0.2863313060411479 0.21 0  0.2937996082782405 0.21 0  0.301267910515333 0.21 0  0.3087362127524279 0.21 0  0.3162045149895234 0.21 0  0.3236728172265972 0.21 0  0.3311411194636928 0.21 0  0.3386094217007701 0.21 0  0.3460777239378666 0.21 0  0.3535460261749672 0.21 0  0.3610143284120516 0.21 0  0.3684826306491596 0.21 0  0.3759509328862226 0.21 0  0.383419235123329 0.21 0  0.3908875373604028 0.21 0  0.3983558395975142 0.21 0  0.4058241418345938 0.21 0  0.4132924440716992 0.21 0  0.4207607463087888 0.21 0  0.4282290485459029 0.21 0  0.4356973507830418 0.21 0  0.4431656530201649 0.21 0  0.4506339552573136 0.21 0  0.4581022574944306 0.21 0  0.4655705597315852 0.21 0  0.4730388619686996 0.21 0  0.480507164205851 0.21 0  0.4879754664429498 0.21 0  0.4954437686800938 0.21 0  0.502912070917267 0.21 0  0.5103803731544119 0.21 0  0.5178486753915261 0.21 0  0.5253169776286404 0.21 0  0.5327852798657868 0.21 0  0.5402535821029386 0.21 0  0.54772188434007 0.21 0  0.5551901865771842 0.21 0  0.5626584888143201 0.21 0  0.5701267910514778 0.21 0  0.5775950932886138 0.21 0  0.5850633955257281 0.21 0  0.5925316977628483 0.21 0  0.6 0.2050000000000054 0  0.6 0.1950000000000217 0  0.5925316977628897 0.19 0  0.5850633955257988 0.19 0  0.5775950932887378 0.19 0  0.5701267910515998 0.19 0  0.5626584888145268 0.19 0  0.5551901865773963 0.19 0  0.547721884340339 0.19 0  0.5402535821032429 0.19 0  0.5327852798661811 0.19 0  0.5253169776290537 0.19 0  0.5178486753919799 0.19 0  0.5103803731549078 0.19 0  0.502912070917822 0.19 0  0.4954437686807294 0.19 0  0.4879754664436223 0.19 0  0.4805071642065402 0.19 0  0.4730388619694271 0.19 0  0.4655705597323621 0.19 0  0.4581022574952563 0.19 0  0.4506339552581777 0.19 0  0.4431656530210671 0.19 0  0.4356973507839815 0.19 0  0.4282290485468779 0.19 0  0.4207607463097617 0.19 0  0.4132924440726327 0.19 0  0.4058241418354857 0.19 0  0.3983558395983636 0.19 0  0.3908875373612097 0.19 0  0.3834192351240934 0.19 0  0.3759509328869369 0.19 0  0.3684826306498175 0.19 0  0.361014328412667 0.19 0  0.3535460261755617 0.19 0  0.3460777239384295 0.19 0  0.3386094217012945 0.19 0  0.3311411194641595 0.19 0  0.3236728172270245 0.19 0  0.3162045149898895 0.19 0  0.3087362127527544 0.19 0  0.3012679105156187 0.19 0  0.2937996082784807 0.19 0  0.2863313060413428 0.19 0  0.2788630038042048 0.19 0  0.2713947015670686 0.19 0  0.2639263993299336 0.19 0  0.2564580970927985 0.19 0  0.2607803159922026 0.2000727136295815 0  0.5887803774232762 0.2001272386983733 0  0.5745072403740523 0.2002044435018727 0  0.5511891430099709 0.2001122610077113 0  0.2751288526855082 0.20000000000002 0  0.5365194309847112 0.1999999999999436 0  0.2894621222999649 0.1998691686390484 0  0.5215828265105155 0.1999999999999228 0  0.3127789816668748 0.1998657885438805 0  0.3274069683451451 0.2000000000000796 0  0.5066462220363641 0.199999999999908 0  0.3650630746574081 0.199866017807523 0  0.476773013087985 0.1999999999998713 0  0.3417402379596385 0.1998691686391011 0  0.3796850840047755 0.200000000000134 0  0.4618364086138087 0.1999999999998546 0  0.4917096175621762 0.1999999999998808 0  0.3946216884789568 0.2000000000001512 0  0.446899804139621 0.1999999999998389 0  0.4089549580935208 0.1998691686391595 0  0.4322718174608562 0.200127451265745 0  0.4201487168029707 0.1999966199048527 0  0.3528922713220932 0.2000185703532356 0  0.5633122436674589 0.1999814296467508 0  0.3006558810093873 0.1999966199048318 0  0.5815926498168407 0.1966545283159175 0  0.2677053789419034 0.1964246479135325 0  0.5290511287476175 0.1970915826863981 0  0.5439877332217911 0.197091582686394 0  0.2825131256993216 0.2035478995978015 0  0.3199386661080599 0.202908417313604 0  0.4842413153250809 0.1970915826863873 0  0.5141145242734466 0.1970915826863843 0  0.3722167817676917 0.2029084173136195 0  0.4693047108508938 0.1970915826863783 0  0.3348752705822316 0.202908417313609 0  0.3871533862418661 0.2029084173136212 0  0.4543681063767183 0.1970915826863795 0  0.4991779197992749 0.1970915826863902 0  0.4020059614928624 0.203547899597858 0  0.4394315019025246 0.1970915826863714 0  0.2550657455369551 0.2034088125358657 0  0.2548908499171161 0.1966940311614271 0  0.5946539510196798 0.2024302972968126 0  0.267698176732111 0.2039977513680092 0  0.4261685417851465 0.196409292431739 0  0.3590076176283495 0.196411355804271 0  0.5571672426447437 0.2036011176410121 0  0.3066757059912147 0.1964092924317024 0  0.594380730180568 0.1966558399668133 0  0.4842413153245942 0.2040749161535287 0  0.4693047108503577 0.2040749161535231 0  0.3871533862424271 0.1959250838464788 0  0.372246743208829 0.1959123236376545 0  0.5141145242731028 0.2040749161535395 0  0.4543681063761134 0.2040749161535186 0  0.4019979587101454 0.1959834479682427 0  0.4394608940728603 0.2040870543693135 0  0.5439623148931173 0.2040856076781014 0  0.5290511287473298 0.2040749161535501 0  0.4991779197988497 0.2040749161535382 0  0.3347912413592433 0.1959225448935183 0  0.3199680582793816 0.1959123018030061 0  0.2825051229162361 0.1959834479681729 0  0.3590471196690275 0.2036304442587945 0  0.5571594006495384 0.1963685282145804 0  0.3067669986803285 0.203627750582736 0  0.4262598344738712 0.2036568242185335 0  0.5814408164431408 0.2041285596160068 0  0.5688286748170428 0.1961819304477386 0  0.4145905603063645 0.2038180695522843 0  0.3473758401724931 0.2038180695522752 0  0.2950977245128307 0.2038180695522663 0  0.5688286748170693 0.203818069552238 0  0.2950977245127906 0.1961819304477774 0  0.3473758401723931 0.1961819304478349 0  0.4145905603061963 0.1961819304479011 0  0.2601812407614425 0.2056861609747042
[...]
<PointData  Vectors="f_46-2"> 
<DataArray  type="Float64"  Name="f_46-2"  NumberOfComponents="3" format="ascii">0.0000000000000000e+00 0.0000000000000000e+00 0.0000000000000000e+00  0.0000000000000000e+00 0.0000000000000000e+00 0.0000000000000000e+00  0.0000000000000000e+00 0.0000000000000000e+00 0.0000000000000000e+00  0.0000000000000000e+00 0.0000000000000000e+00 0.0000000000000000e+00  3.2885115971423580e-05 2.6838530603296161e-04 0.0000000000000000e+00  1.7524003920231236e-05 2.6773539402684328e-04 0.0000000000000000e+00  0.0000000000000000e+00 0.0000000000000000e+00 0.0000000000000000e+00  0.0000000000000000e+00 0.0000000000000000e+00 0.0000000000000000e+00  0.0000000000000000e+00 0.0000000000000000e+00 0.0000000000000000e+00  0.0000000000000000e+00 0.0000000000000000e+00 0.0000000000000000e+00  2.4916132471025536e-05 2.6805872129249340e-04 0.0000000000000000e+00  0.0000000000000000e+00 0.0000000000000000e+00 0.0000000000000000e+00  0.0000000000000000e+00 0.0000000000000000e+00 0.0000000000000000e+00  0.0000000000000000e+00 0.0000000000000000e+00 0.0000000000000000e+00  0.0000000000000000e+00 0.0000000000000000e+00 0.0000000000000000e+00  0.0000000000000000e+00 0.0000000000000000e+00 0.0000000000000000e+00  0.0000000000000000e+00 0.0000000000000000e+00 0.0000000000000000e+00  0.0000000000000000e+00 0.0000000000000000e+00 0.0000000000000000e+00  0.0000000000000000e+00 0.0000000000000000e+00 0.0000000000000000e+00  0.0000000000000000e+00 0.0000000000000000e+00 0.0000000000000000e+00  0.0000000000000000e+00 0.0000000000000000e+00 0.0000000000000000e+00  0.0000000000000000e+00 0.0000000000000000e+00 0.0000000000000000e+00  0.0000000000000000e+00 0.0000000000000000e+00 0.0000000000000000e+00  0.0000000000000000e+00 0.0000000000000000e+00 0.0000000000000000e+00  0.0000000000000000e+00 0.0000000000000000e+00 0.0000000000000000e+00  0.0000000000000000e+00 0.0000000000000000e+00 0.0000000000000000e+00  0.0000000000000000e+00 0.0000000000000000e+00 0.0000000000000000e+00  0.0000000000000000e+00 0.0000000000000000e+00 0.0000000000000000e+00  0.0000000000000000e+00 0.0000000000000000e+00 0.0000000000000000e+00  0.0000000000000000e+00 0.0000000000000000e+00 0.0000000000000000e+00  0.0000000000000000e+00 0.0000000000000000e+00 0.0000000000000000e+00  0.0000000000000000e+00 0.0000000000000000e+00 0.0000000000000000e+00  0.0000000000000000e+00 0.0000000000000000e+00 0.0000000000000000e+00  0.0000000000000000e+00 0.0000000000000000e+00 0.0000000000000000e+00  0.0000000000000000e+00 0.0000000000000000e+00 0.0000000000000000e+00  -7.3294825311264727e-14 9.4873061690239992e-17 0.0000000000000000e+00  0.0000000000000000e+00 0.0000000000000000e+00 0.0000000000000000e+00  0.0000000000000000e+00 0.0000000000000000e+00 0.0000000000000000e+00  0.0000000000000000e+00 0.0000000000000000e+00 0.0000000000000000e+00  0.0000000000000000e+00 0.0000000000000000e+00 0.0000000000000000e+00  0.0000000000000000e+00 0.0000000000000000e+00 0.0000000000000000e+00  0.0000000000000000e+00 0.0000000000000000e+00 0.0000000000000000e+00  0.0000000000000000e+00 0.0000000000000000e+00 0.0000000000000000e+00  0.0000000000000000e+00 0.0000000000000000e+00 0.0000000000000000e+00  0.0000000000000000e+00 0.0000000000000000e+00 0.0000000000000000e+00  0.0000000000000000e+00 0.0000000000000000e+00 0.0000000000000000e+00  0.0000000000000000e+00 0.0000000000000000e+00 0.0000000000000000e+00  0.0000000000000000e+00 0.0000000000000000e+00 0.0000000000000000e+00  0.0000000000000000e+00 0.0000000000000000e+00 0.0000000000000000e+00  0.0000000000000000e+00 0.0000000000000000e+00 0.0000000000000000e+00  0.0000000000000000e+00 0.0000000000000000e+00 0.0000000000000000e+00  0.0000000000000000e+00 0.0000000000000000e+00 0.0000000000000000e+00  0.0000000000000000e+00 0.0000000000000000e+00 0.0000000000000000e+00  0.0000000000000000e+00 0.0000000000000000e+00 0.0000000000000000e+00  0.0000000000000000e+00 0.0000000000000000e+00 0.0000000000000000e+00  0.0000000000000000e+00 0.0000000000000000e+00 0.0000000000000000e+00  0.0000000000000000e+00 0.0000000000000000e+00 0.0000000000000000e+00  0.0000000000000000e+00 0.0000000000000000e+00 0.0000000000000000e+00  0.0000000000000000e+00 0.0000000000000000e+00 0.0000000000000000e+00  0.0000000000000000e+00 0.0000000000000000e+00 0.0000000000000000e+00  0.0000000000000000e+00 0.0000000000000000e+00 0.0000000000000000e+00  0.0000000000000000e+00 0.0000000000000000e+00 0.0000000000000000e+00  0.0000000000000000e+00 0.0000000000000000e+00 0.0000000000000000e+00  0.0000000000000000e+00 0.0000000000000000e+00 0.0000000000000000e+00  0.0000000000000000e+00 0.0000000000000000e+00 0.0000000000000000e+00  0.0000000000000000e+00 0.0000000000000000e+00 0.0000000000000000e+00  0.0000000000000000e+00 0.0000000000000000e+00 0.0000000000000000e+00  0.0000000000000000e+00 0.0000000000000000e+00 0.0000000000000000e+00  0.0000000000000000e+00 0.0000000000000000e+00 0.0000000000000000e+00  0.0000000000000000e+00 0.0000000000000000e+00 0.0000000000000000e+00  0.0000000000000000e+00 0.0000000000000000e+00 0.0000000000000000e+00  0.0000000000000000e+00 0.0000000000000000e+00 0.0000000000000000e+00  0.0000000000000000e+00 0.0000000000000000e+00 0.0000000000000000e+00  0.0000000000000000e+00 0.0000000000000000e+00 0.0000000000000000e+00  0.0000000000000000e+00 0.0000000000000000e+00 0.0000000000000000e+00  0.0000000000000000e+00 0.0000000000000000e+00 0.0000000000000000e+00  0.0000000000000000e+00 0.0000000000000000e+00 0.0000000000000000e+00  0.0000000000000000e+00 0.0000000000000000e+00 0.0000000000000000e+00  0.0000000000000000e+00 0.0000000000000000e+00 0.0000000000000000e+00  0.0000000000000000e+00 0.0000000000000000e+00 0.0000000000000000e+00  0.0000000000000000e+00 0.0000000000000000e+00 0.0000000000000000e+00  0.0000000000000000e+00 0.0000000000000000e+00 0.0000000000000000e+00  0.0000000000000000e+00 0.0000000000000000e+00 0.0000000000000000e+00  0.0000000000000000e+00 0.0000000000000000e+00 0.0000000000000000e+00  0.0000000000000000e+00 0.0000000000000000e+00 0.0000000000000000e+00  0.0000000000000000e+00 0.0000000000000000e+00 0.0000000000000000e+00  0.0000000000000000e+00 0.0000000000000000e+00 0.0000000000000000e+00  0.0000000000000000e+00 0.0000000000000000e+00 0.0000000000000000e+00  5.3363371560221100e-14 0.0000000000000000e+00 0.0000000000000000e+00  0.0000000000000000e+00 0.0000000000000000e+00 0.0000000000000000e+00  0.0000000000000000e+00 0.0000000000000000e+00 0.0000000000000000e+00  0.0000000000000000e+00 0.0000000000000000e+00 0.0000000000000000e+00  0.0000000000000000e+00 0.0000000000000000e+00 0.0000000000000000e+00  0.0000000000000000e+00 0.0000000000000000e+00 0.0000000000000000e+00  5.7772847132648515e-14 4.4602931470425969e-17 0.0000000000000000e+00  0.0000000000000000e+00 0.0000000000000000e+00 0.0000000000000000e+00  0.0000000000000000e+00 0.0000000000000000e+00 0.0000000000000000e+00  0.0000000000000000e+00 0.0000000000000000e+00 0.0000000000000000e+00  0.0000000000000000e+00 0.0000000000000000e+00 0.0000000000000000e+00  0.0000000000000000e+00 0.0000000000000000e+00 0.0000000000000000e+00  0.0000000000000000e+00 0.0000000000000000e+00 0.0000000000000000e+00  0.0000000000000000e+00 0.0000000000000000e+00 0.0000000000000000e+00  0.0000000000000000e+00 0.0000000000000000e+00 0.0000000000000000e+00  0.0000000000000000e+00 0.0000000000000000e+00 0.0000000000000000e+00  0.0000000000000000e+00 0.0000000000000000e+00 0.0000000000000000e+00  1.9002151399640852e-13 -9.8802223749909563e-15 0.0000000000000000e+00  0.0000000000000000e+00 0.0000000000000000e+00 0.0000000000000000e+00  0.0000000000000000e+00 0.0000000000000000e+00 0.0000000000000000e+00  0.0000000000000000e+00 0.0000000000000000e+00 0.0000000000000000e+00  0.0000000000000000e+00 0.0000000000000000e+00 0.0000000000000000e+00  1.0111843565485623e-13 -8.1151095090379079e-15 0.0000000000000000e+00  0.0000000000000000e+00 0.0000000000000000e+00 0.0000000000000000e+00  0.0000000000000000e+00 0.0000000000000000e+00 0.0000000000000000e+00  0.0000000000000000e+00 0.0000000000000000e+00 0.0000000000000000e+00  0.0000000000000000e+00 0.0000000000000000e+00 0.0000000000000000e+00  0.0000000000000000e+00 0.0000000000000000e+00 0.0000000000000000e+00  0.0000000000000000e+00 0.0000000000000000e+00 0.0000000000000000e+00  0.0000000000000000e+00 0.0000000000000000e+00 0.0000000000000000e+00  0.0000000000000000e+00 0.0000000000000000e+00 0.0000000000000000e+00  0.0000000000000000e+00 0.0000000000000000e+00 0.0000000000000000e+00  0.0000000000000000e+00 0.0000000000000000e+00 0.0000000000000000e+00  0.0000000000000000e+00 0.0000000000000000e+00 0.0000000000000000e+00  0.0000000000000000e+00 0.0000000000000000e+00 0.0000000000000000e+00  0.0000000000000000e+00 0.0000000000000000e+00 0.0000000000000000e+00  0.0000000000000000e+00 0.0000000000000000e+00 0.0000000000000000e+00  0.0000000000000000e+00 0.0000000000000000e+00 0.0000000000000000e+00  0.0000000000000000e+00 0.0000000000000000e+00 0.0000000000000000e+00  0.0000000000000000e+00 0.0000000000000000e+00 0.0000000000000000e+00  0.0000000000000000e+00 0.0000000000000000e+00 0.0000000000000000e+00  0.0000000000000000e+00 0.0000000000000000e+00 0.0000000000000000e+00  0.0000000000000000e+00 0.0000000000000000e+00 0.0000000000000000e+00  0.0000000000000000e+00 0.0000000000000000e+00 0.0000000000000000e+00  0.0000000000000000e+00 0.0000000000000000e+00 0.0000000000000000e+00  0.0000000000000000e+00 0.0000000000000000e+00 0.0000000000000000e+00  0.0000000000000000e+00 0.0000000000000000e+00 0.0000000000000000e+00  0.0000000000000000e+00 0.0000000000000000e+00 0.0000000000000000e+00  0.0000000000000000e+00 0.0000000000000000e+00 0.0000000000000000e+00  0.0000000000000000e+00 0.0000000000000000e+00 0.0000000000000000e+00  0.0000000000000000e+00 0.0000000000000000e+00 0.0000000000000000e+00  0.0000000000000000e+00 0.0000000000000000e+00 0.0000000000000000e+00  0.0000000000000000e+00 0.0000000000000000e+00 0.0000000000000000e+00  0.0000000000000000e+00 0.0000000000000000e+00 0.0000000000000000e+00  -4.2681466592075286e-13 -3.9330616171897679e-13 0.0000000000000000e+00  -5.6973786909894262e-07 3.3914501604125346e-07 0.0000000000000000e+00  -1.1565930622712135e-06 1.7633998539049405e-06 0.0000000000000000e+00  -1.4546042006296176e-06 4.0004234859507634e-06 0.0000000000000000e+00  -1.7275197220849070e-06 7.0626742582596958e-06 0.0000000000000000e+00  -1.7503986409651207e-06 1.0693052575289573e-05 0.0000000000000000e+00  -1.7945281791216775e-06 1.4932658356894880e-05 0.0000000000000000e+00  -1.6248530501594553e-06 1.9572396686474073e-05 0.0000000000000000e+00  -1.3778022748681234e-06 2.4701456094873230e-05 0.0000000000000000e+00  -1.1517552305332995e-06 3.0162783690882988e-05 0.0000000000000000e+00  -7.4794419004819942e-07 3.5928506085568376e-05 0.0000000000000000e+00  -3.7412827750815632e-07 4.1968870456091418e-05 0.0000000000000000e+00  1.3316364494450240e-07 4.8215197098264059e-05 0.0000000000000000e+00  6.3584904240692684e-07 5.4640027933666060e-05 0.0000000000000000e+00  1.2152602249147443e-06 6.1182463309967931e-05 0.0000000000000000e+00  1.8251204389128806e-06 6.7845473220380726e-05 0.0000000000000000e+00  2.4425734018710037e-06 7.4576313237936280e-05 0.0000000000000000e+00  3.1025966740134108e-06 8.1358987307463665e-05 0.0000000000000000e+00  3.7700214890009371e-06 8.8168481038050132e-05 0.0000000000000000e+00  4.4548684450294912e-06 9.4988637432782670e-05 0.0000000000000000e+00  5.1498958244321881e-06 1.0179648125896699e-04 0.0000000000000000e+00  5.8444770890672272e-06 1.0858585712473404e-04 0.0000000000000000e+00  6.5466572184974133e-06 1.1533576632720977e-04 0.0000000000000000e+00  7.2354793070446971e-06 1.2204799098184752e-04 0.0000000000000000e+00  7.9181496968492254e-06 1.2870263539562131e-04 0.0000000000000000e+00  8.6065992512388902e-06 1.3530604341610748e-04 0.0000000000000000e+00  9.2700051510828050e-06 1.4185035817327647e-04 0.0000000000000000e+00  9.9231830968545959e-06 1.4831996798419741e-04 0.0000000000000000e+00  1.0552777925286551e-05 1.5473718245305834e-04 0.0000000000000000e+00  1.1168852129881712e-05 1.6107564861816040e-04 0.0000000000000000e+00  1.1756581908337734e-05 1.6736469373060140e-04 0.0000000000000000e+00  1.2327337687007169e-05 1.7357615004196718e-04 0.0000000000000000e+00  1.2866405380011421e-05 1.7974447950295619e-04 0.0000000000000000e+00  1.3384954578086909e-05 1.8583953885102083e-04 0.0000000000000000e+00  1.3870559525447018e-05 1.9190059239024781e-04 0.0000000000000000e+00  1.4331124540017246e-05 1.9789464080933217e-04 0.0000000000000000e+00  1.4757364421986920e-05 2.0386497322339684e-04 0.0000000000000000e+00  1.5156897136659866e-05 2.0977753801001804e-04 0.0000000000000000e+00  1.5521496592173872e-05 2.1567630261689201e-04 0.0000000000000000e+00  1.5857249352179144e-05 2.2152656950882841e-04 0.0000000000000000e+00  1.6156331125184102e-05 2.2737420200436367e-04 0.0000000000000000e+00  1.6420976884287786e-05 2.3318784361910186e-04 0.0000000000000000e+00  1.6655601855177870e-05 2.3899653919314960e-04 0.0000000000000000e+00  1.6855161007400633e-05 2.4479025689340362e-04 0.0000000000000000e+00  1.7035806911171610e-05 2.5057896616922042e-04 0.0000000000000000e+00  1.7177334151847399e-05 2.5637412057374670e-04 0.0000000000000000e+00  1.7321066472271903e-05 2.6213186133580392e-04 0.0000000000000000e+00  2.1123026851724170e-05 2.6790164254119914e-04 0.0000000000000000e+00  2.8814385730382211e-05 2.6821271678710183e-04 0.0000000000000000e+00  3.2696048091656085e-05 2.6250359973832024e-04 0.0000000000000000e+00  3.2573488736082978e-05 2.5678170603704527e-04 0.0000000000000000e+00  3.2449771496025316e-05 2.5107628948692584e-04 0.0000000000000000e+00  3.2297555765970394e-05 2.4535010473331173e-04 0.0000000000000000e+00  3.2127446816786193e-05 2.3961608432648075e-04 0.0000000000000000e+00  3.1929043914481574e-05 2.3386791181251925e-04 0.0000000000000000e+00  3.1716553670060834e-05 2.2809967687417284e-04 0.0000000000000000e+00  3.1472311209328720e-05 2.2232292402625517e-04 0.0000000000000000e+00  3.1215335346670197e-05 2.1650405591374432e-04 0.0000000000000000e+00  3.0928649557721398e-05 2.1067350108147103e-04 0.0000000000000000e+00  3.0634183627477670e-05 2.0479107375578749e-04 0.0000000000000000e+00  3.0308914148135761e-05 1.9888609639937343e-04 0.0000000000000000e+00  2.9980198293061666e-05 1.9292026806532560e-04 0.0000000000000000e+00  2.9618358047458378e-05 1.8692126295423594e-04 0.0000000000000000e+00  2.9256439588576598e-05 1.8085289047585455e-04 0.0000000000000000e+00  2.8858301921342586e-05 1.7474292570831952e-04 0.0000000000000000e+00  2.8461950027943196e-05 1.6855666765819492e-04 0.0000000000000000e+00  2.8027381112428228e-05 1.6232216498736468e-04 0.0000000000000000e+00  2.7595558445536419e-05 1.5600719677789096e-04 0.0000000000000000e+00  2.7123563245386754e-05 1.4964059252738811e-04 0.0000000000000000e+00  2.6652875924710637e-05 1.4319224804370371e-04 0.0000000000000000e+00  2.6140688060053744e-05 1.3669236970101473e-04 0.0000000000000000e+00  2.5620684285070182e-05 1.3011915835117304e-04 0.0000000000000000e+00  2.5067299461113729e-05 1.2349597442886211e-04 0.0000000000000000e+00  2.4487735565636075e-05 1.1681157876802811e-04 0.0000000000000000e+00  2.3897030004888245e-05 1.1008706329109814e-04 0.0000000000000000e+00  2.3266788010068168e-05 1.0333061414585211e-04 0.0000000000000000e+00  2.2608033566961000e-05 9.6535486997360525e-05 0.0000000000000000e+00  2.1915022900689204e-05 8.9746074895899247e-05 0.0000000000000000e+00  2.1184633532613972e-05 8.2944533582597158e-05 0.0000000000000000e+00  2.0420199891031510e-05 7.6182527506453879e-05 0.0000000000000000e+00  1.9595597686217065e-05 6.9466040850404604e-05 0.0000000000000000e+00  1.8752409727645800e-05 6.2813140850349148e-05 0.0000000000000000e+00  1.7866415058343728e-05 5.6281556666611697e-05 0.0000000000000000e+00  1.6903511716624102e-05 4.9848184665004236e-05 0.0000000000000000e+00  1.5905877195521771e-05 4.3613905167414727e-05 0.0000000000000000e+00  1.4825357641863237e-05 3.7563914451613281e-05 0.0000000000000000e+00  1.3710475987602332e-05 3.1782403475617034e-05 0.0000000000000000e+00  1.2451779033926537e-05 2.6330128224509973e-05 0.0000000000000000e+00  1.1216113282965987e-05 2.1182941923020912e-05 0.0000000000000000e+00  9.9145058807794633e-06 1.6528713992404904e-05 0.0000000000000000e+00  8.4195918049844888e-06 1.2253525581537179e-05 0.0000000000000000e+00  6.9215648322118330e-06 8.5991772168453822e-06 0.0000000000000000e+00  5.2204777182353236e-06 5.5698665312679721e-06 0.0000000000000000e+00  3.5737074793952776e-06 3.2753054583348350e-06 0.0000000000000000e+00  1.7308494623729032e-06 1.7207444031548498e-06 0.0000000000000000e+00  7.9383345609273576e-07 1.1801767387684811e-06 0.0000000000000000e+00  2.4731892686365862e-05 2.5943834647547035e-04 0.0000000000000000e+00  2.4475163909122700e-05 2.4845044004428643e-04 0.0000000000000000e+00  2.3921919070756407e-05 2.3043617113719717e-04 0.0000000000000000e+00  2.2475141587360568e-06 5.7664923203373697e-06 0.0000000000000000e+00  2.3473293950639078e-05 2.1902867943385872e-04 0.0000000000000000e+00  3.7031457428018618e-06 1.2834764170751719e-05 0.0000000000000000e+00  2.2827927800282210e-05 2.0730493711996979e-04 0.0000000000000000e+00  6.0329006788112132e-06 2.8211360371992621e-05 0.0000000000000000e+00  7.3904221898885879e-06 3.9581203571587782e-05 0.0000000000000000e+00  2.2083030532805869e-05 1.9543571891391840e-04 0.0000000000000000e+00  1.1205245657327951e-05 7.2258930083084333e-05 0.0000000000000000e+00  2.0315074576573915e-05 1.7110663951470763e-04 0.0000000000000000e+00  8.9221870058147340e-06 5.1606643553724044e-05 0.0000000000000000e+00  1.2470834165191273e-05 8.5537226921332464e-05 0.0000000000000000e+00  1.9302097386613607e-05 1.5858465687144442e-04 0.0000000000000000e+00  2.1243793471751035e-05 1.8338139380771944e-04 0.0000000000000000e+00  1.3846145550650885e-05 9.9171786886140465e-05 0.0000000000000000e+00  1.8209774358146532e-05 1.4579902865941851e-04 0.0000000000000000e+00  1.5237755152621126e-05 1.1219925046462104e-04 0.0000000000000000e+00  1.6959186125088593e-05 1.3301334765634837e-04 0.0000000000000000e+00  1.6071199394404880e-05 1.2224706276840215e-04 0.0000000000000000e+00  9.8860510753476848e-06 6.1362856182081151e-05 0.0000000000000000e+00  2.4368838189400541e-05 2.3981835723242733e-04 0.0000000000000000e+00  4.7387862813886771e-06 1.9764542112023155e-05 0.0000000000000000e+00  2.7330154215962907e-05 2.5397896441542613e-04 0.0000000000000000e+00  2.5371597584873310e-06 3.4289821778348163e-06 0.0000000000000000e+00  2.5453178055074616e-05 2.1330477423672992e-04 0.0000000000000000e+00  2.6026637772486859e-05 2.2495736629374116e-04 0.0000000000000000e+00  1.3144800741152028e-06 8.9264763282804150e-06 0.0000000000000000e+00  4.4362464916466488e-06 3.3426230647167315e-05 0.0000000000000000e+00  2.3185591714889156e-05 1.7743370086422156e-04 0.0000000000000000e+00  2.4785636893733432e-05 2.0152667244419196e-04 0.0000000000000000e+00  9.1480576022034258e-06 7.8505019888848904e-05 0.0000000000000000e+00  2.2260621351422991e-05 1.6504959679101739e-04 0.0000000000000000e+00  5.7381924374020255e-06 4.5535294206117215e-05 0.0000000000000000e+00  1.0527813447445754e-05 9.2129866645635381e-05 0.0000000000000000e+00  2.1256483024161553e-05 1.5240821581124662e-04 0.0000000000000000e+00  2.4028355962421924e-05 1.8958247686641595e-04 0.0000000000000000e+00  1.1302265849199733e-05 1.0562068703659947e-04 0.0000000000000000e+00  2.0174896277418891e-05 1.3949974835603140e-04 0.0000000000000000e+00  1.0580340035886759e-07 1.3239683382255387e-07 0.0000000000000000e+00  4.6302754084820742e-07 4.4433190686342916e-07 0.0000000000000000e+00  2.3008798690433550e-05 2.6390704679624604e-04 0.0000000000000000e+00  3.8455011082164601e-07 2.8219821436959781e-06 0.0000000000000000e+00  1.9759373698025366e-05 1.2787023172734446e-04 0.0000000000000000e+00  1.3684137542053630e-05 6.7100483099106283e-05 0.00000000000000