<?xml version="1.0"?>
<VTKFile type="UnstructuredGrid"  version="0.1"  >
<UnstructuredGrid>
<Piece  NumberOfPoints="1419" NumberOfCells="2698">
<Points>
<DataArray  type="Float64"  NumberOfComponents="3"  format="ascii">0 0 0  0 0.41 0  2.5 0 0  2.5 0.41 0  0.6 0.19 0  0.6 0.21 0  0.25 0.2 0  0.15 0.2 0  0.2489897948556636 0.21 0  0.2489897948556636 0.19 0  0.6 0.2 0  0 0.3807142857143437 0  0 0.3514285714286952 0  0 0.3221428571430699 0  0 0.29285714285744 0  0 0.2635714285718054 0  0 0.2342857142861561 0  0 0.2050000000005308 0  0 0.175714285714732 0  0 0.1464285714289574 0  0 0.1171428571431897 0  0 0.08785714285737878 0  0 0.05857142857161107 0  0 0.02928571428580012 0  0.03015443760436003 0 0  0.06140001986583606 0 0  0.09377624077125973 0 0  0.1273239957535082 0 0  0.1620856860351972 0 0  0.1981052433264291 0 0  0.235428184091502 0 0  0.2741016576309132 0 0  0.3141745521465447 0 0  0.3556974926295285 0 0  0.3987229542472677 0 0  0.4433053055141081 0 0  0.4895008759286886 0 0  0.5373680609405097 0 0  0.5869673343216626 0 0  0.6383613676634521 0 0  0.6916151138468254 0 0  0.7467958595648856 0 0  0.8039733463919316 0 0  0.8632198139502143 0 0  0.9246101326867038 0 0  0.9882218810934433 0 0  1.054135445558498 0 0  1.122434100542598 0 0  1.193204177141305 0 0  1.266535089879536 0 0  1.342519516046404 0 0  1.421253448503939 0 0  1.502836389106271 0 0  1.587371439758838 0 0  1.674965418777374 0 0  1.765729001825544 0 0  1.859776908880082 0 0  1.957227977487062 0 0  2.058205329869943 0 0  2.162836591189951 0 0  2.271253957290865 0 0  2.383594446803425 0 0  2.5 0.1024999999997612 0  2.5 0.2049999999994743 0  2.5 0.3074999999997183 0  2.383594446803656 0.41 0  2.271253957291315 0.41 0  2.162836591190598 0.41 0  2.058205329870775 0.41 0  1.957227977488067 0.41 0  1.859776908881246 0.41 0  1.765729001826854 0.41 0  1.674965418778818 0.41 0  1.58737143976041 0.41 0  1.502836389107956 0.41 0  1.421253448505726 0.41 0  1.342519516048286 0.41 0  1.266535089881505 0.41 0  1.193204177143353 0.41 0  1.122434100544716 0.41 0  1.05413544556068 0.41 0  0.9882218810956305 0.41 0  0.9246101326886647 0.41 0  0.8632198139519631 0.41 0  0.8039733463934788 0.41 0  0.7467958595662458 0.41 0  0.6916151138480078 0.41 0  0.6383613676644679 0.41 0  0.5869673343225223 0.41 0  0.5373680609412221 0.41 0  0.4895008759292634 0.41 0  0.4433053055145528 0.41 0  0.3987229542475914 0.41 0  0.3556974926297398 0.41 0  0.3141745521466497 0.41 0  0.2741016576310038 0.41 0  0.2354281840915826 0.41 0  0.1981052433265003 0.41 0  0.1620856860352591 0.41 0  0.1273239957535623 0.41 0  0.09377624077128965 0.41 0  0.06140001986584975 0.41 0  0.03015443760436654 0.41 0  0.2497468076502589 0.2050254481002335 0  0.2497468076502614 0.1949745518997913 0  0.2469965252529372 0.1829317073451959 0  0.2439893735792749 0.1762316384219906 0  0.2400332147834255 0.1700443375285386 0  0.2352133972704371 0.1645032867342007 0  0.2296339016332438 0.1597280261969788 0  0.2234150974217223 0.1558215752574715 0  0.2166911463437691 0.1528682099456123 0  0.2096071079204251 0.1509316448471593 0  0.2023158100364996 0.1500536585536553 0  0.194974551899914 0.1502531923497262 0  0.1877417105387872 0.1515259415822739 0  0.1807733240461124 0.153844448527136 0  0.1742197252835808 0.15715869474974 0  0.1682222986673531 0.1613971801805478 0  0.162910430003803 0.1664684656256651 0  0.1583987151779087 0.1722631454351573 0  0.1547844879126891 0.178656207771761 0  0.1521457199348551 0.1855097315605723 0  0.1505393388476355 0.1926758619366523 0  0.1505393388476328 0.2073241380633295 0  0.1521457199348437 0.2144902684393899 0  0.1547844879126531 0.221343792228163 0  0.1583987151778488 0.2277368545647528 0  0.1629104300036858 0.2335315343742052 0  0.1682222986671726 0.2386028198193036 0  0.1742197252833576 0.2428413052501257 0  0.1807733240458683 0.2461555514727623 0  0.1877417105384929 0.2484740584176516 0  0.1949745518995776 0.2497468076502398 0  0.202315810036185 0.2499463414463592 0  0.2096071079201568 0.2490683551528932 0  0.2166911463435495 0.2471317900544655 0  0.2234150974215506 0.2441784247426195 0  0.2296339016331197 0.2402719738031125 0  0.2352133972703547 0.2354967132658811 0  0.2400332147833751 0.2299556624715287 0  0.2439893735792577 0.2237683615780412 0  0.246996525252926 0.2170682926548348 0  0.25645809709277 0.21 0  0.2639263993298655 0.21 0  0.271394701566961 0.21 0  0.2788630038040554 0.21 0  0.2863313060411479 0.21 0  0.2937996082782405 0.21 0  0.301267910515333 0.21 0  0.3087362127524279 0.21 0  0.3162045149895234 0.21 0  0.3236728172265972 0.21 0  0.3311411194636928 0.21 0  0.3386094217007701 0.21 0  0.3460777239378666 0.21 0  0.3535460261749672 0.21 0  0.3610143284120516 0.21 0  0.3684826306491596 0.21 0  0.3759509328862226 0.21 0  0.383419235123329 0.21 0  0.3908875373604028 0.21 0  0.3983558395975142 0.21 0  0.4058241418345938 0.21 0  0.4132924440716992 0.21 0  0.4207607463087888 0.21 0  0.4282290485459029 0.21 0  0.4356973507830418 0.21 0  0.4431656530201649 0.21 0  0.4506339552573136 0.21 0  0.4581022574944306 0.21 0  0.4655705597315852 0.21 0  0.4730388619686996 0.21 0  0.480507164205851 0.21 0  0.4879754664429498 0.21 0  0.4954437686800938 0.21 0  0.502912070917267 0.21 0  0.5103803731544119 0.21 0  0.5178486753915261 0.21 0  0.5253169776286404 0.21 0  0.5327852798657868 0.21 0  0.5402535821029386 0.21 0  0.54772188434007 0.21 0  0.5551901865771842 0.21 0  0.5626584888143201 0.21 0  0.5701267910514778 0.21 0  0.5775950932886138 0.21 0  0.5850633955257281 0.21 0  0.5925316977628483 0.21 0  0.6 0.2050000000000054 0  0.6 0.1950000000000217 0  0.5925316977628897 0.19 0  0.5850633955257988 0.19 0  0.5775950932887378 0.19 0  0.5701267910515998 0.19 0  0.5626584888145268 0.19 0  0.5551901865773963 0.19 0  0.547721884340339 0.19 0  0.5402535821032429 0.19 0  0.5327852798661811 0.19 0  0.5253169776290537 0.19 0  0.5178486753919799 0.19 0  0.5103803731549078 0.19 0  0.502912070917822 0.19 0  0.4954437686807294 0.19 0  0.4879754664436223 0.19 0  0.4805071642065402 0.19 0  0.4730388619694271 0.19 0  0.4655705597323621 0.19 0  0.4581022574952563 0.19 0  0.4506339552581777 0.19 0  0.4431656530210671 0.19 0  0.4356973507839815 0.19 0  0.4282290485468779 0.19 0  0.4207607463097617 0.19 0  0.4132924440726327 0.19 0  0.4058241418354857 0.19 0  0.3983558395983636 0.19 0  0.3908875373612097 0.19 0  0.3834192351240934 0.19 0  0.3759509328869369 0.19 0  0.3684826306498175 0.19 0  0.361014328412667 0.19 0  0.3535460261755617 0.19 0  0.3460777239384295 0.19 0  0.3386094217012945 0.19 0  0.3311411194641595 0.19 0  0.3236728172270245 0.19 0  0.3162045149898895 0.19 0  0.3087362127527544 0.19 0  0.3012679105156187 0.19 0  0.2937996082784807 0.19 0  0.2863313060413428 0.19 0  0.2788630038042048 0.19 0  0.2713947015670686 0.19 0  0.2639263993299336 0.19 0  0.2564580970927985 0.19 0  0.2607803159922026 0.2000727136295815 0  0.5887803774232762 0.2001272386983733 0  0.5745072403740523 0.2002044435018727 0  0.5511891430099709 0.2001122610077113 0  0.2751288526855082 0.20000000000002 0  0.5365194309847112 0.1999999999999436 0  0.2894621222999649 0.1998691686390484 0  0.5215828265105155 0.1999999999999228 0  0.3127789816668748 0.1998657885438805 0  0.3274069683451451 0.2000000000000796 0  0.5066462220363641 0.199999999999908 0  0.3650630746574081 0.199866017807523 0  0.476773013087985 0.1999999999998713 0  0.3417402379596385 0.1998691686391011 0  0.3796850840047755 0.200000000000134 0  0.4618364086138087 0.1999999999998546 0  0.4917096175621762 0.1999999999998808 0  0.3946216884789568 0.2000000000001512 0  0.446899804139621 0.1999999999998389 0  0.4089549580935208 0.1998691686391595 0  0.4322718174608562 0.200127451265745 0  0.4201487168029707 0.1999966199048527 0  0.3528922713220932 0.2000185703532356 0  0.5633122436674589 0.1999814296467508 0  0.3006558810093873 0.1999966199048318 0  0.5815926498168407 0.1966545283159175 0  0.2677053789419034 0.1964246479135325 0  0.5290511287476175 0.1970915826863981 0  0.5439877332217911 0.197091582686394 0  0.2825131256993216 0.2035478995978015 0  0.3199386661080599 0.202908417313604 0  0.4842413153250809 0.1970915826863873 0  0.5141145242734466 0.1970915826863843 0  0.3722167817676917 0.2029084173136195 0  0.4693047108508938 0.1970915826863783 0  0.3348752705822316 0.202908417313609 0  0.3871533862418661 0.2029084173136212 0  0.4543681063767183 0.1970915826863795 0  0.4991779197992749 0.1970915826863902 0  0.4020059614928624 0.203547899597858 0  0.4394315019025246 0.1970915826863714 0  0.2550657455369551 0.2034088125358657 0  0.2548908499171161 0.1966940311614271 0  0.5946539510196798 0.2024302972968126 0  0.267698176732111 0.2039977513680092 0  0.4261685417851465 0.196409292431739 0  0.3590076176283495 0.196411355804271 0  0.5571672426447437 0.2036011176410121 0  0.3066757059912147 0.1964092924317024 0  0.594380730180568 0.1966558399668133 0  0.4842413153245942 0.2040749161535287 0  0.4693047108503577 0.2040749161535231 0  0.3871533862424271 0.1959250838464788 0  0.372246743208829 0.1959123236376545 0  0.5141145242731028 0.2040749161535395 0  0.4543681063761134 0.2040749161535186 0  0.4019979587101454 0.1959834479682427 0  0.4394608940728603 0.2040870543693135 0  0.5439623148931173 0.2040856076781014 0  0.5290511287473298 0.2040749161535501 0  0.4991779197988497 0.2040749161535382 0  0.3347912413592433 0.1959225448935183 0  0.3199680582793816 0.1959123018030061 0  0.2825051229162361 0.1959834479681729 0  0.3590471196690275 0.2036304442587945 0  0.5571594006495384 0.1963685282145804 0  0.3067669986803285 0.203627750582736 0  0.4262598344738712 0.2036568242185335 0  0.5814408164431408 0.2041285596160068 0  0.5688286748170428 0.1961819304477386 0  0.4145905603063645 0.2038180695522843 0  0.3473758401724931 0.2038180695522752 0  0.2950977245128307 0.2038180695522663 0  0.5688286748170693 0.203818069552238 0  0.2950977245127906 0.1961819304477774 0  0.3473758401723931 0.1961819304478349 0  0.4145905603061963 0.1961819304479011 0  0.2601812407614425 0.2056861609747042
[...]
<PointData  Vectors="f_46-2"> 
<DataArray  type="Float64"  Name="f_46-2"  NumberOfComponents="3" format="ascii">0.0000000000000000e+00 0.0000000000000000e+00 0.0000000000000000e+00  0.0000000000000000e+00 0.0000000000000000e+00 0.0000000000000000e+00  0.0000000000000000e+00 0.0000000000000000e+00 0.0000000000000000e+00  0.0000000000000000e+00 0.0000000000000000e+00 0.0000000000000000e+00  3.6693071864506868e-05 3.7745358804777273e-04 0.0000000000000000e+00  1.2964518371238503e-05 3.7680052679062701e-04 0.0000000000000000e+00  0.0000000000000000e+00 0.0000000000000000e+00 0.0000000000000000e+00  0.0000000000000000e+00 0.0000000000000000e+00 0.0000000000000000e+00  0.0000000000000000e+00 0.0000000000000000e+00 0.0000000000000000e+00  0.0000000000000000e+00 0.0000000000000000e+00 0.0000000000000000e+00  2.4542670789943417e-05 3.7712452060364256e-04 0.0000000000000000e+00  0.0000000000000000e+00 0.0000000000000000e+00 0.0000000000000000e+00  0.0000000000000000e+00 0.0000000000000000e+00 0.0000000000000000e+00  0.0000000000000000e+00 0.0000000000000000e+00 0.0000000000000000e+00  0.0000000000000000e+00 0.0000000000000000e+00 0.0000000000000000e+00  0.0000000000000000e+00 0.0000000000000000e+00 0.0000000000000000e+00  0.0000000000000000e+00 0.0000000000000000e+00 0.0000000000000000e+00  0.0000000000000000e+00 0.0000000000000000e+00 0.0000000000000000e+00  0.0000000000000000e+00 0.0000000000000000e+00 0.0000000000000000e+00  0.0000000000000000e+00 0.0000000000000000e+00 0.0000000000000000e+00  0.0000000000000000e+00 0.0000000000000000e+00 0.0000000000000000e+00  0.0000000000000000e+00 0.0000000000000000e+00 0.0000000000000000e+00  0.0000000000000000e+00 0.0000000000000000e+00 0.0000000000000000e+00  0.0000000000000000e+00 0.0000000000000000e+00 0.0000000000000000e+00  0.0000000000000000e+00 0.0000000000000000e+00 0.0000000000000000e+00  0.0000000000000000e+00 0.0000000000000000e+00 0.0000000000000000e+00  0.0000000000000000e+00 0.0000000000000000e+00 0.0000000000000000e+00  0.0000000000000000e+00 0.0000000000000000e+00 0.0000000000000000e+00  0.0000000000000000e+00 0.0000000000000000e+00 0.0000000000000000e+00  0.0000000000000000e+00 0.0000000000000000e+00 0.0000000000000000e+00  0.0000000000000000e+00 0.0000000000000000e+00 0.0000000000000000e+00  0.0000000000000000e+00 0.0000000000000000e+00 0.0000000000000000e+00  0.0000000000000000e+00 0.0000000000000000e+00 0.0000000000000000e+00  0.0000000000000000e+00 0.0000000000000000e+00 0.0000000000000000e+00  0.0000000000000000e+00 0.0000000000000000e+00 0.0000000000000000e+00  1.0900360311790460e-12 2.7089074374217142e-17 0.0000000000000000e+00  0.0000000000000000e+00 0.0000000000000000e+00 0.0000000000000000e+00  0.0000000000000000e+00 0.0000000000000000e+00 0.0000000000000000e+00  0.0000000000000000e+00 0.0000000000000000e+00 0.0000000000000000e+00  0.0000000000000000e+00 0.0000000000000000e+00 0.0000000000000000e+00  0.0000000000000000e+00 0.0000000000000000e+00 0.0000000000000000e+00  0.0000000000000000e+00 0.0000000000000000e+00 0.0000000000000000e+00  0.0000000000000000e+00 0.0000000000000000e+00 0.0000000000000000e+00  0.0000000000000000e+00 0.0000000000000000e+00 0.0000000000000000e+00  0.0000000000000000e+00 0.0000000000000000e+00 0.0000000000000000e+00  0.0000000000000000e+00 0.0000000000000000e+00 0.0000000000000000e+00  0.0000000000000000e+00 0.0000000000000000e+00 0.0000000000000000e+00  0.0000000000000000e+00 0.0000000000000000e+00 0.0000000000000000e+00  0.0000000000000000e+00 0.0000000000000000e+00 0.0000000000000000e+00  0.0000000000000000e+00 0.0000000000000000e+00 0.0000000000000000e+00  0.0000000000000000e+00 0.0000000000000000e+00 0.0000000000000000e+00  0.0000000000000000e+00 0.0000000000000000e+00 0.0000000000000000e+00  0.0000000000000000e+00 0.0000000000000000e+00 0.0000000000000000e+00  0.0000000000000000e+00 0.0000000000000000e+00 0.0000000000000000e+00  0.0000000000000000e+00 0.0000000000000000e+00 0.0000000000000000e+00  0.0000000000000000e+00 0.0000000000000000e+00 0.0000000000000000e+00  0.0000000000000000e+00 0.0000000000000000e+00 0.0000000000000000e+00  0.0000000000000000e+00 0.0000000000000000e+00 0.0000000000000000e+00  0.0000000000000000e+00 0.0000000000000000e+00 0.0000000000000000e+00  0.0000000000000000e+00 0.0000000000000000e+00 0.0000000000000000e+00  0.0000000000000000e+00 0.0000000000000000e+00 0.0000000000000000e+00  0.0000000000000000e+00 0.0000000000000000e+00 0.0000000000000000e+00  0.0000000000000000e+00 0.0000000000000000e+00 0.0000000000000000e+00  0.0000000000000000e+00 0.0000000000000000e+00 0.0000000000000000e+00  0.0000000000000000e+00 0.0000000000000000e+00 0.0000000000000000e+00  0.0000000000000000e+00 0.0000000000000000e+00 0.0000000000000000e+00  0.0000000000000000e+00 0.0000000000000000e+00 0.0000000000000000e+00  0.0000000000000000e+00 0.0000000000000000e+00 0.0000000000000000e+00  0.0000000000000000e+00 0.0000000000000000e+00 0.0000000000000000e+00  0.0000000000000000e+00 0.0000000000000000e+00 0.0000000000000000e+00  0.0000000000000000e+00 0.0000000000000000e+00 0.0000000000000000e+00  0.0000000000000000e+00 0.0000000000000000e+00 0.0000000000000000e+00  0.0000000000000000e+00 0.0000000000000000e+00 0.0000000000000000e+00  0.0000000000000000e+00 0.0000000000000000e+00 0.0000000000000000e+00  0.0000000000000000e+00 0.0000000000000000e+00 0.0000000000000000e+00  0.0000000000000000e+00 0.0000000000000000e+00 0.0000000000000000e+00  0.0000000000000000e+00 0.0000000000000000e+00 0.0000000000000000e+00  0.0000000000000000e+00 0.0000000000000000e+00 0.0000000000000000e+00  0.0000000000000000e+00 0.0000000000000000e+00 0.0000000000000000e+00  0.0000000000000000e+00 0.0000000000000000e+00 0.0000000000000000e+00  0.0000000000000000e+00 0.0000000000000000e+00 0.0000000000000000e+00  0.0000000000000000e+00 0.0000000000000000e+00 0.0000000000000000e+00  0.0000000000000000e+00 0.0000000000000000e+00 0.0000000000000000e+00  0.0000000000000000e+00 0.0000000000000000e+00 0.0000000000000000e+00  0.0000000000000000e+00 0.0000000000000000e+00 0.0000000000000000e+00  0.0000000000000000e+00 0.0000000000000000e+00 0.0000000000000000e+00  0.0000000000000000e+00 0.0000000000000000e+00 0.0000000000000000e+00  0.0000000000000000e+00 0.0000000000000000e+00 0.0000000000000000e+00  3.0496794852831831e-14 0.0000000000000000e+00 0.0000000000000000e+00  0.0000000000000000e+00 0.0000000000000000e+00 0.0000000000000000e+00  0.0000000000000000e+00 0.0000000000000000e+00 0.0000000000000000e+00  0.0000000000000000e+00 0.0000000000000000e+00 0.0000000000000000e+00  0.0000000000000000e+00 0.0000000000000000e+00 0.0000000000000000e+00  0.0000000000000000e+00 0.0000000000000000e+00 0.0000000000000000e+00  -1.6609035051691974e-12 -3.4921492761848275e-18 0.0000000000000000e+00  0.0000000000000000e+00 0.0000000000000000e+00 0.0000000000000000e+00  0.0000000000000000e+00 0.0000000000000000e+00 0.0000000000000000e+00  0.0000000000000000e+00 0.0000000000000000e+00 0.0000000000000000e+00  0.0000000000000000e+00 0.0000000000000000e+00 0.0000000000000000e+00  0.0000000000000000e+00 0.0000000000000000e+00 0.0000000000000000e+00  0.0000000000000000e+00 0.0000000000000000e+00 0.0000000000000000e+00  0.0000000000000000e+00 0.0000000000000000e+00 0.0000000000000000e+00  0.0000000000000000e+00 0.0000000000000000e+00 0.0000000000000000e+00  0.0000000000000000e+00 0.0000000000000000e+00 0.0000000000000000e+00  0.0000000000000000e+00 0.0000000000000000e+00 0.0000000000000000e+00  -1.2305052174939940e-13 -1.3866587849469118e-14 0.0000000000000000e+00  0.0000000000000000e+00 0.0000000000000000e+00 0.0000000000000000e+00  0.0000000000000000e+00 0.0000000000000000e+00 0.0000000000000000e+00  0.0000000000000000e+00 0.0000000000000000e+00 0.0000000000000000e+00  0.0000000000000000e+00 0.0000000000000000e+00 0.0000000000000000e+00  6.7511129769025168e-14 -1.7204099116106686e-14 0.0000000000000000e+00  0.0000000000000000e+00 0.0000000000000000e+00 0.0000000000000000e+00  0.0000000000000000e+00 0.0000000000000000e+00 0.0000000000000000e+00  0.0000000000000000e+00 0.0000000000000000e+00 0.0000000000000000e+00  0.0000000000000000e+00 0.0000000000000000e+00 0.0000000000000000e+00  0.0000000000000000e+00 0.0000000000000000e+00 0.0000000000000000e+00  0.0000000000000000e+00 0.0000000000000000e+00 0.0000000000000000e+00  0.0000000000000000e+00 0.0000000000000000e+00 0.0000000000000000e+00  0.0000000000000000e+00 0.0000000000000000e+00 0.0000000000000000e+00  0.0000000000000000e+00 0.0000000000000000e+00 0.0000000000000000e+00  0.0000000000000000e+00 0.0000000000000000e+00 0.0000000000000000e+00  0.0000000000000000e+00 0.0000000000000000e+00 0.0000000000000000e+00  0.0000000000000000e+00 0.0000000000000000e+00 0.0000000000000000e+00  0.0000000000000000e+00 0.0000000000000000e+00 0.0000000000000000e+00  0.0000000000000000e+00 0.0000000000000000e+00 0.0000000000000000e+00  0.0000000000000000e+00 0.0000000000000000e+00 0.0000000000000000e+00  0.0000000000000000e+00 0.0000000000000000e+00 0.0000000000000000e+00  0.0000000000000000e+00 0.0000000000000000e+00 0.0000000000000000e+00  0.0000000000000000e+00 0.0000000000000000e+00 0.0000000000000000e+00  0.0000000000000000e+00 0.0000000000000000e+00 0.0000000000000000e+00  0.0000000000000000e+00 0.0000000000000000e+00 0.0000000000000000e+00  0.0000000000000000e+00 0.0000000000000000e+00 0.0000000000000000e+00  0.0000000000000000e+00 0.0000000000000000e+00 0.0000000000000000e+00  0.0000000000000000e+00 0.0000000000000000e+00 0.0000000000000000e+00  0.0000000000000000e+00 0.0000000000000000e+00 0.0000000000000000e+00  0.0000000000000000e+00 0.0000000000000000e+00 0.0000000000000000e+00  0.0000000000000000e+00 0.0000000000000000e+00 0.0000000000000000e+00  0.0000000000000000e+00 0.0000000000000000e+00 0.0000000000000000e+00  0.0000000000000000e+00 0.0000000000000000e+00 0.0000000000000000e+00  0.0000000000000000e+00 0.0000000000000000e+00 0.0000000000000000e+00  0.0000000000000000e+00 0.0000000000000000e+00 0.0000000000000000e+00  0.0000000000000000e+00 0.0000000000000000e+00 0.0000000000000000e+00  2.8873310530310536e-14 -4.2996864905166541e-13 0.0000000000000000e+00  -8.0179240515186165e-07 5.2896135837641323e-07 0.0000000000000000e+00  -1.6506412158987047e-06 2.2293413543068231e-06 0.0000000000000000e+00  -2.1776904495583039e-06 4.9180763541064906e-06 0.0000000000000000e+00  -2.6976013105293008e-06 8.6167602744953677e-06 0.0000000000000000e+00  -2.9248117787013751e-06 1.3037249282265044e-05 0.0000000000000000e+00  -3.2009263547387561e-06 1.8234705927733222e-05 0.0000000000000000e+00  -3.2160092392434499e-06 2.3956172636522932e-05 0.0000000000000000e+00  -3.1474650157612088e-06 3.0329682537170087e-05 0.0000000000000000e+00  -3.1268113848999811e-06 3.7158228977923501e-05 0.0000000000000000e+00  -2.8778037389008865e-06 4.4419220179017342e-05 0.0000000000000000e+00  -2.6938206737536178e-06 5.2080064520870725e-05 0.0000000000000000e+00  -2.3274072995947245e-06 6.0062487160579545e-05 0.0000000000000000e+00  -1.9919919584661468e-06 6.8334787487003029e-05 0.0000000000000000e+00  -1.5441011952746521e-06 7.6814984780035215e-05 0.0000000000000000e+00  -1.0610925326841353e-06 8.5527604865867133e-05 0.0000000000000000e+00  -5.8789484537705572e-07 9.4392080376032097e-05 0.0000000000000000e+00  -3.6496258183089977e-08 1.0339568352872027e-04 0.0000000000000000e+00  5.0036310215914891e-07 1.1251048338795162e-04 0.0000000000000000e+00  1.0886664498428317e-06 1.2171237892030902e-04 0.0000000000000000e+00  1.6696129633246971e-06 1.3097283076279027e-04 0.0000000000000000e+00  2.2742185161374392e-06 1.4028433428775971e-04 0.0000000000000000e+00  2.8770225717986508e-06 1.4962249696519407e-04 0.0000000000000000e+00  3.4870060162284296e-06 1.5897194687700255e-04 0.0000000000000000e+00  4.0948467385237053e-06 1.6832703622733107e-04 0.0000000000000000e+00  4.7015577357457597e-06 1.7767329116659235e-04 0.0000000000000000e+00  5.2977216795606592e-06 1.8701097198816483e-04 0.0000000000000000e+00  5.8843096517948474e-06 1.9631675209579329e-04 0.0000000000000000e+00  6.4559275454507314e-06 2.0560694771713483e-04 0.0000000000000000e+00  7.0153042809021797e-06 2.1485540273955445e-04 0.0000000000000000e+00  7.5539074091950224e-06 2.2408421466362253e-04 0.0000000000000000e+00  8.0771519628226413e-06 2.3326575386634012e-04 0.0000000000000000e+00  8.5753708872711175e-06 2.4242765939677319e-04 0.0000000000000000e+00  9.0549351564886859e-06 2.5154039183597965e-04 0.0000000000000000e+00  9.5072576257926919e-06 2.6063700608648194e-04 0.0000000000000000e+00  9.9365842377574848e-06 2.6968516960991685e-04 0.0000000000000000e+00  1.0336459288345016e-05 2.7872257466293390e-04 0.0000000000000000e+00  1.0711652592105746e-05 2.8771591771094512e-04 0.0000000000000000e+00  1.1055927836571166e-05 2.9670431125217286e-04 0.0000000000000000e+00  1.1373271074784919e-05 3.0565382001878624e-04 0.0000000000000000e+00  1.1657185679594979e-05 3.1460619437810263e-04 0.0000000000000000e+00  1.1908228986162915e-05 3.2353116047359329e-04 0.0000000000000000e+00  1.2131990315867625e-05 3.3245405452858384e-04 0.0000000000000000e+00  1.2322477141886362e-05 3.4136574481422142e-04 0.0000000000000000e+00  1.2494613649992136e-05 3.5027422583809446e-04 0.0000000000000000e+00  1.2629526897367727e-05 3.5919077328988233e-04 0.0000000000000000e+00  1.2767375112465546e-05 3.6807153631341911e-04 0.0000000000000000e+00  1.8657801044587190e-05 3.7696686459926193e-04 0.0000000000000000e+00  3.0531840049571892e-05 3.7727952715694207e-04 0.0000000000000000e+00  3.6507082798324628e-05 3.6844795873058992e-04 0.0000000000000000e+00  3.6386902656478528e-05 3.5960235601446388e-04 0.0000000000000000e+00  3.6265581655565360e-05 3.5077417046273696e-04 0.0000000000000000e+00  3.6114850766244827e-05 3.4192708284894267e-04 0.0000000000000000e+00  3.5946352694412010e-05 3.3307403162446340e-04 0.0000000000000000e+00  3.5748905210012569e-05 3.2421044641399357e-04 0.0000000000000000e+00  3.5535137275943831e-05 3.1533042641073192e-04 0.0000000000000000e+00  3.5290206269184021e-05 3.0644741151034690e-04 0.0000000000000000e+00  3.5028440350611847e-05 2.9752888283213533e-04 0.0000000000000000e+00  3.4738231512733346e-05 2.8860745322877707e-04 0.0000000000000000e+00  3.4434335177233403e-05 2.7964399084459316e-04 0.0000000000000000e+00  3.4101577246972083e-05 2.7067084464430440e-04 0.0000000000000000e+00  3.3757392391686705e-05 2.6165080545718895e-04 0.0000000000000000e+00  3.3383036521994991e-05 2.5261535750365524e-04 0.0000000000000000e+00  3.2998311734255642e-05 2.4352936963354519e-04 0.0000000000000000e+00  3.2581658619113463e-05 2.3442513333108315e-04 0.0000000000000000e+00  3.2153987508880808e-05 2.2526899831941722e-04 0.0000000000000000e+00  3.1693950791244567e-05 2.1609420522570140e-04 0.0000000000000000e+00  3.1221101950729934e-05 2.0686951801110294e-04 0.0000000000000000e+00  3.0715801731980290e-05 1.9762950626209654e-04 0.0000000000000000e+00  3.0192951192959401e-05 1.8834538182686556e-04 0.0000000000000000e+00  2.9638298855925321e-05 1.7905373866654390e-04 0.0000000000000000e+00  2.9055070008388811e-05 1.6973497320879635e-04 0.0000000000000000e+00  2.8446506136135483e-05 1.6041233727023702e-04 0.0000000000000000e+00  2.7807197744127286e-05 1.5109147110356060e-04 0.0000000000000000e+00  2.7137770796724466e-05 1.4177711118093460e-04 0.0000000000000000e+00  2.6433160322924660e-05 1.3250143692587342e-04 0.0000000000000000e+00  2.5685641098451550e-05 1.2325022873753216e-04 0.0000000000000000e+00  2.4905351208832575e-05 1.1408075765716074e-04 0.0000000000000000e+00  2.4073479723010077e-05 1.0497324833443486e-04 0.0000000000000000e+00  2.3208980038660033e-05 9.5986971311254381e-05 0.0000000000000000e+00  2.2259696623060955e-05 8.7142243951968029e-05 0.0000000000000000e+00  2.1307440348429434e-05 7.8438307312774481e-05 0.0000000000000000e+00  2.0306770024308570e-05 6.9970289569484326e-05 0.0000000000000000e+00  1.9198490303266105e-05 6.1682195121423369e-05 0.0000000000000000e+00  1.8063617464626222e-05 5.3715944642159014e-05 0.0000000000000000e+00  1.6825962479307560e-05 4.6044235553728055e-05 0.0000000000000000e+00  1.5558288836730814e-05 3.8762182774245377e-05 0.0000000000000000e+00  1.4112555931902684e-05 3.1950151665689384e-05 0.0000000000000000e+00  1.2713565130534447e-05 2.5556015250629854e-05 0.0000000000000000e+00  1.1242338333673423e-05 1.9820111403353678e-05 0.0000000000000000e+00  9.5338854723643971e-06 1.4582143958427842e-05 0.0000000000000000e+00  7.8394946861417582e-06 1.0135242904109013e-05 0.0000000000000000e+00  5.9039988051666897e-06 6.4781659333987374e-06 0.0000000000000000e+00  4.0462370377134642e-06 3.7291970913028146e-06 0.0000000000000000e+00  1.9532941129040512e-06 1.8966728441052900e-06 0.0000000000000000e+00  7.8419793590129967e-07 1.3738160213891287e-06 0.0000000000000000e+00  2.4310508355505676e-05 3.6381051344998706e-04 0.0000000000000000e+00  2.4029659324345340e-05 3.4685494352130515e-04 0.0000000000000000e+00  2.3532753703012929e-05 3.1910795921875191e-04 0.0000000000000000e+00  2.2270452236914718e-06 6.8640543062214399e-06 0.0000000000000000e+00  2.3144377249714026e-05 3.0159855915361608e-04 0.0000000000000000e+00  3.6841973231462499e-06 1.5450452829930294e-05 0.0000000000000000e+00  2.2514549052144856e-05 2.8369153277421762e-04 0.0000000000000000e+00  5.9998737131524420e-06 3.4469829430666319e-05 0.0000000000000000e+00  7.3174029739398475e-06 4.8785787695041525e-05 0.0000000000000000e+00  2.1786704648408936e-05 2.6568369248522819e-04 0.0000000000000000e+00  1.1128266568551604e-05 9.1022295099154690e-05 0.0000000000000000e+00  2.0056187592760250e-05 2.2928637314177856e-04 0.0000000000000000e+00  8.8652917055514518e-06 6.4137210156286104e-05 0.0000000000000000e+00  1.2337885838352125e-05 1.0866108523609666e-04 0.0000000000000000e+00  1.9062899524701611e-05 2.1087938718837210e-04 0.0000000000000000e+00  2.0965744050649743e-05 2.4755342428263812e-04 0.0000000000000000e+00  1.3694756891942866e-05 1.2706332707942039e-04 0.0000000000000000e+00  1.7990690836275276e-05 1.9234229521926323e-04 0.0000000000000000e+00  1.5113438273004051e-05 1.4492929074763443e-04 0.0000000000000000e+00  1.6712701452968578e-05 1.7408083182504240e-04 0.0000000000000000e+00  1.5888393862961862e-05 1.5892216578099007e-04 0.0000000000000000e+00  9.7799192188399926e-06 7.6770487323277691e-05 0.0000000000000000e+00  2.4024598715908593e-05 3.3354721909797187e-04 0.0000000000000000e+00  4.6945483603952457e-06 2.3979732324452156e-05 0.0000000000000000e+00  2.8364022215296996e-05 3.5534616728410962e-04 0.0000000000000000e+00  2.7372552117740982e-06 3.9970694749167813e-06 0.0000000000000000e+00  2.6333729674921759e-05 2.9277880832338598e-04 0.0000000000000000e+00  2.6898760059877967e-05 3.1063121489349315e-04 0.0000000000000000e+00  9.2068939406671421e-07 1.0753775627112972e-05 0.0000000000000000e+00  3.7914374552489560e-06 4.1079563348430795e-05 0.0000000000000000e+00  2.4080475163764441e-05 2.3859892679572049e-04 0.0000000000000000e+00  2.5673353286949885e-05 2.7483786392966749e-04 0.0000000000000000e+00  8.1620125723051193e-06 9.9370047745154041e-05 0.0000000000000000e+00  2.3153733528837267e-05 2.2027355745787790e-04 0.0000000000000000e+00  4.9888594285221937e-06 5.6433151974843280e-05 0.0000000000000000e+00  9.4630301334219984e-06 1.1760843444844085e-04 0.0000000000000000e+00  2.2143164554129726e-05 2.0181103011687716e-04 0.0000000000000000e+00  2.4921149305499907e-05 2.5678421041323092e-04 0.0000000000000000e+00  9.9504249447963070e-06 1.3598346761342007e-04 0.0000000000000000e+00  2.1050440727631985e-05 1.8322901156514042e-04 0.0000000000000000e+00  6.2880775166892738e-08 1.7505072305502125e-07 0.0000000000000000e+00  4.9568741633975430e-07 4.8019821736821853e-07 0.0000000000000000e+00  2.1621390674941665e-05 3.7073576523075357e-04 0.0000000000000000e+00  1.3224931255425027e-07 3.3955354321850235e-06 0.0000000000000000e+00  2.0866474826469376e-05 1.6671057196786547e-04 0.0000000000000000e+00  1.4565497613280919e-05 8.4166574869247820e-05 0.0000000