<?xml version="1.0"?>
<VTKFile type="UnstructuredGrid"  version="0.1"  >
<UnstructuredGrid>
<Piece  NumberOfPoints="1419" NumberOfCells="2698">
<Points>
<DataArray  type="Float64"  NumberOfComponents="3"  format="ascii">0 0 0  0 0.41 0  2.5 0 0  2.5 0.41 0  0.6 0.19 0  0.6 0.21 0  0.25 0.2 0  0.15 0.2 0  0.2489897948556636 0.21 0  0.2489897948556636 0.19 0  0.6 0.2 0  0 0.3807142857143437 0  0 0.3514285714286952 0  0 0.3221428571430699 0  0 0.29285714285744 0  0 0.2635714285718054 0  0 0.2342857142861561 0  0 0.2050000000005308 0  0 0.175714285714732 0  0 0.1464285714289574 0  0 0.1171428571431897 0  0 0.08785714285737878 0  0 0.05857142857161107 0  0 0.02928571428580012 0  0.03015443760436003 0 0  0.06140001986583606 0 0  0.09377624077125973 0 0  0.1273239957535082 0 0  0.1620856860351972 0 0  0.1981052433264291 0 0  0.235428184091502 0 0  0.2741016576309132 0 0  0.3141745521465447 0 0  0.3556974926295285 0 0  0.3987229542472677 0 0  0.4433053055141081 0 0  0.4895008759286886 0 0  0.5373680609405097 0 0  0.5869673343216626 0 0  0.6383613676634521 0 0  0.6916151138468254 0 0  0.7467958595648856 0 0  0.8039733463919316 0 0  0.8632198139502143 0 0  0.9246101326867038 0 0  0.9882218810934433 0 0  1.054135445558498 0 0  1.122434100542598 0 0  1.193204177141305 0 0  1.266535089879536 0 0  1.342519516046404 0 0  1.421253448503939 0 0  1.502836389106271 0 0  1.587371439758838 0 0  1.674965418777374 0 0  1.765729001825544 0 0  1.859776908880082 0 0  1.957227977487062 0 0  2.058205329869943 0 0  2.162836591189951 0 0  2.271253957290865 0 0  2.383594446803425 0 0  2.5 0.1024999999997612 0  2.5 0.2049999999994743 0  2.5 0.3074999999997183 0  2.383594446803656 0.41 0  2.271253957291315 0.41 0  2.162836591190598 0.41 0  2.058205329870775 0.41 0  1.957227977488067 0.41 0  1.859776908881246 0.41 0  1.765729001826854 0.41 0  1.674965418778818 0.41 0  1.58737143976041 0.41 0  1.502836389107956 0.41 0  1.421253448505726 0.41 0  1.342519516048286 0.41 0  1.266535089881505 0.41 0  1.193204177143353 0.41 0  1.122434100544716 0.41 0  1.05413544556068 0.41 0  0.9882218810956305 0.41 0  0.9246101326886647 0.41 0  0.8632198139519631 0.41 0  0.8039733463934788 0.41 0  0.7467958595662458 0.41 0  0.6916151138480078 0.41 0  0.6383613676644679 0.41 0  0.5869673343225223 0.41 0  0.5373680609412221 0.41 0  0.4895008759292634 0.41 0  0.4433053055145528 0.41 0  0.3987229542475914 0.41 0  0.3556974926297398 0.41 0  0.3141745521466497 0.41 0  0.2741016576310038 0.41 0  0.2354281840915826 0.41 0  0.1981052433265003 0.41 0  0.1620856860352591 0.41 0  0.1273239957535623 0.41 0  0.09377624077128965 0.41 0  0.06140001986584975 0.41 0  0.03015443760436654 0.41 0  0.2497468076502589 0.2050254481002335 0  0.2497468076502614 0.1949745518997913 0  0.2469965252529372 0.1829317073451959 0  0.2439893735792749 0.1762316384219906 0  0.2400332147834255 0.1700443375285386 0  0.2352133972704371 0.1645032867342007 0  0.2296339016332438 0.1597280261969788 0  0.2234150974217223 0.1558215752574715 0  0.2166911463437691 0.1528682099456123 0  0.2096071079204251 0.1509316448471593 0  0.2023158100364996 0.1500536585536553 0  0.194974551899914 0.1502531923497262 0  0.1877417105387872 0.1515259415822739 0  0.1807733240461124 0.153844448527136 0  0.1742197252835808 0.15715869474974 0  0.1682222986673531 0.1613971801805478 0  0.162910430003803 0.1664684656256651 0  0.1583987151779087 0.1722631454351573 0  0.1547844879126891 0.178656207771761 0  0.1521457199348551 0.1855097315605723 0  0.1505393388476355 0.1926758619366523 0  0.1505393388476328 0.2073241380633295 0  0.1521457199348437 0.2144902684393899 0  0.1547844879126531 0.221343792228163 0  0.1583987151778488 0.2277368545647528 0  0.1629104300036858 0.2335315343742052 0  0.1682222986671726 0.2386028198193036 0  0.1742197252833576 0.2428413052501257 0  0.1807733240458683 0.2461555514727623 0  0.1877417105384929 0.2484740584176516 0  0.1949745518995776 0.2497468076502398 0  0.202315810036185 0.2499463414463592 0  0.2096071079201568 0.2490683551528932 0  0.2166911463435495 0.2471317900544655 0  0.2234150974215506 0.2441784247426195 0  0.2296339016331197 0.2402719738031125 0  0.2352133972703547 0.2354967132658811 0  0.2400332147833751 0.2299556624715287 0  0.2439893735792577 0.2237683615780412 0  0.246996525252926 0.2170682926548348 0  0.25645809709277 0.21 0  0.2639263993298655 0.21 0  0.271394701566961 0.21 0  0.2788630038040554 0.21 0  0.2863313060411479 0.21 0  0.2937996082782405 0.21 0  0.301267910515333 0.21 0  0.3087362127524279 0.21 0  0.3162045149895234 0.21 0  0.3236728172265972 0.21 0  0.3311411194636928 0.21 0  0.3386094217007701 0.21 0  0.3460777239378666 0.21 0  0.3535460261749672 0.21 0  0.3610143284120516 0.21 0  0.3684826306491596 0.21 0  0.3759509328862226 0.21 0  0.383419235123329 0.21 0  0.3908875373604028 0.21 0  0.3983558395975142 0.21 0  0.4058241418345938 0.21 0  0.4132924440716992 0.21 0  0.4207607463087888 0.21 0  0.4282290485459029 0.21 0  0.4356973507830418 0.21 0  0.4431656530201649 0.21 0  0.4506339552573136 0.21 0  0.4581022574944306 0.21 0  0.4655705597315852 0.21 0  0.4730388619686996 0.21 0  0.480507164205851 0.21 0  0.4879754664429498 0.21 0  0.4954437686800938 0.21 0  0.502912070917267 0.21 0  0.5103803731544119 0.21 0  0.5178486753915261 0.21 0  0.5253169776286404 0.21 0  0.5327852798657868 0.21 0  0.5402535821029386 0.21 0  0.54772188434007 0.21 0  0.5551901865771842 0.21 0  0.5626584888143201 0.21 0  0.5701267910514778 0.21 0  0.5775950932886138 0.21 0  0.5850633955257281 0.21 0  0.5925316977628483 0.21 0  0.6 0.2050000000000054 0  0.6 0.1950000000000217 0  0.5925316977628897 0.19 0  0.5850633955257988 0.19 0  0.5775950932887378 0.19 0  0.5701267910515998 0.19 0  0.5626584888145268 0.19 0  0.5551901865773963 0.19 0  0.547721884340339 0.19 0  0.5402535821032429 0.19 0  0.5327852798661811 0.19 0  0.5253169776290537 0.19 0  0.5178486753919799 0.19 0  0.5103803731549078 0.19 0  0.502912070917822 0.19 0  0.4954437686807294 0.19 0  0.4879754664436223 0.19 0  0.4805071642065402 0.19 0  0.4730388619694271 0.19 0  0.4655705597323621 0.19 0  0.4581022574952563 0.19 0  0.4506339552581777 0.19 0  0.4431656530210671 0.19 0  0.4356973507839815 0.19 0  0.4282290485468779 0.19 0  0.4207607463097617 0.19 0  0.4132924440726327 0.19 0  0.4058241418354857 0.19 0  0.3983558395983636 0.19 0  0.3908875373612097 0.19 0  0.3834192351240934 0.19 0  0.3759509328869369 0.19 0  0.3684826306498175 0.19 0  0.361014328412667 0.19 0  0.3535460261755617 0.19 0  0.3460777239384295 0.19 0  0.3386094217012945 0.19 0  0.3311411194641595 0.19 0  0.3236728172270245 0.19 0  0.3162045149898895 0.19 0  0.3087362127527544 0.19 0  0.3012679105156187 0.19 0  0.2937996082784807 0.19 0  0.2863313060413428 0.19 0  0.2788630038042048 0.19 0  0.2713947015670686 0.19 0  0.2639263993299336 0.19 0  0.2564580970927985 0.19 0  0.2607803159922026 0.2000727136295815 0  0.5887803774232762 0.2001272386983733 0  0.5745072403740523 0.2002044435018727 0  0.5511891430099709 0.2001122610077113 0  0.2751288526855082 0.20000000000002 0  0.5365194309847112 0.1999999999999436 0  0.2894621222999649 0.1998691686390484 0  0.5215828265105155 0.1999999999999228 0  0.3127789816668748 0.1998657885438805 0  0.3274069683451451 0.2000000000000796 0  0.5066462220363641 0.199999999999908 0  0.3650630746574081 0.199866017807523 0  0.476773013087985 0.1999999999998713 0  0.3417402379596385 0.1998691686391011 0  0.3796850840047755 0.200000000000134 0  0.4618364086138087 0.1999999999998546 0  0.4917096175621762 0.1999999999998808 0  0.3946216884789568 0.2000000000001512 0  0.446899804139621 0.1999999999998389 0  0.4089549580935208 0.1998691686391595 0  0.4322718174608562 0.200127451265745 0  0.4201487168029707 0.1999966199048527 0  0.3528922713220932 0.2000185703532356 0  0.5633122436674589 0.1999814296467508 0  0.3006558810093873 0.1999966199048318 0  0.5815926498168407 0.1966545283159175 0  0.2677053789419034 0.1964246479135325 0  0.5290511287476175 0.1970915826863981 0  0.5439877332217911 0.197091582686394 0  0.2825131256993216 0.2035478995978015 0  0.3199386661080599 0.202908417313604 0  0.4842413153250809 0.1970915826863873 0  0.5141145242734466 0.1970915826863843 0  0.3722167817676917 0.2029084173136195 0  0.4693047108508938 0.1970915826863783 0  0.3348752705822316 0.202908417313609 0  0.3871533862418661 0.2029084173136212 0  0.4543681063767183 0.1970915826863795 0  0.4991779197992749 0.1970915826863902 0  0.4020059614928624 0.203547899597858 0  0.4394315019025246 0.1970915826863714 0  0.2550657455369551 0.2034088125358657 0  0.2548908499171161 0.1966940311614271 0  0.5946539510196798 0.2024302972968126 0  0.267698176732111 0.2039977513680092 0  0.4261685417851465 0.196409292431739 0  0.3590076176283495 0.196411355804271 0  0.5571672426447437 0.2036011176410121 0  0.3066757059912147 0.1964092924317024 0  0.594380730180568 0.1966558399668133 0  0.4842413153245942 0.2040749161535287 0  0.4693047108503577 0.2040749161535231 0  0.3871533862424271 0.1959250838464788 0  0.372246743208829 0.1959123236376545 0  0.5141145242731028 0.2040749161535395 0  0.4543681063761134 0.2040749161535186 0  0.4019979587101454 0.1959834479682427 0  0.4394608940728603 0.2040870543693135 0  0.5439623148931173 0.2040856076781014 0  0.5290511287473298 0.2040749161535501 0  0.4991779197988497 0.2040749161535382 0  0.3347912413592433 0.1959225448935183 0  0.3199680582793816 0.1959123018030061 0  0.2825051229162361 0.1959834479681729 0  0.3590471196690275 0.2036304442587945 0  0.5571594006495384 0.1963685282145804 0  0.3067669986803285 0.203627750582736 0  0.4262598344738712 0.2036568242185335 0  0.5814408164431408 0.2041285596160068 0  0.5688286748170428 0.1961819304477386 0  0.4145905603063645 0.2038180695522843 0  0.3473758401724931 0.2038180695522752 0  0.2950977245128307 0.2038180695522663 0  0.5688286748170693 0.203818069552238 0  0.2950977245127906 0.1961819304477774 0  0.3473758401723931 0.1961819304478349 0  0.4145905603061963 0.1961819304479011 0  0.2601812407614425 0.2056861609747042
[...]
<PointData  Vectors="f_46-2"> 
<DataArray  type="Float64"  Name="f_46-2"  NumberOfComponents="3" format="ascii">0.0000000000000000e+00 0.0000000000000000e+00 0.0000000000000000e+00  0.0000000000000000e+00 0.0000000000000000e+00 0.0000000000000000e+00  0.0000000000000000e+00 0.0000000000000000e+00 0.0000000000000000e+00  0.0000000000000000e+00 0.0000000000000000e+00 0.0000000000000000e+00  3.3890690908383791e-05 2.9716733192682010e-04 0.0000000000000000e+00  1.6317310164183860e-05 2.9651681482619808e-04 0.0000000000000000e+00  0.0000000000000000e+00 0.0000000000000000e+00 0.0000000000000000e+00  0.0000000000000000e+00 0.0000000000000000e+00 0.0000000000000000e+00  0.0000000000000000e+00 0.0000000000000000e+00 0.0000000000000000e+00  0.0000000000000000e+00 0.0000000000000000e+00 0.0000000000000000e+00  2.4816121091599097e-05 2.9684021180565985e-04 0.0000000000000000e+00  0.0000000000000000e+00 0.0000000000000000e+00 0.0000000000000000e+00  0.0000000000000000e+00 0.0000000000000000e+00 0.0000000000000000e+00  0.0000000000000000e+00 0.0000000000000000e+00 0.0000000000000000e+00  0.0000000000000000e+00 0.0000000000000000e+00 0.0000000000000000e+00  0.0000000000000000e+00 0.0000000000000000e+00 0.0000000000000000e+00  0.0000000000000000e+00 0.0000000000000000e+00 0.0000000000000000e+00  0.0000000000000000e+00 0.0000000000000000e+00 0.0000000000000000e+00  0.0000000000000000e+00 0.0000000000000000e+00 0.0000000000000000e+00  0.0000000000000000e+00 0.0000000000000000e+00 0.0000000000000000e+00  0.0000000000000000e+00 0.0000000000000000e+00 0.0000000000000000e+00  0.0000000000000000e+00 0.0000000000000000e+00 0.0000000000000000e+00  0.0000000000000000e+00 0.0000000000000000e+00 0.0000000000000000e+00  0.0000000000000000e+00 0.0000000000000000e+00 0.0000000000000000e+00  0.0000000000000000e+00 0.0000000000000000e+00 0.0000000000000000e+00  0.0000000000000000e+00 0.0000000000000000e+00 0.0000000000000000e+00  0.0000000000000000e+00 0.0000000000000000e+00 0.0000000000000000e+00  0.0000000000000000e+00 0.0000000000000000e+00 0.0000000000000000e+00  0.0000000000000000e+00 0.0000000000000000e+00 0.0000000000000000e+00  0.0000000000000000e+00 0.0000000000000000e+00 0.0000000000000000e+00  0.0000000000000000e+00 0.0000000000000000e+00 0.0000000000000000e+00  0.0000000000000000e+00 0.0000000000000000e+00 0.0000000000000000e+00  0.0000000000000000e+00 0.0000000000000000e+00 0.0000000000000000e+00  0.0000000000000000e+00 0.0000000000000000e+00 0.0000000000000000e+00  0.0000000000000000e+00 0.0000000000000000e+00 0.0000000000000000e+00  -3.7342339400462408e-13 6.6871382724700422e-17 0.0000000000000000e+00  0.0000000000000000e+00 0.0000000000000000e+00 0.0000000000000000e+00  0.0000000000000000e+00 0.0000000000000000e+00 0.0000000000000000e+00  0.0000000000000000e+00 0.0000000000000000e+00 0.0000000000000000e+00  0.0000000000000000e+00 0.0000000000000000e+00 0.0000000000000000e+00  0.0000000000000000e+00 0.0000000000000000e+00 0.0000000000000000e+00  0.0000000000000000e+00 0.0000000000000000e+00 0.0000000000000000e+00  0.0000000000000000e+00 0.0000000000000000e+00 0.0000000000000000e+00  0.0000000000000000e+00 0.0000000000000000e+00 0.0000000000000000e+00  0.0000000000000000e+00 0.0000000000000000e+00 0.0000000000000000e+00  0.0000000000000000e+00 0.0000000000000000e+00 0.0000000000000000e+00  0.0000000000000000e+00 0.0000000000000000e+00 0.0000000000000000e+00  0.0000000000000000e+00 0.0000000000000000e+00 0.0000000000000000e+00  0.0000000000000000e+00 0.0000000000000000e+00 0.0000000000000000e+00  0.0000000000000000e+00 0.0000000000000000e+00 0.0000000000000000e+00  0.0000000000000000e+00 0.0000000000000000e+00 0.0000000000000000e+00  0.0000000000000000e+00 0.0000000000000000e+00 0.0000000000000000e+00  0.0000000000000000e+00 0.0000000000000000e+00 0.0000000000000000e+00  0.0000000000000000e+00 0.0000000000000000e+00 0.0000000000000000e+00  0.0000000000000000e+00 0.0000000000000000e+00 0.0000000000000000e+00  0.0000000000000000e+00 0.0000000000000000e+00 0.0000000000000000e+00  0.0000000000000000e+00 0.0000000000000000e+00 0.0000000000000000e+00  0.0000000000000000e+00 0.0000000000000000e+00 0.0000000000000000e+00  0.0000000000000000e+00 0.0000000000000000e+00 0.0000000000000000e+00  0.0000000000000000e+00 0.0000000000000000e+00 0.0000000000000000e+00  0.0000000000000000e+00 0.0000000000000000e+00 0.0000000000000000e+00  0.0000000000000000e+00 0.0000000000000000e+00 0.0000000000000000e+00  0.0000000000000000e+00 0.0000000000000000e+00 0.0000000000000000e+00  0.0000000000000000e+00 0.0000000000000000e+00 0.0000000000000000e+00  0.0000000000000000e+00 0.0000000000000000e+00 0.0000000000000000e+00  0.0000000000000000e+00 0.0000000000000000e+00 0.0000000000000000e+00  0.0000000000000000e+00 0.0000000000000000e+00 0.0000000000000000e+00  0.0000000000000000e+00 0.0000000000000000e+00 0.0000000000000000e+00  0.0000000000000000e+00 0.0000000000000000e+00 0.0000000000000000e+00  0.0000000000000000e+00 0.0000000000000000e+00 0.0000000000000000e+00  0.0000000000000000e+00 0.0000000000000000e+00 0.0000000000000000e+00  0.0000000000000000e+00 0.0000000000000000e+00 0.0000000000000000e+00  0.0000000000000000e+00 0.0000000000000000e+00 0.0000000000000000e+00  0.0000000000000000e+00 0.0000000000000000e+00 0.0000000000000000e+00  0.0000000000000000e+00 0.0000000000000000e+00 0.0000000000000000e+00  0.0000000000000000e+00 0.0000000000000000e+00 0.0000000000000000e+00  0.0000000000000000e+00 0.0000000000000000e+00 0.0000000000000000e+00  0.0000000000000000e+00 0.0000000000000000e+00 0.0000000000000000e+00  0.0000000000000000e+00 0.0000000000000000e+00 0.0000000000000000e+00  0.0000000000000000e+00 0.0000000000000000e+00 0.0000000000000000e+00  0.0000000000000000e+00 0.0000000000000000e+00 0.0000000000000000e+00  0.0000000000000000e+00 0.0000000000000000e+00 0.0000000000000000e+00  0.0000000000000000e+00 0.0000000000000000e+00 0.0000000000000000e+00  0.0000000000000000e+00 0.0000000000000000e+00 0.0000000000000000e+00  0.0000000000000000e+00 0.0000000000000000e+00 0.0000000000000000e+00  0.0000000000000000e+00 0.0000000000000000e+00 0.0000000000000000e+00  0.0000000000000000e+00 0.0000000000000000e+00 0.0000000000000000e+00  0.0000000000000000e+00 0.0000000000000000e+00 0.0000000000000000e+00  3.2618245414479323e-15 0.0000000000000000e+00 0.0000000000000000e+00  0.0000000000000000e+00 0.0000000000000000e+00 0.0000000000000000e+00  0.0000000000000000e+00 0.0000000000000000e+00 0.0000000000000000e+00  0.0000000000000000e+00 0.0000000000000000e+00 0.0000000000000000e+00  0.0000000000000000e+00 0.0000000000000000e+00 0.0000000000000000e+00  0.0000000000000000e+00 0.0000000000000000e+00 0.0000000000000000e+00  -1.2644982767155913e-11 1.7930168713021606e-17 0.0000000000000000e+00  0.0000000000000000e+00 0.0000000000000000e+00 0.0000000000000000e+00  0.0000000000000000e+00 0.0000000000000000e+00 0.0000000000000000e+00  0.0000000000000000e+00 0.0000000000000000e+00 0.0000000000000000e+00  0.0000000000000000e+00 0.0000000000000000e+00 0.0000000000000000e+00  0.0000000000000000e+00 0.0000000000000000e+00 0.0000000000000000e+00  0.0000000000000000e+00 0.0000000000000000e+00 0.0000000000000000e+00  0.0000000000000000e+00 0.0000000000000000e+00 0.0000000000000000e+00  0.0000000000000000e+00 0.0000000000000000e+00 0.0000000000000000e+00  0.0000000000000000e+00 0.0000000000000000e+00 0.0000000000000000e+00  0.0000000000000000e+00 0.0000000000000000e+00 0.0000000000000000e+00  -5.5125036556957265e-13 -3.1095516975940519e-14 0.0000000000000000e+00  0.0000000000000000e+00 0.0000000000000000e+00 0.0000000000000000e+00  0.0000000000000000e+00 0.0000000000000000e+00 0.0000000000000000e+00  0.0000000000000000e+00 0.0000000000000000e+00 0.0000000000000000e+00  0.0000000000000000e+00 0.0000000000000000e+00 0.0000000000000000e+00  -3.7187935191625220e-13 -3.4605846078995208e-21 0.0000000000000000e+00  0.0000000000000000e+00 0.0000000000000000e+00 0.0000000000000000e+00  0.0000000000000000e+00 0.0000000000000000e+00 0.0000000000000000e+00  0.0000000000000000e+00 0.0000000000000000e+00 0.0000000000000000e+00  0.0000000000000000e+00 0.0000000000000000e+00 0.0000000000000000e+00  0.0000000000000000e+00 0.0000000000000000e+00 0.0000000000000000e+00  0.0000000000000000e+00 0.0000000000000000e+00 0.0000000000000000e+00  0.0000000000000000e+00 0.0000000000000000e+00 0.0000000000000000e+00  0.0000000000000000e+00 0.0000000000000000e+00 0.0000000000000000e+00  0.0000000000000000e+00 0.0000000000000000e+00 0.0000000000000000e+00  0.0000000000000000e+00 0.0000000000000000e+00 0.0000000000000000e+00  0.0000000000000000e+00 0.0000000000000000e+00 0.0000000000000000e+00  0.0000000000000000e+00 0.0000000000000000e+00 0.0000000000000000e+00  0.0000000000000000e+00 0.0000000000000000e+00 0.0000000000000000e+00  0.0000000000000000e+00 0.0000000000000000e+00 0.0000000000000000e+00  0.0000000000000000e+00 0.0000000000000000e+00 0.0000000000000000e+00  0.0000000000000000e+00 0.0000000000000000e+00 0.0000000000000000e+00  0.0000000000000000e+00 0.0000000000000000e+00 0.0000000000000000e+00  0.0000000000000000e+00 0.0000000000000000e+00 0.0000000000000000e+00  0.0000000000000000e+00 0.0000000000000000e+00 0.0000000000000000e+00  0.0000000000000000e+00 0.0000000000000000e+00 0.0000000000000000e+00  0.0000000000000000e+00 0.0000000000000000e+00 0.0000000000000000e+00  0.0000000000000000e+00 0.0000000000000000e+00 0.0000000000000000e+00  0.0000000000000000e+00 0.0000000000000000e+00 0.0000000000000000e+00  0.0000000000000000e+00 0.0000000000000000e+00 0.0000000000000000e+00  0.0000000000000000e+00 0.0000000000000000e+00 0.0000000000000000e+00  0.0000000000000000e+00 0.0000000000000000e+00 0.0000000000000000e+00  0.0000000000000000e+00 0.0000000000000000e+00 0.0000000000000000e+00  0.0000000000000000e+00 0.0000000000000000e+00 0.0000000000000000e+00  0.0000000000000000e+00 0.0000000000000000e+00 0.0000000000000000e+00  0.0000000000000000e+00 0.0000000000000000e+00 0.0000000000000000e+00  0.0000000000000000e+00 0.0000000000000000e+00 0.0000000000000000e+00  7.5698397580240018e-13 1.0811929302346994e-12 0.0000000000000000e+00  -6.3062583159281109e-07 3.8893839869513474e-07 0.0000000000000000e+00  -1.2862620486131259e-06 1.8854436122200407e-06 0.0000000000000000e+00  -1.6444712493529193e-06 4.2407348424595034e-06 0.0000000000000000e+00  -1.9823398780190372e-06 7.4696786826560492e-06 0.0000000000000000e+00  -2.0590159626425768e-06 1.1307097325929248e-05 0.0000000000000000e+00  -2.1642504296653002e-06 1.5797797127927635e-05 0.0000000000000000e+00  -2.0433015692497541e-06 2.0721196311988032e-05 0.0000000000000000e+00  -1.8433682319036807e-06 2.6176727909563860e-05 0.0000000000000000e+00  -1.6715562914556192e-06 3.1996857460884377e-05 0.0000000000000000e+00  -1.3086903563566255e-06 3.8155141027601072e-05 0.0000000000000000e+00  -9.8510166380200732e-07 4.4621097448448432e-05 0.0000000000000000e+00  -5.1514878508031777e-07 5.1323567742753021e-05 0.0000000000000000e+00  -5.6823484119129944e-08 5.8233993229022157e-05 0.0000000000000000e+00  4.8765393397645553e-07 6.5285930718975030e-05 0.0000000000000000e+00  1.0637823284590630e-06 7.2488091536287625e-05 0.0000000000000000e+00  1.6428495858543102e-06 7.9780383862261922e-05 0.0000000000000000e+00  2.2739128082021527e-06 8.7147713200688839e-05 0.0000000000000000e+00  2.9065068780149711e-06 9.4564305237335392e-05 0.0000000000000000e+00  3.5655513137578062e-06 1.0201193383968448e-04 0.0000000000000000e+00  4.2300710222883449e-06 1.0946614670328901e-04 0.0000000000000000e+00  4.9005530373779960e-06 1.1692046711684649e-04 0.0000000000000000e+00  5.5760959786764044e-06 1.2435300054150635e-04 0.0000000000000000e+00  6.2437625100782870e-06 1.3176096214140499e-04 0.0000000000000000e+00  6.9063377803230902e-06 1.3912828301763889e-04 0.0000000000000000e+00  7.5728322923490034e-06 1.4645574147152999e-04 0.0000000000000000e+00  8.2181663087313364e-06 1.5373766168998387e-04 0.0000000000000000e+00  8.8534503473473703e-06 1.6095637384747828e-04 0.0000000000000000e+00  9.4674699320329498e-06 1.6813257430469436e-04 0.0000000000000000e+00  1.0068323446004070e-05 1.7523997292189677e-04 0.0000000000000000e+00  1.0642881939011080e-05 1.8230593845918442e-04 0.0000000000000000e+00  1.1200918217840004e-05 1.8930246136705000e-04 0.0000000000000000e+00  1.1729076767752410e-05 1.9626214508833943e-04 0.0000000000000000e+00  1.2237240560129300e-05 2.0315502563651499e-04 0.0000000000000000e+00  1.2714013118861751e-05 2.1001866907506753e-04 0.0000000000000000e+00  1.3166320337505085e-05 2.1682027452123024e-04 0.0000000000000000e+00  1.3585628882090556e-05 2.2360159901732302e-04 0.0000000000000000e+00  1.3978796967317063e-05 2.3032881025392748e-04 0.0000000000000000e+00  1.4338121881969812e-05 2.3704454934772280e-04 0.0000000000000000e+00  1.4669133983812934e-05 2.4371433928162142e-04 0.0000000000000000e+00  1.4964349598072319e-05 2.5038292821175090e-04 0.0000000000000000e+00  1.5225563716830703e-05 2.5701925505002183e-04 0.0000000000000000e+00  1.5457484945250428e-05 2.6365137788498475e-04 0.0000000000000000e+00  1.5654820407500710e-05 2.7026950360024084e-04 0.0000000000000000e+00  1.5833397608209580e-05 2.7688308537801104e-04 0.0000000000000000e+00  1.5973351571197841e-05 2.8350352861671995e-04 0.0000000000000000e+00  1.6115710568264016e-05 2.9008697415632961e-04 0.0000000000000000e+00  2.0469980743777701e-05 2.9668303672562542e-04 0.0000000000000000e+00  2.9267207872812469e-05 2.9699441329340338e-04 0.0000000000000000e+00  3.3702271099148484e-05 2.9045966001141343e-04 0.0000000000000000e+00  3.3580191383088807e-05 2.8391188040406744e-04 0.0000000000000000e+00  3.3456964852321865e-05 2.7738081369037840e-04 0.0000000000000000e+00  3.3305006184589252e-05 2.7082945327327763e-04 0.0000000000000000e+00  3.3135189273900894e-05 2.6427073416648709e-04 0.0000000000000000e+00  3.2936912110788548e-05 2.5769879561440189e-04 0.0000000000000000e+00  3.2723963976470003e-05 2.5110773386999649e-04 0.0000000000000000e+00  3.2479424804509439e-05 2.4450959265205033e-04 0.0000000000000000e+00  3.2221072360281770e-05 2.3787107198095878e-04 0.0000000000000000e+00  3.1933349887439375e-05 2.3122317408104178e-04 0.0000000000000000e+00  3.1636281960954259e-05 2.2452601275653830e-04 0.0000000000000000e+00  3.1308933018326809e-05 2.1780971095245144e-04 0.0000000000000000e+00  3.0976013746707666e-05 2.1103628259043714e-04 0.0000000000000000e+00  3.0610763680751747e-05 2.0423441452293174e-04 0.0000000000000000e+00  3.0242686306728892e-05 1.9736822281813003e-04 0.0000000000000000e+00  2.9839544913497862e-05 1.9046668643317826e-04 0.0000000000000000e+00  2.9434762764629206e-05 1.8349540878254616e-04 0.0000000000000000e+00  2.8993340437102532e-05 1.7648382354454109e-04 0.0000000000000000e+00  2.8550497243562768e-05 1.6939999355656152e-04 0.0000000000000000e+00  2.8069563505843087e-05 1.6227427795186298e-04 0.0000000000000000e+00  2.7584889087111305e-05 1.5507694017433338e-04 0.0000000000000000e+00  2.7061330504396292e-05 1.4783988416302804e-04 0.0000000000000000e+00  2.6524408310397532e-05 1.4054190631610641e-04 0.0000000000000000e+00  2.5956278698817419e-05 1.3320632226690953e-04 0.0000000000000000e+00  2.5360768919257863e-05 1.2582640409372416e-04 0.0000000000000000e+00  2.4749060789228997e-05 1.1841885600127680e-04 0.0000000000000000e+00  2.4099012175996438e-05 1.1099825453166190e-04 0.0000000000000000e+00  2.3416638143018521e-05 1.0355585230752389e-04 0.0000000000000000e+00  2.2700438246418518e-05 9.6139435203848147e-05 0.0000000000000000e+00  2.1943112870755809e-05 8.8730642247821778e-05 0.0000000000000000e+00  2.1152157369386433e-05 8.1383113849137708e-05 0.0000000000000000e+00  2.0294542474012111e-05 7.4106629433033511e-05 0.0000000000000000e+00  1.9422521826777188e-05 6.6914218462892785e-05 0.0000000000000000e+00  1.8506250668154123e-05 5.9873500150916377e-05 0.0000000000000000e+00  1.7504981317419895e-05 5.2952635023921628e-05 0.0000000000000000e+00  1.6471187852112933e-05 4.6263316867966999e-05 0.0000000000000000e+00  1.5349301168529214e-05 3.9787425397841366e-05 0.0000000000000000e+00  1.4194247268864003e-05 3.3611974971612261e-05 0.0000000000000000e+00  1.2886410114341270e-05 2.7802878547259880e-05 0.0000000000000000e+00  1.1607890809155730e-05 2.2328570384214426e-05 0.0000000000000000e+00  1.0261821063773485e-05 1.7390703264821281e-05 0.0000000000000000e+00  8.7109409230444093e-06 1.2863135051595021e-05 0.0000000000000000e+00  7.1615146578340607e-06 9.0011102462704180e-06 0.0000000000000000e+00  5.3990903273108110e-06 5.8073829721831947e-06 0.0000000000000000e+00  3.6971661193819449e-06 3.3938545846894664e-06 0.0000000000000000e+00  1.7889435122537112e-06 1.7665882407217098e-06 0.0000000000000000e+00  7.9111537064674851e-07 1.2307589036910286e-06 0.0000000000000000e+00  2.4618987850300296e-05 2.8697888632587268e-04 0.0000000000000000e+00  2.4355591508123549e-05 2.7441315161044196e-04 0.0000000000000000e+00  2.3816779192938711e-05 2.5382545027015184e-04 0.0000000000000000e+00  2.2416267677417904e-06 6.0536963125353269e-06 0.0000000000000000e+00  2.3383836944074584e-05 2.4080445225844706e-04 0.0000000000000000e+00  3.6973578576496801e-06 1.3519726764424634e-05 0.0000000000000000e+00  2.2742377095820597e-05 2.2744564336793873e-04 0.0000000000000000e+00  6.0229772647866279e-06 2.9851728342459833e-05 0.0000000000000000e+00  7.3697442966085581e-06 4.1995000209855767e-05 0.0000000000000000e+00  2.2001848481369452e-05 2.1395319621323762e-04 0.0000000000000000e+00  1.1182955379412245e-05 7.7185651168611965e-05 0.0000000000000000e+00  2.0243705195087701e-05 1.8643347118632925e-04 0.0000000000000000e+00  8.9055160949144126e-06 5.4894242793224185e-05 0.0000000000000000e+00  1.2433607888593801e-05 9.1611818038593598e-05 0.0000000000000000e+00  1.9235978587123439e-05 1.7235615421542141e-04 0.0000000000000000e+00  2.1167369016887098e-05 2.0029235260113012e-04 0.0000000000000000e+00  1.3803862918666479e-05 1.0650238756149701e-04 0.0000000000000000e+00  1.8149065403739037e-05 1.5805106886883539e-04 0.0000000000000000e+00  1.5202435436817536e-05 1.2080543867564662e-04 0.0000000000000000e+00  1.6891374089002649e-05 1.4381946495018781e-04 0.0000000000000000e+00  1.6020325140949689e-05 1.3189395948402436e-04 0.0000000000000000e+00  9.8562665941388225e-06 6.5406860988754756e-05 0.0000000000000000e+00  2.4275813036297826e-05 2.6454479838589924e-04 0.0000000000000000e+00  4.7261474387983106e-06 2.0868891274523322e-05 0.0000000000000000e+00  2.7601873566876580e-05 2.8072495545182952e-04 0.0000000000000000e+00  2.5892163162487825e-06 3.5774952697458986e-06 0.0000000000000000e+00  2.5683428026092927e-05 2.3426184539789737e-04 0.0000000000000000e+00  2.6254885111994497e-05 2.4755386558439883e-04 0.0000000000000000e+00  1.2105844159291958e-06 9.4049080080395867e-06 0.0000000000000000e+00  4.2655603229116659e-06 3.5432783420466224e-05 0.0000000000000000e+00  2.3419211451860731e-05 1.9354965910278190e-04 0.0000000000000000e+00  2.5017598288171000e-05 2.2085407794171453e-04 0.0000000000000000e+00  8.8863471232437853e-06 8.3984974764306043e-05 0.0000000000000000e+00  2.2493708229840858e-05 1.7959511175742011e-04 0.0000000000000000e+00  5.5396842751067155e-06 4.8393943414783444e-05 0.0000000000000000e+00  1.0244992636404995e-05 9.8824768949334790e-05 0.0000000000000000e+00  2.1487831328540366e-05 1.6541554719576366e-04 0.0000000000000000e+00  2.4261521368311995e-05 2.0729441171440707e-04 0.0000000000000000e+00  1.0943406378141744e-05 1.1360280679814496e-04 0.0000000000000000e+00  2.0403284153884387e-05 1.5100855561988593e-04 0.0000000000000000e+00  9.4488257272396926e-08 1.4354960015260674e-07 0.0000000000000000e+00  4.7150840293042863e-07 4.5363400678227743e-07 0.0000000000000000e+00  2.2640599785673344e-05 2.9209710985778596e-04 0.0000000000000000e+00  3.1809902524137779e-07 2.9720631562499802e-06 0.0000000000000000e+00  2.0048863251003563e-05 1.3808839295644619e-04 0.0000000000000000e+00  1.3914058449833599e-05 7.1580600665140486e-05 0.00000000000