<?xml version="1.0"?>
<VTKFile type="UnstructuredGrid"  version="0.1"  >
<UnstructuredGrid>
<Piece  NumberOfPoints="1419" NumberOfCells="2698">
<Points>
<DataArray  type="Float64"  NumberOfComponents="3"  format="ascii">0 0 0  0 0.41 0  2.5 0 0  2.5 0.41 0  0.6 0.19 0  0.6 0.21 0  0.25 0.2 0  0.15 0.2 0  0.2489897948556636 0.21 0  0.2489897948556636 0.19 0  0.6 0.2 0  0 0.3807142857143437 0  0 0.3514285714286952 0  0 0.3221428571430699 0  0 0.29285714285744 0  0 0.2635714285718054 0  0 0.2342857142861561 0  0 0.2050000000005308 0  0 0.175714285714732 0  0 0.1464285714289574 0  0 0.1171428571431897 0  0 0.08785714285737878 0  0 0.05857142857161107 0  0 0.02928571428580012 0  0.03015443760436003 0 0  0.06140001986583606 0 0  0.09377624077125973 0 0  0.1273239957535082 0 0  0.1620856860351972 0 0  0.1981052433264291 0 0  0.235428184091502 0 0  0.2741016576309132 0 0  0.3141745521465447 0 0  0.3556974926295285 0 0  0.3987229542472677 0 0  0.4433053055141081 0 0  0.4895008759286886 0 0  0.5373680609405097 0 0  0.5869673343216626 0 0  0.6383613676634521 0 0  0.6916151138468254 0 0  0.7467958595648856 0 0  0.8039733463919316 0 0  0.8632198139502143 0 0  0.9246101326867038 0 0  0.9882218810934433 0 0  1.054135445558498 0 0  1.122434100542598 0 0  1.193204177141305 0 0  1.266535089879536 0 0  1.342519516046404 0 0  1.421253448503939 0 0  1.502836389106271 0 0  1.587371439758838 0 0  1.674965418777374 0 0  1.765729001825544 0 0  1.859776908880082 0 0  1.957227977487062 0 0  2.058205329869943 0 0  2.162836591189951 0 0  2.271253957290865 0 0  2.383594446803425 0 0  2.5 0.1024999999997612 0  2.5 0.2049999999994743 0  2.5 0.3074999999997183 0  2.383594446803656 0.41 0  2.271253957291315 0.41 0  2.162836591190598 0.41 0  2.058205329870775 0.41 0  1.957227977488067 0.41 0  1.859776908881246 0.41 0  1.765729001826854 0.41 0  1.674965418778818 0.41 0  1.58737143976041 0.41 0  1.502836389107956 0.41 0  1.421253448505726 0.41 0  1.342519516048286 0.41 0  1.266535089881505 0.41 0  1.193204177143353 0.41 0  1.122434100544716 0.41 0  1.05413544556068 0.41 0  0.9882218810956305 0.41 0  0.9246101326886647 0.41 0  0.8632198139519631 0.41 0  0.8039733463934788 0.41 0  0.7467958595662458 0.41 0  0.6916151138480078 0.41 0  0.6383613676644679 0.41 0  0.5869673343225223 0.41 0  0.5373680609412221 0.41 0  0.4895008759292634 0.41 0  0.4433053055145528 0.41 0  0.3987229542475914 0.41 0  0.3556974926297398 0.41 0  0.3141745521466497 0.41 0  0.2741016576310038 0.41 0  0.2354281840915826 0.41 0  0.1981052433265003 0.41 0  0.1620856860352591 0.41 0  0.1273239957535623 0.41 0  0.09377624077128965 0.41 0  0.06140001986584975 0.41 0  0.03015443760436654 0.41 0  0.2497468076502589 0.2050254481002335 0  0.2497468076502614 0.1949745518997913 0  0.2469965252529372 0.1829317073451959 0  0.2439893735792749 0.1762316384219906 0  0.2400332147834255 0.1700443375285386 0  0.2352133972704371 0.1645032867342007 0  0.2296339016332438 0.1597280261969788 0  0.2234150974217223 0.1558215752574715 0  0.2166911463437691 0.1528682099456123 0  0.2096071079204251 0.1509316448471593 0  0.2023158100364996 0.1500536585536553 0  0.194974551899914 0.1502531923497262 0  0.1877417105387872 0.1515259415822739 0  0.1807733240461124 0.153844448527136 0  0.1742197252835808 0.15715869474974 0  0.1682222986673531 0.1613971801805478 0  0.162910430003803 0.1664684656256651 0  0.1583987151779087 0.1722631454351573 0  0.1547844879126891 0.178656207771761 0  0.1521457199348551 0.1855097315605723 0  0.1505393388476355 0.1926758619366523 0  0.1505393388476328 0.2073241380633295 0  0.1521457199348437 0.2144902684393899 0  0.1547844879126531 0.221343792228163 0  0.1583987151778488 0.2277368545647528 0  0.1629104300036858 0.2335315343742052 0  0.1682222986671726 0.2386028198193036 0  0.1742197252833576 0.2428413052501257 0  0.1807733240458683 0.2461555514727623 0  0.1877417105384929 0.2484740584176516 0  0.1949745518995776 0.2497468076502398 0  0.202315810036185 0.2499463414463592 0  0.2096071079201568 0.2490683551528932 0  0.2166911463435495 0.2471317900544655 0  0.2234150974215506 0.2441784247426195 0  0.2296339016331197 0.2402719738031125 0  0.2352133972703547 0.2354967132658811 0  0.2400332147833751 0.2299556624715287 0  0.2439893735792577 0.2237683615780412 0  0.246996525252926 0.2170682926548348 0  0.25645809709277 0.21 0  0.2639263993298655 0.21 0  0.271394701566961 0.21 0  0.2788630038040554 0.21 0  0.2863313060411479 0.21 0  0.2937996082782405 0.21 0  0.301267910515333 0.21 0  0.3087362127524279 0.21 0  0.3162045149895234 0.21 0  0.3236728172265972 0.21 0  0.3311411194636928 0.21 0  0.3386094217007701 0.21 0  0.3460777239378666 0.21 0  0.3535460261749672 0.21 0  0.3610143284120516 0.21 0  0.3684826306491596 0.21 0  0.3759509328862226 0.21 0  0.383419235123329 0.21 0  0.3908875373604028 0.21 0  0.3983558395975142 0.21 0  0.4058241418345938 0.21 0  0.4132924440716992 0.21 0  0.4207607463087888 0.21 0  0.4282290485459029 0.21 0  0.4356973507830418 0.21 0  0.4431656530201649 0.21 0  0.4506339552573136 0.21 0  0.4581022574944306 0.21 0  0.4655705597315852 0.21 0  0.4730388619686996 0.21 0  0.480507164205851 0.21 0  0.4879754664429498 0.21 0  0.4954437686800938 0.21 0  0.502912070917267 0.21 0  0.5103803731544119 0.21 0  0.5178486753915261 0.21 0  0.5253169776286404 0.21 0  0.5327852798657868 0.21 0  0.5402535821029386 0.21 0  0.54772188434007 0.21 0  0.5551901865771842 0.21 0  0.5626584888143201 0.21 0  0.5701267910514778 0.21 0  0.5775950932886138 0.21 0  0.5850633955257281 0.21 0  0.5925316977628483 0.21 0  0.6 0.2050000000000054 0  0.6 0.1950000000000217 0  0.5925316977628897 0.19 0  0.5850633955257988 0.19 0  0.5775950932887378 0.19 0  0.5701267910515998 0.19 0  0.5626584888145268 0.19 0  0.5551901865773963 0.19 0  0.547721884340339 0.19 0  0.5402535821032429 0.19 0  0.5327852798661811 0.19 0  0.5253169776290537 0.19 0  0.5178486753919799 0.19 0  0.5103803731549078 0.19 0  0.502912070917822 0.19 0  0.4954437686807294 0.19 0  0.4879754664436223 0.19 0  0.4805071642065402 0.19 0  0.4730388619694271 0.19 0  0.4655705597323621 0.19 0  0.4581022574952563 0.19 0  0.4506339552581777 0.19 0  0.4431656530210671 0.19 0  0.4356973507839815 0.19 0  0.4282290485468779 0.19 0  0.4207607463097617 0.19 0  0.4132924440726327 0.19 0  0.4058241418354857 0.19 0  0.3983558395983636 0.19 0  0.3908875373612097 0.19 0  0.3834192351240934 0.19 0  0.3759509328869369 0.19 0  0.3684826306498175 0.19 0  0.361014328412667 0.19 0  0.3535460261755617 0.19 0  0.3460777239384295 0.19 0  0.3386094217012945 0.19 0  0.3311411194641595 0.19 0  0.3236728172270245 0.19 0  0.3162045149898895 0.19 0  0.3087362127527544 0.19 0  0.3012679105156187 0.19 0  0.2937996082784807 0.19 0  0.2863313060413428 0.19 0  0.2788630038042048 0.19 0  0.2713947015670686 0.19 0  0.2639263993299336 0.19 0  0.2564580970927985 0.19 0  0.2607803159922026 0.2000727136295815 0  0.5887803774232762 0.2001272386983733 0  0.5745072403740523 0.2002044435018727 0  0.5511891430099709 0.2001122610077113 0  0.2751288526855082 0.20000000000002 0  0.5365194309847112 0.1999999999999436 0  0.2894621222999649 0.1998691686390484 0  0.5215828265105155 0.1999999999999228 0  0.3127789816668748 0.1998657885438805 0  0.3274069683451451 0.2000000000000796 0  0.5066462220363641 0.199999999999908 0  0.3650630746574081 0.199866017807523 0  0.476773013087985 0.1999999999998713 0  0.3417402379596385 0.1998691686391011 0  0.3796850840047755 0.200000000000134 0  0.4618364086138087 0.1999999999998546 0  0.4917096175621762 0.1999999999998808 0  0.3946216884789568 0.2000000000001512 0  0.446899804139621 0.1999999999998389 0  0.4089549580935208 0.1998691686391595 0  0.4322718174608562 0.200127451265745 0  0.4201487168029707 0.1999966199048527 0  0.3528922713220932 0.2000185703532356 0  0.5633122436674589 0.1999814296467508 0  0.3006558810093873 0.1999966199048318 0  0.5815926498168407 0.1966545283159175 0  0.2677053789419034 0.1964246479135325 0  0.5290511287476175 0.1970915826863981 0  0.5439877332217911 0.197091582686394 0  0.2825131256993216 0.2035478995978015 0  0.3199386661080599 0.202908417313604 0  0.4842413153250809 0.1970915826863873 0  0.5141145242734466 0.1970915826863843 0  0.3722167817676917 0.2029084173136195 0  0.4693047108508938 0.1970915826863783 0  0.3348752705822316 0.202908417313609 0  0.3871533862418661 0.2029084173136212 0  0.4543681063767183 0.1970915826863795 0  0.4991779197992749 0.1970915826863902 0  0.4020059614928624 0.203547899597858 0  0.4394315019025246 0.1970915826863714 0  0.2550657455369551 0.2034088125358657 0  0.2548908499171161 0.1966940311614271 0  0.5946539510196798 0.2024302972968126 0  0.267698176732111 0.2039977513680092 0  0.4261685417851465 0.196409292431739 0  0.3590076176283495 0.196411355804271 0  0.5571672426447437 0.2036011176410121 0  0.3066757059912147 0.1964092924317024 0  0.594380730180568 0.1966558399668133 0  0.4842413153245942 0.2040749161535287 0  0.4693047108503577 0.2040749161535231 0  0.3871533862424271 0.1959250838464788 0  0.372246743208829 0.1959123236376545 0  0.5141145242731028 0.2040749161535395 0  0.4543681063761134 0.2040749161535186 0  0.4019979587101454 0.1959834479682427 0  0.4394608940728603 0.2040870543693135 0  0.5439623148931173 0.2040856076781014 0  0.5290511287473298 0.2040749161535501 0  0.4991779197988497 0.2040749161535382 0  0.3347912413592433 0.1959225448935183 0  0.3199680582793816 0.1959123018030061 0  0.2825051229162361 0.1959834479681729 0  0.3590471196690275 0.2036304442587945 0  0.5571594006495384 0.1963685282145804 0  0.3067669986803285 0.203627750582736 0  0.4262598344738712 0.2036568242185335 0  0.5814408164431408 0.2041285596160068 0  0.5688286748170428 0.1961819304477386 0  0.4145905603063645 0.2038180695522843 0  0.3473758401724931 0.2038180695522752 0  0.2950977245128307 0.2038180695522663 0  0.5688286748170693 0.203818069552238 0  0.2950977245127906 0.1961819304477774 0  0.3473758401723931 0.1961819304478349 0  0.4145905603061963 0.1961819304479011 0  0.2601812407614425 0.2056861609747042
[...]
<PointData  Vectors="f_46-2"> 
<DataArray  type="Float64"  Name="f_46-2"  NumberOfComponents="3" format="ascii">0.0000000000000000e+00 0.0000000000000000e+00 0.0000000000000000e+00  0.0000000000000000e+00 0.0000000000000000e+00 0.0000000000000000e+00  0.0000000000000000e+00 0.0000000000000000e+00 0.0000000000000000e+00  0.0000000000000000e+00 0.0000000000000000e+00 0.0000000000000000e+00  3.2151028100261360e-05 2.4736044636912587e-04 0.0000000000000000e+00  1.8406537357831595e-05 2.4671087533211910e-04 0.0000000000000000e+00  0.0000000000000000e+00 0.0000000000000000e+00 0.0000000000000000e+00  0.0000000000000000e+00 0.0000000000000000e+00 0.0000000000000000e+00  0.0000000000000000e+00 0.0000000000000000e+00 0.0000000000000000e+00  0.0000000000000000e+00 0.0000000000000000e+00 0.0000000000000000e+00  2.4989984318737399e-05 2.4703419804340024e-04 0.0000000000000000e+00  0.0000000000000000e+00 0.0000000000000000e+00 0.0000000000000000e+00  0.0000000000000000e+00 0.0000000000000000e+00 0.0000000000000000e+00  0.0000000000000000e+00 0.0000000000000000e+00 0.0000000000000000e+00  0.0000000000000000e+00 0.0000000000000000e+00 0.0000000000000000e+00  0.0000000000000000e+00 0.0000000000000000e+00 0.0000000000000000e+00  0.0000000000000000e+00 0.0000000000000000e+00 0.0000000000000000e+00  0.0000000000000000e+00 0.0000000000000000e+00 0.0000000000000000e+00  0.0000000000000000e+00 0.0000000000000000e+00 0.0000000000000000e+00  0.0000000000000000e+00 0.0000000000000000e+00 0.0000000000000000e+00  0.0000000000000000e+00 0.0000000000000000e+00 0.0000000000000000e+00  0.0000000000000000e+00 0.0000000000000000e+00 0.0000000000000000e+00  0.0000000000000000e+00 0.0000000000000000e+00 0.0000000000000000e+00  0.0000000000000000e+00 0.0000000000000000e+00 0.0000000000000000e+00  0.0000000000000000e+00 0.0000000000000000e+00 0.0000000000000000e+00  0.0000000000000000e+00 0.0000000000000000e+00 0.0000000000000000e+00  0.0000000000000000e+00 0.0000000000000000e+00 0.0000000000000000e+00  0.0000000000000000e+00 0.0000000000000000e+00 0.0000000000000000e+00  0.0000000000000000e+00 0.0000000000000000e+00 0.0000000000000000e+00  0.0000000000000000e+00 0.0000000000000000e+00 0.0000000000000000e+00  0.0000000000000000e+00 0.0000000000000000e+00 0.0000000000000000e+00  0.0000000000000000e+00 0.0000000000000000e+00 0.0000000000000000e+00  0.0000000000000000e+00 0.0000000000000000e+00 0.0000000000000000e+00  0.0000000000000000e+00 0.0000000000000000e+00 0.0000000000000000e+00  0.0000000000000000e+00 0.0000000000000000e+00 0.0000000000000000e+00  8.2932599321192252e-14 -4.1937060716538171e-17 0.0000000000000000e+00  0.0000000000000000e+00 0.0000000000000000e+00 0.0000000000000000e+00  0.0000000000000000e+00 0.0000000000000000e+00 0.0000000000000000e+00  0.0000000000000000e+00 0.0000000000000000e+00 0.0000000000000000e+00  0.0000000000000000e+00 0.0000000000000000e+00 0.0000000000000000e+00  0.0000000000000000e+00 0.0000000000000000e+00 0.0000000000000000e+00  0.0000000000000000e+00 0.0000000000000000e+00 0.0000000000000000e+00  0.0000000000000000e+00 0.0000000000000000e+00 0.0000000000000000e+00  0.0000000000000000e+00 0.0000000000000000e+00 0.0000000000000000e+00  0.0000000000000000e+00 0.0000000000000000e+00 0.0000000000000000e+00  0.0000000000000000e+00 0.0000000000000000e+00 0.0000000000000000e+00  0.0000000000000000e+00 0.0000000000000000e+00 0.0000000000000000e+00  0.0000000000000000e+00 0.0000000000000000e+00 0.0000000000000000e+00  0.0000000000000000e+00 0.0000000000000000e+00 0.0000000000000000e+00  0.0000000000000000e+00 0.0000000000000000e+00 0.0000000000000000e+00  0.0000000000000000e+00 0.0000000000000000e+00 0.0000000000000000e+00  0.0000000000000000e+00 0.0000000000000000e+00 0.0000000000000000e+00  0.0000000000000000e+00 0.0000000000000000e+00 0.0000000000000000e+00  0.0000000000000000e+00 0.0000000000000000e+00 0.0000000000000000e+00  0.0000000000000000e+00 0.0000000000000000e+00 0.0000000000000000e+00  0.0000000000000000e+00 0.0000000000000000e+00 0.0000000000000000e+00  0.0000000000000000e+00 0.0000000000000000e+00 0.0000000000000000e+00  0.0000000000000000e+00 0.0000000000000000e+00 0.0000000000000000e+00  0.0000000000000000e+00 0.0000000000000000e+00 0.0000000000000000e+00  0.0000000000000000e+00 0.0000000000000000e+00 0.0000000000000000e+00  0.0000000000000000e+00 0.0000000000000000e+00 0.0000000000000000e+00  0.0000000000000000e+00 0.0000000000000000e+00 0.0000000000000000e+00  0.0000000000000000e+00 0.0000000000000000e+00 0.0000000000000000e+00  0.0000000000000000e+00 0.0000000000000000e+00 0.0000000000000000e+00  0.0000000000000000e+00 0.0000000000000000e+00 0.0000000000000000e+00  0.0000000000000000e+00 0.0000000000000000e+00 0.0000000000000000e+00  0.0000000000000000e+00 0.0000000000000000e+00 0.0000000000000000e+00  0.0000000000000000e+00 0.0000000000000000e+00 0.0000000000000000e+00  0.0000000000000000e+00 0.0000000000000000e+00 0.0000000000000000e+00  0.0000000000000000e+00 0.0000000000000000e+00 0.0000000000000000e+00  0.0000000000000000e+00 0.0000000000000000e+00 0.0000000000000000e+00  0.0000000000000000e+00 0.0000000000000000e+00 0.0000000000000000e+00  0.0000000000000000e+00 0.0000000000000000e+00 0.0000000000000000e+00  0.0000000000000000e+00 0.0000000000000000e+00 0.0000000000000000e+00  0.0000000000000000e+00 0.0000000000000000e+00 0.0000000000000000e+00  0.0000000000000000e+00 0.0000000000000000e+00 0.0000000000000000e+00  0.0000000000000000e+00 0.0000000000000000e+00 0.0000000000000000e+00  0.0000000000000000e+00 0.0000000000000000e+00 0.0000000000000000e+00  0.0000000000000000e+00 0.0000000000000000e+00 0.0000000000000000e+00  0.0000000000000000e+00 0.0000000000000000e+00 0.0000000000000000e+00  0.0000000000000000e+00 0.0000000000000000e+00 0.0000000000000000e+00  0.0000000000000000e+00 0.0000000000000000e+00 0.0000000000000000e+00  0.0000000000000000e+00 0.0000000000000000e+00 0.0000000000000000e+00  0.0000000000000000e+00 0.0000000000000000e+00 0.0000000000000000e+00  0.0000000000000000e+00 0.0000000000000000e+00 0.0000000000000000e+00  0.0000000000000000e+00 0.0000000000000000e+00 0.0000000000000000e+00  0.0000000000000000e+00 0.0000000000000000e+00 0.0000000000000000e+00  0.0000000000000000e+00 0.0000000000000000e+00 0.0000000000000000e+00  -8.8769866200135376e-13 0.0000000000000000e+00 0.0000000000000000e+00  0.0000000000000000e+00 0.0000000000000000e+00 0.0000000000000000e+00  0.0000000000000000e+00 0.0000000000000000e+00 0.0000000000000000e+00  0.0000000000000000e+00 0.0000000000000000e+00 0.0000000000000000e+00  0.0000000000000000e+00 0.0000000000000000e+00 0.0000000000000000e+00  0.0000000000000000e+00 0.0000000000000000e+00 0.0000000000000000e+00  2.8264269747299380e-15 1.0533330401228335e-17 0.0000000000000000e+00  0.0000000000000000e+00 0.0000000000000000e+00 0.0000000000000000e+00  0.0000000000000000e+00 0.0000000000000000e+00 0.0000000000000000e+00  0.0000000000000000e+00 0.0000000000000000e+00 0.0000000000000000e+00  0.0000000000000000e+00 0.0000000000000000e+00 0.0000000000000000e+00  0.0000000000000000e+00 0.0000000000000000e+00 0.0000000000000000e+00  0.0000000000000000e+00 0.0000000000000000e+00 0.0000000000000000e+00  0.0000000000000000e+00 0.0000000000000000e+00 0.0000000000000000e+00  0.0000000000000000e+00 0.0000000000000000e+00 0.0000000000000000e+00  0.0000000000000000e+00 0.0000000000000000e+00 0.0000000000000000e+00  0.0000000000000000e+00 0.0000000000000000e+00 0.0000000000000000e+00  2.4411252253817772e-13 5.7752221539924882e-14 0.0000000000000000e+00  0.0000000000000000e+00 0.0000000000000000e+00 0.0000000000000000e+00  0.0000000000000000e+00 0.0000000000000000e+00 0.0000000000000000e+00  0.0000000000000000e+00 0.0000000000000000e+00 0.0000000000000000e+00  0.0000000000000000e+00 0.0000000000000000e+00 0.0000000000000000e+00  1.4677652126674918e-14 -9.6867170583921945e-15 0.0000000000000000e+00  0.0000000000000000e+00 0.0000000000000000e+00 0.0000000000000000e+00  0.0000000000000000e+00 0.0000000000000000e+00 0.0000000000000000e+00  0.0000000000000000e+00 0.0000000000000000e+00 0.0000000000000000e+00  0.0000000000000000e+00 0.0000000000000000e+00 0.0000000000000000e+00  0.0000000000000000e+00 0.0000000000000000e+00 0.0000000000000000e+00  0.0000000000000000e+00 0.0000000000000000e+00 0.0000000000000000e+00  0.0000000000000000e+00 0.0000000000000000e+00 0.0000000000000000e+00  0.0000000000000000e+00 0.0000000000000000e+00 0.0000000000000000e+00  0.0000000000000000e+00 0.0000000000000000e+00 0.0000000000000000e+00  0.0000000000000000e+00 0.0000000000000000e+00 0.0000000000000000e+00  0.0000000000000000e+00 0.0000000000000000e+00 0.0000000000000000e+00  0.0000000000000000e+00 0.0000000000000000e+00 0.0000000000000000e+00  0.0000000000000000e+00 0.0000000000000000e+00 0.0000000000000000e+00  0.0000000000000000e+00 0.0000000000000000e+00 0.0000000000000000e+00  0.0000000000000000e+00 0.0000000000000000e+00 0.0000000000000000e+00  0.0000000000000000e+00 0.0000000000000000e+00 0.0000000000000000e+00  0.0000000000000000e+00 0.0000000000000000e+00 0.0000000000000000e+00  0.0000000000000000e+00 0.0000000000000000e+00 0.0000000000000000e+00  0.0000000000000000e+00 0.0000000000000000e+00 0.0000000000000000e+00  0.0000000000000000e+00 0.0000000000000000e+00 0.0000000000000000e+00  0.0000000000000000e+00 0.0000000000000000e+00 0.0000000000000000e+00  0.0000000000000000e+00 0.0000000000000000e+00 0.0000000000000000e+00  0.0000000000000000e+00 0.0000000000000000e+00 0.0000000000000000e+00  0.0000000000000000e+00 0.0000000000000000e+00 0.0000000000000000e+00  0.0000000000000000e+00 0.0000000000000000e+00 0.0000000000000000e+00  0.0000000000000000e+00 0.0000000000000000e+00 0.0000000000000000e+00  0.0000000000000000e+00 0.0000000000000000e+00 0.0000000000000000e+00  0.0000000000000000e+00 0.0000000000000000e+00 0.0000000000000000e+00  0.0000000000000000e+00 0.0000000000000000e+00 0.0000000000000000e+00  0.0000000000000000e+00 0.0000000000000000e+00 0.0000000000000000e+00  0.0000000000000000e+00 0.0000000000000000e+00 0.0000000000000000e+00  -9.2331099575858153e-13 8.9125135390955379e-13 0.0000000000000000e+00  -5.2532498849539620e-07 3.0281956732673870e-07 0.0000000000000000e+00  -1.0620007280615442e-06 1.6744608066461624e-06 0.0000000000000000e+00  -1.3160689119264490e-06 3.8253427832033136e-06 0.0000000000000000e+00  -1.5415623229411295e-06 6.7661637971309686e-06 0.0000000000000000e+00  -1.5251405097942798e-06 1.0245692836187938e-05 0.0000000000000000e+00  -1.5246275924793001e-06 1.4302322557156343e-05 0.0000000000000000e+00  -1.3193304074481504e-06 1.8735325714009261e-05 0.0000000000000000e+00  -1.0378217086908585e-06 2.3626407064601272e-05 0.0000000000000000e+00  -7.7210987194654259e-07 2.8826153816294945e-05 0.0000000000000000e+00  -3.3832714814973384e-07 3.4305637618034914e-05 0.0000000000000000e+00  7.2253674111331153e-08 4.0035631387318085e-05 0.0000000000000000e+00  6.0690218829120830e-07 4.5949251159314243e-05 0.0000000000000000e+00  1.1420910598174083e-06 5.2019837165877139e-05 0.0000000000000000e+00  1.7471200884457839e-06 5.8190534837421269e-05 0.0000000000000000e+00  2.3817286289665608e-06 6.4460102916334366e-05 0.0000000000000000e+00  3.0273481396869124e-06 7.0781167326249873e-05 0.0000000000000000e+00  3.7086434583661171e-06 7.7137062182661652e-05 0.0000000000000000e+00  4.4016528015161555e-06 8.3503325666003621e-05 0.0000000000000000e+00  5.1054716396365052e-06 8.9865305971198648e-05 0.0000000000000000e+00  5.8229294706057193e-06 9.6201109370582330e-05 0.0000000000000000e+00  6.5352431148990577e-06 1.0250480782843885e-04 0.0000000000000000e+00  7.2570228473152306e-06 1.0875605771273898e-04 0.0000000000000000e+00  7.9614191874976581e-06 1.1495999111674402e-04 0.0000000000000000e+00  8.6588846480090281e-06 1.2109390027698728e-04 0.0000000000000000e+00  9.3634931037504825e-06 1.2716821529185497e-04 0.0000000000000000e+00  1.0040199984412472e-05 1.3317348176744955e-04 0.0000000000000000e+00  1.0706540171262436e-05 1.3909559509161633e-04 0.0000000000000000e+00  1.1347585537138214e-05 1.4495806095367919e-04 0.0000000000000000e+00  1.1974838721294787e-05 1.5073447384595517e-04 0.0000000000000000e+00  1.2572230806756287e-05 1.5645561494140718e-04 0.0000000000000000e+00  1.3152303775393797e-05 1.6209319217286091e-04 0.0000000000000000e+00  1.3699347343256136e-05 1.6768304964339943e-04 0.0000000000000000e+00  1.4225473458459690e-05 1.7319490276226319e-04 0.0000000000000000e+00  1.4717504462156816e-05 1.7866927981750676e-04 0.0000000000000000e+00  1.5184059616056624e-05 1.8407302520629182e-04 0.0000000000000000e+00  1.5615308718109553e-05 1.8945056675395171e-04 0.0000000000000000e+00  1.6019423310427760e-05 1.9476768221305112e-04 0.0000000000000000e+00  1.6387800990830199e-05 2.0006932168720510e-04 0.0000000000000000e+00  1.6726931234155400e-05 2.0532061773029014e-04 0.0000000000000000e+00  1.7028749453006541e-05 2.1056825443970342e-04 0.0000000000000000e+00  1.7295807092393697e-05 2.1578065653951546e-04 0.0000000000000000e+00  1.7532315985270235e-05 2.2098758507033782e-04 0.0000000000000000e+00  1.7733408989842089e-05 2.2617883456870028e-04 0.0000000000000000e+00  1.7915474101777250e-05 2.3136474469347043e-04 0.0000000000000000e+00  1.8058065091545383e-05 2.3655680384306483e-04 0.0000000000000000e+00  1.8202713785411104e-05 2.4171115396882416e-04 0.0000000000000000e+00  2.1601007237909404e-05 2.4687716494405397e-04 0.0000000000000000e+00  2.8484244949296751e-05 2.4718807050336266e-04 0.0000000000000000e+00  3.1961562792577902e-05 2.4208233051827694e-04 0.0000000000000000e+00  3.1838720753184928e-05 2.3696395832438873e-04 0.0000000000000000e+00  3.1714709369748511e-05 2.3186189795045258e-04 0.0000000000000000e+00  3.1562364348288817e-05 2.2673873415082939e-04 0.0000000000000000e+00  3.1392099241028901e-05 2.2160739800294413e-04 0.0000000000000000e+00  3.1193656173563724e-05 2.1646124689432458e-04 0.0000000000000000e+00  3.0981543672035973e-05 2.1129436426596730e-04 0.0000000000000000e+00  3.0737558979193987e-05 2.0611793549685836e-04 0.0000000000000000e+00  3.0481618823097039e-05 2.0089814190047339e-04 0.0000000000000000e+00  3.0195720369351509e-05 1.9566499989599905e-04 0.0000000000000000e+00  2.9903175623360681e-05 1.9037809595578555e-04 0.0000000000000000e+00  2.9579445154719543e-05 1.8506617338868371e-04 0.0000000000000000e+00  2.9253813067036234e-05 1.7969068921082156e-04 0.0000000000000000e+00  2.8894476857828216e-05 1.7427858091662748e-04 0.0000000000000000e+00  2.8537069443605131e-05 1.6879342118167115e-04 0.0000000000000000e+00  2.8142597448781294e-05 1.6326210565821404e-04 0.0000000000000000e+00  2.7752418859098923e-05 1.5764969769609295e-04 0.0000000000000000e+00  2.7322867550009665e-05 1.5198323168063722e-04 0.0000000000000000e+00  2.6899117390083376e-05 1.4623026705298025e-04 0.0000000000000000e+00  2.6433666646524383e-05 1.4041851181576521e-04 0.0000000000000000e+00  2.5973228015745970e-05 1.3451758265684244e-04 0.0000000000000000e+00  2.5469365914909707e-05 1.2855644167084101e-04 0.0000000000000000e+00  2.4961758353709677e-05 1.2251284577358156e-04 0.0000000000000000e+00  2.4419170789666031e-05 1.1641019058941170e-04 0.0000000000000000e+00  2.3851281699048195e-05 1.1023392375190793e-04 0.0000000000000000e+00  2.3275959799132705e-05 1.0400836008273130e-04 0.0000000000000000e+00  2.2660215859037604e-05 9.7736999255908637e-05 0.0000000000000000e+00  2.2018750136202766e-05 9.1414567951803862e-05 0.0000000000000000e+00  2.1342703643208922e-05 8.5082979824040801e-05 0.0000000000000000e+00  2.0632016534163038e-05 7.8724770712155351e-05 0.0000000000000000e+00  1.9886971301307826e-05 7.2390168757545159e-05 0.0000000000000000e+00  1.9086499230479361e-05 6.6082381694723742e-05 0.0000000000000000e+00  1.8264369466147414e-05 5.9823177829667563e-05 0.0000000000000000e+00  1.7400477305353725e-05 5.3663053824689346e-05 0.0000000000000000e+00  1.6465583674127235e-05 4.7585305532132925e-05 0.0000000000000000e+00  1.5494328128823233e-05 4.1682917413545222e-05 0.0000000000000000e+00  1.4443980086661186e-05 3.5943514711718225e-05 0.0000000000000000e+00  1.3358381745499857e-05 3.0449243026868499e-05 0.0000000000000000e+00  1.2135499809467376e-05 2.5257095608843863e-05 0.0000000000000000e+00  1.0931046140665588e-05 2.0348357461462234e-05 0.0000000000000000e+00  9.6618100686934964e-06 1.5900845225823373e-05 0.0000000000000000e+00  8.2076468178204377e-06 1.1809566742110541e-05 0.0000000000000000e+00  6.7470229526259152e-06 8.3065296744847636e-06 0.0000000000000000e+00  5.0905703342853690e-06 5.3969882852800900e-06 0.0000000000000000e+00  3.4839159299948248e-06 3.1890753550682422e-06 0.0000000000000000e+00  1.6886052162203648e-06 1.6874466212648000e-06 0.0000000000000000e+00  7.9590701703096436e-07 1.1433681222401729e-06 0.0000000000000000e+00  2.4815270227095389e-05 2.3932065068023005e-04 0.0000000000000000e+00  2.4563550851008828e-05 2.2948576457905776e-04 0.0000000000000000e+00  2.3999983544411783e-05 2.1335216157410334e-04 0.0000000000000000e+00  2.2520564083388346e-06 5.5573517000712897e-06 0.0000000000000000e+00  2.3540019742770801e-05 2.0312391331939631e-04 0.0000000000000000e+00  3.7077604684006602e-06 1.2335832906951042e-05 0.0000000000000000e+00  2.2891901083071252e-05 1.9259525822467962e-04 0.0000000000000000e+00  6.0407473962858533e-06 2.7016074031915052e-05 0.0000000000000000e+00  7.4062374901530671e-06 3.7821977899753086e-05 0.0000000000000000e+00  2.2143883552379502e-05 1.8191255665801694e-04 0.0000000000000000e+00  1.1222532210436200e-05 6.8666378024202364e-05 0.0000000000000000e+00  2.0368802027911615e-05 1.5991584513817920e-04 0.0000000000000000e+00  8.9351961914920921e-06 4.9210098845845739e-05 0.0000000000000000e+00  1.2499130866345431e-05 8.1106776375102396e-05 0.0000000000000000e+00  1.9351963305944779e-05 1.4853078584563470e-04 0.0000000000000000e+00  2.1301208972676767e-05 1.7103259125359440e-04 0.0000000000000000e+00  1.3878240531774660e-05 9.3824220996786953e-05 0.0000000000000000e+00  1.8255636175115836e-05 1.3685575783858883e-04 0.0000000000000000e+00  1.5264859926387942e-05 1.0592000927635241e-04 0.0000000000000000e+00  1.7010169213377290e-05 1.2512677692322403e-04 0.0000000000000000e+00  1.6109735912029941e-05 1.1520751485236722e-04 0.0000000000000000e+00  9.9087148282170764e-06 5.8414453697575365e-05 0.0000000000000000e+00  2.4437934348283083e-05 2.2175713405001379e-04 0.0000000000000000e+00  4.7485012612963706e-06 1.8959972444773214e-05 0.0000000000000000e+00  2.7132526006460340e-05 2.3444191695002036e-04 0.0000000000000000e+00  2.4994094682021891e-06 3.3208885790252996e-06 0.0000000000000000e+00  2.5286281556743589e-05 1.9799842188387309e-04 0.0000000000000000e+00  2.5861104578819331e-05 2.0845277986990463e-04 0.0000000000000000e+00  1.3905144643401217e-06 8.5779937236123244e-06 0.0000000000000000e+00  4.5613833802103796e-06 3.1963933355716702e-05 0.0000000000000000e+00  2.3016377441168212e-05 1.6566608830400646e-04 0.0000000000000000e+00  2.4617564617302187e-05 1.8741150644015057e-04 0.0000000000000000e+00  9.3401678431010903e-06 7.4508619772558157e-05 0.0000000000000000e+00  2.2091796253677013e-05 1.5442998015745475e-04 0.0000000000000000e+00  5.8837803879505340e-06 4.3451599646662275e-05 0.0000000000000000e+00  1.0735494197286861e-05 8.7246466374533472e-05 0.0000000000000000e+00  2.1088910295815436e-05 1.4291294533774860e-04 0.0000000000000000e+00  2.3859451538066523e-05 1.7664819332851043e-04 0.0000000000000000e+00  1.1565635387135145e-05 9.9797232029011015e-05 0.0000000000000000e+00  2.0009454841688677e-05 1.3109970601530568e-04 0.0000000000000000e+00  1.1408149626965848e-07 1.2427017862328085e-07 0.0000000000000000e+00  4.5688448697101239e-07 4.3758898781788678e-07 0.0000000000000000e+00  2.3278680694540301e-05 2.4331469499108246e-04 0.0000000000000000e+00  4.3313340184701433e-07 2.7126807365777208e-06 0.0000000000000000e+00  1.9549251064305825e-05 1.2041334208252030e-04 0.0000000000000000e+00  1.3517320250953719e-05 6.3833891286813421e-05 0.0000000000000000