<?xml version="1.0"?>
<VTKFile type="UnstructuredGrid"  version="0.1"  >
<UnstructuredGrid>
<Piece  NumberOfPoints="1419" NumberOfCells="2698">
<Points>
<DataArray  type="Float64"  NumberOfComponents="3"  format="ascii">0 0 0  0 0.41 0  2.5 0 0  2.5 0.41 0  0.6 0.19 0  0.6 0.21 0  0.25 0.2 0  0.15 0.2 0  0.2489897948556636 0.21 0  0.2489897948556636 0.19 0  0.6 0.2 0  0 0.3807142857143437 0  0 0.3514285714286952 0  0 0.3221428571430699 0  0 0.29285714285744 0  0 0.2635714285718054 0  0 0.2342857142861561 0  0 0.2050000000005308 0  0 0.175714285714732 0  0 0.1464285714289574 0  0 0.1171428571431897 0  0 0.08785714285737878 0  0 0.05857142857161107 0  0 0.02928571428580012 0  0.03015443760436003 0 0  0.06140001986583606 0 0  0.09377624077125973 0 0  0.1273239957535082 0 0  0.1620856860351972 0 0  0.1981052433264291 0 0  0.235428184091502 0 0  0.2741016576309132 0 0  0.3141745521465447 0 0  0.3556974926295285 0 0  0.3987229542472677 0 0  0.4433053055141081 0 0  0.4895008759286886 0 0  0.5373680609405097 0 0  0.5869673343216626 0 0  0.6383613676634521 0 0  0.6916151138468254 0 0  0.7467958595648856 0 0  0.8039733463919316 0 0  0.8632198139502143 0 0  0.9246101326867038 0 0  0.9882218810934433 0 0  1.054135445558498 0 0  1.122434100542598 0 0  1.193204177141305 0 0  1.266535089879536 0 0  1.342519516046404 0 0  1.421253448503939 0 0  1.502836389106271 0 0  1.587371439758838 0 0  1.674965418777374 0 0  1.765729001825544 0 0  1.859776908880082 0 0  1.957227977487062 0 0  2.058205329869943 0 0  2.162836591189951 0 0  2.271253957290865 0 0  2.383594446803425 0 0  2.5 0.1024999999997612 0  2.5 0.2049999999994743 0  2.5 0.3074999999997183 0  2.383594446803656 0.41 0  2.271253957291315 0.41 0  2.162836591190598 0.41 0  2.058205329870775 0.41 0  1.957227977488067 0.41 0  1.859776908881246 0.41 0  1.765729001826854 0.41 0  1.674965418778818 0.41 0  1.58737143976041 0.41 0  1.502836389107956 0.41 0  1.421253448505726 0.41 0  1.342519516048286 0.41 0  1.266535089881505 0.41 0  1.193204177143353 0.41 0  1.122434100544716 0.41 0  1.05413544556068 0.41 0  0.9882218810956305 0.41 0  0.9246101326886647 0.41 0  0.8632198139519631 0.41 0  0.8039733463934788 0.41 0  0.7467958595662458 0.41 0  0.6916151138480078 0.41 0  0.6383613676644679 0.41 0  0.5869673343225223 0.41 0  0.5373680609412221 0.41 0  0.4895008759292634 0.41 0  0.4433053055145528 0.41 0  0.3987229542475914 0.41 0  0.3556974926297398 0.41 0  0.3141745521466497 0.41 0  0.2741016576310038 0.41 0  0.2354281840915826 0.41 0  0.1981052433265003 0.41 0  0.1620856860352591 0.41 0  0.1273239957535623 0.41 0  0.09377624077128965 0.41 0  0.06140001986584975 0.41 0  0.03015443760436654 0.41 0  0.2497468076502589 0.2050254481002335 0  0.2497468076502614 0.1949745518997913 0  0.2469965252529372 0.1829317073451959 0  0.2439893735792749 0.1762316384219906 0  0.2400332147834255 0.1700443375285386 0  0.2352133972704371 0.1645032867342007 0  0.2296339016332438 0.1597280261969788 0  0.2234150974217223 0.1558215752574715 0  0.2166911463437691 0.1528682099456123 0  0.2096071079204251 0.1509316448471593 0  0.2023158100364996 0.1500536585536553 0  0.194974551899914 0.1502531923497262 0  0.1877417105387872 0.1515259415822739 0  0.1807733240461124 0.153844448527136 0  0.1742197252835808 0.15715869474974 0  0.1682222986673531 0.1613971801805478 0  0.162910430003803 0.1664684656256651 0  0.1583987151779087 0.1722631454351573 0  0.1547844879126891 0.178656207771761 0  0.1521457199348551 0.1855097315605723 0  0.1505393388476355 0.1926758619366523 0  0.1505393388476328 0.2073241380633295 0  0.1521457199348437 0.2144902684393899 0  0.1547844879126531 0.221343792228163 0  0.1583987151778488 0.2277368545647528 0  0.1629104300036858 0.2335315343742052 0  0.1682222986671726 0.2386028198193036 0  0.1742197252833576 0.2428413052501257 0  0.1807733240458683 0.2461555514727623 0  0.1877417105384929 0.2484740584176516 0  0.1949745518995776 0.2497468076502398 0  0.202315810036185 0.2499463414463592 0  0.2096071079201568 0.2490683551528932 0  0.2166911463435495 0.2471317900544655 0  0.2234150974215506 0.2441784247426195 0  0.2296339016331197 0.2402719738031125 0  0.2352133972703547 0.2354967132658811 0  0.2400332147833751 0.2299556624715287 0  0.2439893735792577 0.2237683615780412 0  0.246996525252926 0.2170682926548348 0  0.25645809709277 0.21 0  0.2639263993298655 0.21 0  0.271394701566961 0.21 0  0.2788630038040554 0.21 0  0.2863313060411479 0.21 0  0.2937996082782405 0.21 0  0.301267910515333 0.21 0  0.3087362127524279 0.21 0  0.3162045149895234 0.21 0  0.3236728172265972 0.21 0  0.3311411194636928 0.21 0  0.3386094217007701 0.21 0  0.3460777239378666 0.21 0  0.3535460261749672 0.21 0  0.3610143284120516 0.21 0  0.3684826306491596 0.21 0  0.3759509328862226 0.21 0  0.383419235123329 0.21 0  0.3908875373604028 0.21 0  0.3983558395975142 0.21 0  0.4058241418345938 0.21 0  0.4132924440716992 0.21 0  0.4207607463087888 0.21 0  0.4282290485459029 0.21 0  0.4356973507830418 0.21 0  0.4431656530201649 0.21 0  0.4506339552573136 0.21 0  0.4581022574944306 0.21 0  0.4655705597315852 0.21 0  0.4730388619686996 0.21 0  0.480507164205851 0.21 0  0.4879754664429498 0.21 0  0.4954437686800938 0.21 0  0.502912070917267 0.21 0  0.5103803731544119 0.21 0  0.5178486753915261 0.21 0  0.5253169776286404 0.21 0  0.5327852798657868 0.21 0  0.5402535821029386 0.21 0  0.54772188434007 0.21 0  0.5551901865771842 0.21 0  0.5626584888143201 0.21 0  0.5701267910514778 0.21 0  0.5775950932886138 0.21 0  0.5850633955257281 0.21 0  0.5925316977628483 0.21 0  0.6 0.2050000000000054 0  0.6 0.1950000000000217 0  0.5925316977628897 0.19 0  0.5850633955257988 0.19 0  0.5775950932887378 0.19 0  0.5701267910515998 0.19 0  0.5626584888145268 0.19 0  0.5551901865773963 0.19 0  0.547721884340339 0.19 0  0.5402535821032429 0.19 0  0.5327852798661811 0.19 0  0.5253169776290537 0.19 0  0.5178486753919799 0.19 0  0.5103803731549078 0.19 0  0.502912070917822 0.19 0  0.4954437686807294 0.19 0  0.4879754664436223 0.19 0  0.4805071642065402 0.19 0  0.4730388619694271 0.19 0  0.4655705597323621 0.19 0  0.4581022574952563 0.19 0  0.4506339552581777 0.19 0  0.4431656530210671 0.19 0  0.4356973507839815 0.19 0  0.4282290485468779 0.19 0  0.4207607463097617 0.19 0  0.4132924440726327 0.19 0  0.4058241418354857 0.19 0  0.3983558395983636 0.19 0  0.3908875373612097 0.19 0  0.3834192351240934 0.19 0  0.3759509328869369 0.19 0  0.3684826306498175 0.19 0  0.361014328412667 0.19 0  0.3535460261755617 0.19 0  0.3460777239384295 0.19 0  0.3386094217012945 0.19 0  0.3311411194641595 0.19 0  0.3236728172270245 0.19 0  0.3162045149898895 0.19 0  0.3087362127527544 0.19 0  0.3012679105156187 0.19 0  0.2937996082784807 0.19 0  0.2863313060413428 0.19 0  0.2788630038042048 0.19 0  0.2713947015670686 0.19 0  0.2639263993299336 0.19 0  0.2564580970927985 0.19 0  0.2607803159922026 0.2000727136295815 0  0.5887803774232762 0.2001272386983733 0  0.5745072403740523 0.2002044435018727 0  0.5511891430099709 0.2001122610077113 0  0.2751288526855082 0.20000000000002 0  0.5365194309847112 0.1999999999999436 0  0.2894621222999649 0.1998691686390484 0  0.5215828265105155 0.1999999999999228 0  0.3127789816668748 0.1998657885438805 0  0.3274069683451451 0.2000000000000796 0  0.5066462220363641 0.199999999999908 0  0.3650630746574081 0.199866017807523 0  0.476773013087985 0.1999999999998713 0  0.3417402379596385 0.1998691686391011 0  0.3796850840047755 0.200000000000134 0  0.4618364086138087 0.1999999999998546 0  0.4917096175621762 0.1999999999998808 0  0.3946216884789568 0.2000000000001512 0  0.446899804139621 0.1999999999998389 0  0.4089549580935208 0.1998691686391595 0  0.4322718174608562 0.200127451265745 0  0.4201487168029707 0.1999966199048527 0  0.3528922713220932 0.2000185703532356 0  0.5633122436674589 0.1999814296467508 0  0.3006558810093873 0.1999966199048318 0  0.5815926498168407 0.1966545283159175 0  0.2677053789419034 0.1964246479135325 0  0.5290511287476175 0.1970915826863981 0  0.5439877332217911 0.197091582686394 0  0.2825131256993216 0.2035478995978015 0  0.3199386661080599 0.202908417313604 0  0.4842413153250809 0.1970915826863873 0  0.5141145242734466 0.1970915826863843 0  0.3722167817676917 0.2029084173136195 0  0.4693047108508938 0.1970915826863783 0  0.3348752705822316 0.202908417313609 0  0.3871533862418661 0.2029084173136212 0  0.4543681063767183 0.1970915826863795 0  0.4991779197992749 0.1970915826863902 0  0.4020059614928624 0.203547899597858 0  0.4394315019025246 0.1970915826863714 0  0.2550657455369551 0.2034088125358657 0  0.2548908499171161 0.1966940311614271 0  0.5946539510196798 0.2024302972968126 0  0.267698176732111 0.2039977513680092 0  0.4261685417851465 0.196409292431739 0  0.3590076176283495 0.196411355804271 0  0.5571672426447437 0.2036011176410121 0  0.3066757059912147 0.1964092924317024 0  0.594380730180568 0.1966558399668133 0  0.4842413153245942 0.2040749161535287 0  0.4693047108503577 0.2040749161535231 0  0.3871533862424271 0.1959250838464788 0  0.372246743208829 0.1959123236376545 0  0.5141145242731028 0.2040749161535395 0  0.4543681063761134 0.2040749161535186 0  0.4019979587101454 0.1959834479682427 0  0.4394608940728603 0.2040870543693135 0  0.5439623148931173 0.2040856076781014 0  0.5290511287473298 0.2040749161535501 0  0.4991779197988497 0.2040749161535382 0  0.3347912413592433 0.1959225448935183 0  0.3199680582793816 0.1959123018030061 0  0.2825051229162361 0.1959834479681729 0  0.3590471196690275 0.2036304442587945 0  0.5571594006495384 0.1963685282145804 0  0.3067669986803285 0.203627750582736 0  0.4262598344738712 0.2036568242185335 0  0.5814408164431408 0.2041285596160068 0  0.5688286748170428 0.1961819304477386 0  0.4145905603063645 0.2038180695522843 0  0.3473758401724931 0.2038180695522752 0  0.2950977245128307 0.2038180695522663 0  0.5688286748170693 0.203818069552238 0  0.2950977245127906 0.1961819304477774 0  0.3473758401723931 0.1961819304478349 0  0.4145905603061963 0.1961819304479011 0  0.2601812407614425 0.2056861609747042
[...]
<PointData  Vectors="f_46-2"> 
<DataArray  type="Float64"  Name="f_46-2"  NumberOfComponents="3" format="ascii">0.0000000000000000e+00 0.0000000000000000e+00 0.0000000000000000e+00  0.0000000000000000e+00 0.0000000000000000e+00 0.0000000000000000e+00  0.0000000000000000e+00 0.0000000000000000e+00 0.0000000000000000e+00  0.0000000000000000e+00 0.0000000000000000e+00 0.0000000000000000e+00  2.6146437774572828e-05 7.3466232001807554e-05 0.0000000000000000e+00  2.5712575475508606e-05 7.2816229521160516e-05 0.0000000000000000e+00  0.0000000000000000e+00 0.0000000000000000e+00 0.0000000000000000e+00  0.0000000000000000e+00 0.0000000000000000e+00 0.0000000000000000e+00  0.0000000000000000e+00 0.0000000000000000e+00 0.0000000000000000e+00  0.0000000000000000e+00 0.0000000000000000e+00 0.0000000000000000e+00  2.5638660853893870e-05 7.3140956861269792e-05 0.0000000000000000e+00  0.0000000000000000e+00 0.0000000000000000e+00 0.0000000000000000e+00  0.0000000000000000e+00 0.0000000000000000e+00 0.0000000000000000e+00  0.0000000000000000e+00 0.0000000000000000e+00 0.0000000000000000e+00  0.0000000000000000e+00 0.0000000000000000e+00 0.0000000000000000e+00  0.0000000000000000e+00 0.0000000000000000e+00 0.0000000000000000e+00  0.0000000000000000e+00 0.0000000000000000e+00 0.0000000000000000e+00  0.0000000000000000e+00 0.0000000000000000e+00 0.0000000000000000e+00  0.0000000000000000e+00 0.0000000000000000e+00 0.0000000000000000e+00  0.0000000000000000e+00 0.0000000000000000e+00 0.0000000000000000e+00  0.0000000000000000e+00 0.0000000000000000e+00 0.0000000000000000e+00  0.0000000000000000e+00 0.0000000000000000e+00 0.0000000000000000e+00  0.0000000000000000e+00 0.0000000000000000e+00 0.0000000000000000e+00  0.0000000000000000e+00 0.0000000000000000e+00 0.0000000000000000e+00  0.0000000000000000e+00 0.0000000000000000e+00 0.0000000000000000e+00  0.0000000000000000e+00 0.0000000000000000e+00 0.0000000000000000e+00  0.0000000000000000e+00 0.0000000000000000e+00 0.0000000000000000e+00  0.0000000000000000e+00 0.0000000000000000e+00 0.0000000000000000e+00  0.0000000000000000e+00 0.0000000000000000e+00 0.0000000000000000e+00  0.0000000000000000e+00 0.0000000000000000e+00 0.0000000000000000e+00  0.0000000000000000e+00 0.0000000000000000e+00 0.0000000000000000e+00  0.0000000000000000e+00 0.0000000000000000e+00 0.0000000000000000e+00  0.0000000000000000e+00 0.0000000000000000e+00 0.0000000000000000e+00  0.0000000000000000e+00 0.0000000000000000e+00 0.0000000000000000e+00  0.0000000000000000e+00 0.0000000000000000e+00 0.0000000000000000e+00  -6.0594104869049680e-13 -1.4568324564558322e-17 0.0000000000000000e+00  0.0000000000000000e+00 0.0000000000000000e+00 0.0000000000000000e+00  0.0000000000000000e+00 0.0000000000000000e+00 0.0000000000000000e+00  0.0000000000000000e+00 0.0000000000000000e+00 0.0000000000000000e+00  0.0000000000000000e+00 0.0000000000000000e+00 0.0000000000000000e+00  0.0000000000000000e+00 0.0000000000000000e+00 0.0000000000000000e+00  0.0000000000000000e+00 0.0000000000000000e+00 0.0000000000000000e+00  0.0000000000000000e+00 0.0000000000000000e+00 0.0000000000000000e+00  0.0000000000000000e+00 0.0000000000000000e+00 0.0000000000000000e+00  0.0000000000000000e+00 0.0000000000000000e+00 0.0000000000000000e+00  0.0000000000000000e+00 0.0000000000000000e+00 0.0000000000000000e+00  0.0000000000000000e+00 0.0000000000000000e+00 0.0000000000000000e+00  0.0000000000000000e+00 0.0000000000000000e+00 0.0000000000000000e+00  0.0000000000000000e+00 0.0000000000000000e+00 0.0000000000000000e+00  0.0000000000000000e+00 0.0000000000000000e+00 0.0000000000000000e+00  0.0000000000000000e+00 0.0000000000000000e+00 0.0000000000000000e+00  0.0000000000000000e+00 0.0000000000000000e+00 0.0000000000000000e+00  0.0000000000000000e+00 0.0000000000000000e+00 0.0000000000000000e+00  0.0000000000000000e+00 0.0000000000000000e+00 0.0000000000000000e+00  0.0000000000000000e+00 0.0000000000000000e+00 0.0000000000000000e+00  0.0000000000000000e+00 0.0000000000000000e+00 0.0000000000000000e+00  0.0000000000000000e+00 0.0000000000000000e+00 0.0000000000000000e+00  0.0000000000000000e+00 0.0000000000000000e+00 0.0000000000000000e+00  0.0000000000000000e+00 0.0000000000000000e+00 0.0000000000000000e+00  0.0000000000000000e+00 0.0000000000000000e+00 0.0000000000000000e+00  0.0000000000000000e+00 0.0000000000000000e+00 0.0000000000000000e+00  0.0000000000000000e+00 0.0000000000000000e+00 0.0000000000000000e+00  0.0000000000000000e+00 0.0000000000000000e+00 0.0000000000000000e+00  0.0000000000000000e+00 0.0000000000000000e+00 0.0000000000000000e+00  0.0000000000000000e+00 0.0000000000000000e+00 0.0000000000000000e+00  0.0000000000000000e+00 0.0000000000000000e+00 0.0000000000000000e+00  0.0000000000000000e+00 0.0000000000000000e+00 0.0000000000000000e+00  0.0000000000000000e+00 0.0000000000000000e+00 0.0000000000000000e+00  0.0000000000000000e+00 0.0000000000000000e+00 0.0000000000000000e+00  0.0000000000000000e+00 0.0000000000000000e+00 0.0000000000000000e+00  0.0000000000000000e+00 0.0000000000000000e+00 0.0000000000000000e+00  0.0000000000000000e+00 0.0000000000000000e+00 0.0000000000000000e+00  0.0000000000000000e+00 0.0000000000000000e+00 0.0000000000000000e+00  0.0000000000000000e+00 0.0000000000000000e+00 0.0000000000000000e+00  0.0000000000000000e+00 0.0000000000000000e+00 0.0000000000000000e+00  0.0000000000000000e+00 0.0000000000000000e+00 0.0000000000000000e+00  0.0000000000000000e+00 0.0000000000000000e+00 0.0000000000000000e+00  0.0000000000000000e+00 0.0000000000000000e+00 0.0000000000000000e+00  0.0000000000000000e+00 0.0000000000000000e+00 0.0000000000000000e+00  0.0000000000000000e+00 0.0000000000000000e+00 0.0000000000000000e+00  0.0000000000000000e+00 0.0000000000000000e+00 0.0000000000000000e+00  0.0000000000000000e+00 0.0000000000000000e+00 0.0000000000000000e+00  0.0000000000000000e+00 0.0000000000000000e+00 0.0000000000000000e+00  0.0000000000000000e+00 0.0000000000000000e+00 0.0000000000000000e+00  0.0000000000000000e+00 0.0000000000000000e+00 0.0000000000000000e+00  0.0000000000000000e+00 0.0000000000000000e+00 0.0000000000000000e+00  0.0000000000000000e+00 0.0000000000000000e+00 0.0000000000000000e+00  0.0000000000000000e+00 0.0000000000000000e+00 0.0000000000000000e+00  -3.7099265400153562e-12 0.0000000000000000e+00 0.0000000000000000e+00  0.0000000000000000e+00 0.0000000000000000e+00 0.0000000000000000e+00  0.0000000000000000e+00 0.0000000000000000e+00 0.0000000000000000e+00  0.0000000000000000e+00 0.0000000000000000e+00 0.0000000000000000e+00  0.0000000000000000e+00 0.0000000000000000e+00 0.0000000000000000e+00  0.0000000000000000e+00 0.0000000000000000e+00 0.0000000000000000e+00  3.5697059662470232e-13 5.8720717476950741e-18 0.0000000000000000e+00  0.0000000000000000e+00 0.0000000000000000e+00 0.0000000000000000e+00  0.0000000000000000e+00 0.0000000000000000e+00 0.0000000000000000e+00  0.0000000000000000e+00 0.0000000000000000e+00 0.0000000000000000e+00  0.0000000000000000e+00 0.0000000000000000e+00 0.0000000000000000e+00  0.0000000000000000e+00 0.0000000000000000e+00 0.0000000000000000e+00  0.0000000000000000e+00 0.0000000000000000e+00 0.0000000000000000e+00  0.0000000000000000e+00 0.0000000000000000e+00 0.0000000000000000e+00  0.0000000000000000e+00 0.0000000000000000e+00 0.0000000000000000e+00  0.0000000000000000e+00 0.0000000000000000e+00 0.0000000000000000e+00  0.0000000000000000e+00 0.0000000000000000e+00 0.0000000000000000e+00  -2.8280748336254250e-14 4.2470151488229310e-13 0.0000000000000000e+00  0.0000000000000000e+00 0.0000000000000000e+00 0.0000000000000000e+00  0.0000000000000000e+00 0.0000000000000000e+00 0.0000000000000000e+00  0.0000000000000000e+00 0.0000000000000000e+00 0.0000000000000000e+00  0.0000000000000000e+00 0.0000000000000000e+00 0.0000000000000000e+00  -8.2475893140702768e-18 1.1520345996896798e-17 0.0000000000000000e+00  0.0000000000000000e+00 0.0000000000000000e+00 0.0000000000000000e+00  0.0000000000000000e+00 0.0000000000000000e+00 0.0000000000000000e+00  0.0000000000000000e+00 0.0000000000000000e+00 0.0000000000000000e+00  0.0000000000000000e+00 0.0000000000000000e+00 0.0000000000000000e+00  0.0000000000000000e+00 0.0000000000000000e+00 0.0000000000000000e+00  0.0000000000000000e+00 0.0000000000000000e+00 0.0000000000000000e+00  0.0000000000000000e+00 0.0000000000000000e+00 0.0000000000000000e+00  0.0000000000000000e+00 0.0000000000000000e+00 0.0000000000000000e+00  0.0000000000000000e+00 0.0000000000000000e+00 0.0000000000000000e+00  0.0000000000000000e+00 0.0000000000000000e+00 0.0000000000000000e+00  0.0000000000000000e+00 0.0000000000000000e+00 0.0000000000000000e+00  0.0000000000000000e+00 0.0000000000000000e+00 0.0000000000000000e+00  0.0000000000000000e+00 0.0000000000000000e+00 0.0000000000000000e+00  0.0000000000000000e+00 0.0000000000000000e+00 0.0000000000000000e+00  0.0000000000000000e+00 0.0000000000000000e+00 0.0000000000000000e+00  0.0000000000000000e+00 0.0000000000000000e+00 0.0000000000000000e+00  0.0000000000000000e+00 0.0000000000000000e+00 0.0000000000000000e+00  0.0000000000000000e+00 0.0000000000000000e+00 0.0000000000000000e+00  0.0000000000000000e+00 0.0000000000000000e+00 0.0000000000000000e+00  0.0000000000000000e+00 0.0000000000000000e+00 0.0000000000000000e+00  0.0000000000000000e+00 0.0000000000000000e+00 0.0000000000000000e+00  0.0000000000000000e+00 0.0000000000000000e+00 0.0000000000000000e+00  0.0000000000000000e+00 0.0000000000000000e+00 0.0000000000000000e+00  0.0000000000000000e+00 0.0000000000000000e+00 0.0000000000000000e+00  0.0000000000000000e+00 0.0000000000000000e+00 0.0000000000000000e+00  0.0000000000000000e+00 0.0000000000000000e+00 0.0000000000000000e+00  0.0000000000000000e+00 0.0000000000000000e+00 0.0000000000000000e+00  0.0000000000000000e+00 0.0000000000000000e+00 0.0000000000000000e+00  0.0000000000000000e+00 0.0000000000000000e+00 0.0000000000000000e+00  0.0000000000000000e+00 0.0000000000000000e+00 0.0000000000000000e+00  0.0000000000000000e+00 0.0000000000000000e+00 0.0000000000000000e+00  7.9697367011562560e-13 2.7506129949929427e-12 0.0000000000000000e+00  -1.5422811134513199e-07 -1.5391485954449980e-09 0.0000000000000000e+00  -2.7180086051264153e-07 9.3318821308280079e-07 0.0000000000000000e+00  -1.5837508033878672e-07 2.3691211435028492e-06 0.0000000000000000e+00  1.2496865489826542e-08 4.3022411264043163e-06 0.0000000000000000e+00  3.5787591212891960e-07 6.5299711838682455e-06 0.0000000000000000e+00  7.3158881019559746e-07 9.0682031460763905e-06 0.0000000000000000e+00  1.2351996020559813e-06 1.1785685554678210e-05 0.0000000000000000e+00  1.8053049443630384e-06 1.4702006855104555e-05 0.0000000000000000e+00  2.4027748687313342e-06 1.7731125279969521e-05 0.0000000000000000e+00  3.0878679886305424e-06 2.0835365987728160e-05 0.0000000000000000e+00  3.8060971690123549e-06 2.3989842285176244e-05 0.0000000000000000e+00  4.5703060394266112e-06 2.7142558469411966e-05 0.0000000000000000e+00  5.3777516364960097e-06 3.0273462742458826e-05 0.0000000000000000e+00  6.1978696962290993e-06 3.3359305122292480e-05 0.0000000000000000e+00  7.0403195375572149e-06 3.6363872536568249e-05 0.0000000000000000e+00  7.9220735036619444e-06 3.9284378149681990e-05 0.0000000000000000e+00  8.7822365993872074e-06 4.2098676738485057e-05 0.0000000000000000e+00  9.6897468880786652e-06 4.4786906488732243e-05 0.0000000000000000e+00  1.0553096266380288e-05 4.7347082249814035e-05 0.0000000000000000e+00  1.1458504136944792e-05 4.9766226060325791e-05 0.0000000000000000e+00  1.2319632598005795e-05 5.2040628560199938e-05 0.0000000000000000e+00  1.3205258892538570e-05 5.4155405500580656e-05 0.0000000000000000e+00  1.4039956627066599e-05 5.6143582789248596e-05 0.0000000000000000e+00  1.4860889168637296e-05 5.7959538646627212e-05 0.0000000000000000e+00  1.5699662572322450e-05 5.9647395493043757e-05 0.0000000000000000e+00  1.6486498583485107e-05 6.1185210748940466e-05 0.0000000000000000e+00  1.7261146323630068e-05 6.2571022846294038e-05 0.0000000000000000e+00  1.7995939808619951e-05 6.3839011229881062e-05 0.0000000000000000e+00  1.8713984478786387e-05 6.4961986863964737e-05 0.0000000000000000e+00  1.9389246196064712e-05 6.5983502321279537e-05 0.0000000000000000e+00  2.0043642767723467e-05 6.6873853861854359e-05 0.0000000000000000e+00  2.0653635431047122e-05 6.7680957834298952e-05 0.0000000000000000e+00  2.1238795062581532e-05 6.8372939739543345e-05 0.0000000000000000e+00  2.1780176466337109e-05 6.9001266259842366e-05 0.0000000000000000e+00  2.2291981770326034e-05 6.9531057537645461e-05 0.0000000000000000e+00  2.2760400172934820e-05 7.0016407129199604e-05 0.0000000000000000e+00  2.3197831168626159e-05 7.0421331267265757e-05 0.0000000000000000e+00  2.3593053295679281e-05 7.0798907783922382e-05 0.0000000000000000e+00  2.3955531823787147e-05 7.1112593812847316e-05 0.0000000000000000e+00  2.4275712772513548e-05 7.1415603119375913e-05 0.0000000000000000e+00  2.4558398942650166e-05 7.1674544387862051e-05 0.0000000000000000e+00  2.4806639067394885e-05 7.1924478358336189e-05 0.0000000000000000e+00  2.5016818820374483e-05 7.2153860727486720e-05 0.0000000000000000e+00  2.5207069020220120e-05 7.2375619437130791e-05 0.0000000000000000e+00  2.5355344601811950e-05 7.2601471947424166e-05 0.0000000000000000e+00  2.5504535987402260e-05 7.2787545626070346e-05 0.0000000000000000e+00  2.5577031324791498e-05 7.2983522902364911e-05 0.0000000000000000e+00  2.5806316858752201e-05 7.3294701655738604e-05 0.0000000000000000e+00  2.5956171205824281e-05 7.3158250909927594e-05 0.0000000000000000e+00  2.5833175242775391e-05 7.3009108813077897e-05 0.0000000000000000e+00  2.5708796446265796e-05 7.2875184967360462e-05 0.0000000000000000e+00  2.5557125226570605e-05 7.2717906995838883e-05 0.0000000000000000e+00  2.5387243266947340e-05 7.2550242234337557e-05 0.0000000000000000e+00  2.5189840329590423e-05 7.2363304008458732e-05 0.0000000000000000e+00  2.4981635102554718e-05 7.2151106443656414e-05 0.0000000000000000e+00  2.4740513395898077e-05 7.1922328465487848e-05 0.0000000000000000e+00  2.4492969281179725e-05 7.1641299420549905e-05 0.0000000000000000e+00  2.4213539836691340e-05 7.1335182268327202e-05 0.0000000000000000e+00  2.3935804756475730e-05 7.0961462223987696e-05 0.0000000000000000e+00  2.3623928799175490e-05 7.0544667331756146e-05 0.0000000000000000e+00  2.3321811460707127e-05 7.0043891405521236e-05 0.0000000000000000e+00  2.2981550093957259e-05 6.9480485437059886e-05 0.0000000000000000e+00  2.2658766820165758e-05 6.8815641776888629e-05 0.0000000000000000e+00  2.2292383243905655e-05 6.8069356245219374e-05 0.0000000000000000e+00  2.1950101992021397e-05 6.7204261498980810e-05 0.0000000000000000e+00  2.1559407635669019e-05 6.6239231481992402e-05 0.0000000000000000e+00  2.1199034793667311e-05 6.5139505512980909e-05 0.0000000000000000e+00  2.0784868481418359e-05 6.3923598754414530e-05 0.0000000000000000e+00  2.0405810676200948e-05 6.2558376942757924e-05 0.0000000000000000e+00  1.9967912422973778e-05 6.1062492641799011e-05 0.0000000000000000e+00  1.9559624893906064e-05 5.9409625480360316e-05 0.0000000000000000e+00  1.9103498307998739e-05 5.7623247335922827e-05 0.0000000000000000e+00  1.8629426807137786e-05 5.5661333674460432e-05 0.0000000000000000e+00  1.8178615070328624e-05 5.3574481120038177e-05 0.0000000000000000e+00  1.7680258707675586e-05 5.1327362069167581e-05 0.0000000000000000e+00  1.7179364952926830e-05 4.8926720295347949e-05 0.0000000000000000e+00  1.6641332361846058e-05 4.6393710476863757e-05 0.0000000000000000e+00  1.6091450159298213e-05 4.3714039636405393e-05 0.0000000000000000e+00  1.5504696582047343e-05 4.0925834664068213e-05 0.0000000000000000e+00  1.4901910569419530e-05 3.8009302685229780e-05 0.0000000000000000e+00  1.4252007124535437e-05 3.5016832709554832e-05 0.0000000000000000e+00  1.3569025501560035e-05 3.1938924669823842e-05 0.0000000000000000e+00  1.2864059334896841e-05 2.8811933761930440e-05 0.0000000000000000e+00  1.2109181095749958e-05 2.5663358334946874e-05 0.0000000000000000e+00  1.1306653628690274e-05 2.2500996627582163e-05 0.0000000000000000e+00  1.0461452803045159e-05 1.9390014817460903e-05 0.0000000000000000e+00  9.5331142105281927e-06 1.6356199625042507e-05 0.0000000000000000e+00  8.5849516903373112e-06 1.3425946298368862e-05 0.0000000000000000e+00  7.5815542746873752e-06 1.0693651396231631e-05 0.0000000000000000e+00  6.4627099880019204e-06 8.1283868295177509e-06 0.0000000000000000e+00  5.3095592998694876e-06 5.8809430570537897e-06 0.0000000000000000e+00  4.0205850690369247e-06 3.9653003099621449e-06 0.0000000000000000e+00  2.7439472638832620e-06 2.4764113170955004e-06 0.0000000000000000e+00  1.3405067328020364e-06 1.4138731928704734e-06 0.0000000000000000e+00  8.1661879247845887e-07 8.3777697329629409e-07 0.0000000000000000e+00  2.5545831690994201e-05 7.2893812794249150e-05 0.0000000000000000e+00  2.5340032632489580e-05 7.2553068793823063e-05 0.0000000000000000e+00  2.4699458599708412e-05 7.1909675248273833e-05 0.0000000000000000e+00  2.2992653315385836e-06 3.8215864603069804e-06 0.0000000000000000e+00  2.4150651140677067e-05 7.1399795193027391e-05 0.0000000000000000e+00  3.7610844518489899e-06 8.1953557713842617e-06 0.0000000000000000e+00  2.3483834275695546e-05 7.0726536912894394e-05 0.0000000000000000e+00  6.1294027351238485e-06 1.7097421025350985e-05 0.0000000000000000e+00  7.5661141997327900e-06 2.3223895135089845e-05 0.0000000000000000e+00  2.2713064346184913e-05 6.9836538397509789e-05 0.0000000000000000e+00  1.1407240793154490e-05 3.8855418105024316e-05 0.0000000000000000e+00  2.0881372458573351e-05 6.7116292567056857e-05 0.0000000000000000e+00  9.0766485480240710e-06 2.9323705185763160e-05 0.0000000000000000e+00  1.2779982871124330e-05 4.4342796907978066e-05 0.0000000000000000e+00  1.9831766862491985e-05 6.5140614720432519e-05 0.0000000000000000e+00  2.1843785993626213e-05 6.8657821564563427e-05 0.0000000000000000e+00  1.4195361756664159e-05 4.9450426551117760e-05 0.0000000000000000e+00  1.8700286721868491e-05 6.2664482978320771e-05 0.0000000000000000e+00  1.5544939007201241e-05 5.3816831432869690e-05 0.0000000000000000e+00  1.7494364715987824e-05 5.9693596754506026e-05 0.0000000000000000e+00  1.6487673685086439e-05 5.6798066867069852e-05 0.0000000000000000e+00  1.0134016321346103e-05 3.3948677694741187e-05 0.0000000000000000e+00  2.5059405640556259e-05 7.2264973072058759e-05 0.0000000000000000e+00  4.8482952156374066e-06 1.2283315552493644e-05 0.0000000000000000e+00  2.5551330939515985e-05 7.2796844821234873e-05 0.0000000000000000e+00  2.1926371611349158e-06 2.4248612945271843e-06 0.0000000000000000e+00  2.3972217176473298e-05 7.1209148736776803e-05 0.0000000000000000e+00  2.4555106695512486e-05 7.1785514010512788e-05 0.0000000000000000e+00  2.0338394354443843e-06 5.6848025929745811e-06 0.0000000000000000e+00  5.6258005143570121e-06 1.9828631014035424e-05 0.0000000000000000e+00  2.1685510444227972e-05 6.8097297793378168e-05 0.0000000000000000e+00  2.3295861197740856e-05 7.0449482594500172e-05 0.0000000000000000e+00  1.0977859221617892e-05 4.1345037516231005e-05 0.0000000000000000e+00  2.0762406985542071e-05 6.6358141419063394e-05 0.0000000000000000e+00  7.1230371739017643e-06 2.6160028787079938e-05 0.0000000000000000e+00  1.2507081803884175e-05 4.6722560880297784e-05 0.0000000000000000e+00  1.9767079692925123e-05 6.4150371620570051e-05 0.0000000000000000e+00  2.2531660093235082e-05 6.9436935575160059e-05 0.0000000000000000e+00  1.3803564670663931e-05 5.1473273962904358e-05 0.0000000000000000e+00  1.8701643685552731e-05 6.1411913321788097e-05 0.0000000000000000e+00  1.8412521594188825e-07 5.6065557963547559e-08 0.0000000000000000e+00  4.0719412390618661e-07 3.8223104865001832e-07 0.0000000000000000e+00  2.5543109855968397e-05 7.2979273331241681e-05 0.0000000000000000e+00  8.4281678123072891e-07 1.8041699489310176e-06 0.0000000000000000e+00  1.7867202259874505e-05 5.8544988593854349e-05 0.0000000000000000e+00  1.2172339061366814e-05 3.6729338562545878e-05 0.0000000000000000e+00 