<?xml version="1.0"?>
<VTKFile type="UnstructuredGrid"  version="0.1"  >
<UnstructuredGrid>
<Piece  NumberOfPoints="1419" NumberOfCells="2698">
<Points>
<DataArray  type="Float64"  NumberOfComponents="3"  format="ascii">0 0 0  0 0.41 0  2.5 0 0  2.5 0.41 0  0.6 0.19 0  0.6 0.21 0  0.25 0.2 0  0.15 0.2 0  0.2489897948556636 0.21 0  0.2489897948556636 0.19 0  0.6 0.2 0  0 0.3807142857143437 0  0 0.3514285714286952 0  0 0.3221428571430699 0  0 0.29285714285744 0  0 0.2635714285718054 0  0 0.2342857142861561 0  0 0.2050000000005308 0  0 0.175714285714732 0  0 0.1464285714289574 0  0 0.1171428571431897 0  0 0.08785714285737878 0  0 0.05857142857161107 0  0 0.02928571428580012 0  0.03015443760436003 0 0  0.06140001986583606 0 0  0.09377624077125973 0 0  0.1273239957535082 0 0  0.1620856860351972 0 0  0.1981052433264291 0 0  0.235428184091502 0 0  0.2741016576309132 0 0  0.3141745521465447 0 0  0.3556974926295285 0 0  0.3987229542472677 0 0  0.4433053055141081 0 0  0.4895008759286886 0 0  0.5373680609405097 0 0  0.5869673343216626 0 0  0.6383613676634521 0 0  0.6916151138468254 0 0  0.7467958595648856 0 0  0.8039733463919316 0 0  0.8632198139502143 0 0  0.9246101326867038 0 0  0.9882218810934433 0 0  1.054135445558498 0 0  1.122434100542598 0 0  1.193204177141305 0 0  1.266535089879536 0 0  1.342519516046404 0 0  1.421253448503939 0 0  1.502836389106271 0 0  1.587371439758838 0 0  1.674965418777374 0 0  1.765729001825544 0 0  1.859776908880082 0 0  1.957227977487062 0 0  2.058205329869943 0 0  2.162836591189951 0 0  2.271253957290865 0 0  2.383594446803425 0 0  2.5 0.1024999999997612 0  2.5 0.2049999999994743 0  2.5 0.3074999999997183 0  2.383594446803656 0.41 0  2.271253957291315 0.41 0  2.162836591190598 0.41 0  2.058205329870775 0.41 0  1.957227977488067 0.41 0  1.859776908881246 0.41 0  1.765729001826854 0.41 0  1.674965418778818 0.41 0  1.58737143976041 0.41 0  1.502836389107956 0.41 0  1.421253448505726 0.41 0  1.342519516048286 0.41 0  1.266535089881505 0.41 0  1.193204177143353 0.41 0  1.122434100544716 0.41 0  1.05413544556068 0.41 0  0.9882218810956305 0.41 0  0.9246101326886647 0.41 0  0.8632198139519631 0.41 0  0.8039733463934788 0.41 0  0.7467958595662458 0.41 0  0.6916151138480078 0.41 0  0.6383613676644679 0.41 0  0.5869673343225223 0.41 0  0.5373680609412221 0.41 0  0.4895008759292634 0.41 0  0.4433053055145528 0.41 0  0.3987229542475914 0.41 0  0.3556974926297398 0.41 0  0.3141745521466497 0.41 0  0.2741016576310038 0.41 0  0.2354281840915826 0.41 0  0.1981052433265003 0.41 0  0.1620856860352591 0.41 0  0.1273239957535623 0.41 0  0.09377624077128965 0.41 0  0.06140001986584975 0.41 0  0.03015443760436654 0.41 0  0.2497468076502589 0.2050254481002335 0  0.2497468076502614 0.1949745518997913 0  0.2469965252529372 0.1829317073451959 0  0.2439893735792749 0.1762316384219906 0  0.2400332147834255 0.1700443375285386 0  0.2352133972704371 0.1645032867342007 0  0.2296339016332438 0.1597280261969788 0  0.2234150974217223 0.1558215752574715 0  0.2166911463437691 0.1528682099456123 0  0.2096071079204251 0.1509316448471593 0  0.2023158100364996 0.1500536585536553 0  0.194974551899914 0.1502531923497262 0  0.1877417105387872 0.1515259415822739 0  0.1807733240461124 0.153844448527136 0  0.1742197252835808 0.15715869474974 0  0.1682222986673531 0.1613971801805478 0  0.162910430003803 0.1664684656256651 0  0.1583987151779087 0.1722631454351573 0  0.1547844879126891 0.178656207771761 0  0.1521457199348551 0.1855097315605723 0  0.1505393388476355 0.1926758619366523 0  0.1505393388476328 0.2073241380633295 0  0.1521457199348437 0.2144902684393899 0  0.1547844879126531 0.221343792228163 0  0.1583987151778488 0.2277368545647528 0  0.1629104300036858 0.2335315343742052 0  0.1682222986671726 0.2386028198193036 0  0.1742197252833576 0.2428413052501257 0  0.1807733240458683 0.2461555514727623 0  0.1877417105384929 0.2484740584176516 0  0.1949745518995776 0.2497468076502398 0  0.202315810036185 0.2499463414463592 0  0.2096071079201568 0.2490683551528932 0  0.2166911463435495 0.2471317900544655 0  0.2234150974215506 0.2441784247426195 0  0.2296339016331197 0.2402719738031125 0  0.2352133972703547 0.2354967132658811 0  0.2400332147833751 0.2299556624715287 0  0.2439893735792577 0.2237683615780412 0  0.246996525252926 0.2170682926548348 0  0.25645809709277 0.21 0  0.2639263993298655 0.21 0  0.271394701566961 0.21 0  0.2788630038040554 0.21 0  0.2863313060411479 0.21 0  0.2937996082782405 0.21 0  0.301267910515333 0.21 0  0.3087362127524279 0.21 0  0.3162045149895234 0.21 0  0.3236728172265972 0.21 0  0.3311411194636928 0.21 0  0.3386094217007701 0.21 0  0.3460777239378666 0.21 0  0.3535460261749672 0.21 0  0.3610143284120516 0.21 0  0.3684826306491596 0.21 0  0.3759509328862226 0.21 0  0.383419235123329 0.21 0  0.3908875373604028 0.21 0  0.3983558395975142 0.21 0  0.4058241418345938 0.21 0  0.4132924440716992 0.21 0  0.4207607463087888 0.21 0  0.4282290485459029 0.21 0  0.4356973507830418 0.21 0  0.4431656530201649 0.21 0  0.4506339552573136 0.21 0  0.4581022574944306 0.21 0  0.4655705597315852 0.21 0  0.4730388619686996 0.21 0  0.480507164205851 0.21 0  0.4879754664429498 0.21 0  0.4954437686800938 0.21 0  0.502912070917267 0.21 0  0.5103803731544119 0.21 0  0.5178486753915261 0.21 0  0.5253169776286404 0.21 0  0.5327852798657868 0.21 0  0.5402535821029386 0.21 0  0.54772188434007 0.21 0  0.5551901865771842 0.21 0  0.5626584888143201 0.21 0  0.5701267910514778 0.21 0  0.5775950932886138 0.21 0  0.5850633955257281 0.21 0  0.5925316977628483 0.21 0  0.6 0.2050000000000054 0  0.6 0.1950000000000217 0  0.5925316977628897 0.19 0  0.5850633955257988 0.19 0  0.5775950932887378 0.19 0  0.5701267910515998 0.19 0  0.5626584888145268 0.19 0  0.5551901865773963 0.19 0  0.547721884340339 0.19 0  0.5402535821032429 0.19 0  0.5327852798661811 0.19 0  0.5253169776290537 0.19 0  0.5178486753919799 0.19 0  0.5103803731549078 0.19 0  0.502912070917822 0.19 0  0.4954437686807294 0.19 0  0.4879754664436223 0.19 0  0.4805071642065402 0.19 0  0.4730388619694271 0.19 0  0.4655705597323621 0.19 0  0.4581022574952563 0.19 0  0.4506339552581777 0.19 0  0.4431656530210671 0.19 0  0.4356973507839815 0.19 0  0.4282290485468779 0.19 0  0.4207607463097617 0.19 0  0.4132924440726327 0.19 0  0.4058241418354857 0.19 0  0.3983558395983636 0.19 0  0.3908875373612097 0.19 0  0.3834192351240934 0.19 0  0.3759509328869369 0.19 0  0.3684826306498175 0.19 0  0.361014328412667 0.19 0  0.3535460261755617 0.19 0  0.3460777239384295 0.19 0  0.3386094217012945 0.19 0  0.3311411194641595 0.19 0  0.3236728172270245 0.19 0  0.3162045149898895 0.19 0  0.3087362127527544 0.19 0  0.3012679105156187 0.19 0  0.2937996082784807 0.19 0  0.2863313060413428 0.19 0  0.2788630038042048 0.19 0  0.2713947015670686 0.19 0  0.2639263993299336 0.19 0  0.2564580970927985 0.19 0  0.2607803159922026 0.2000727136295815 0  0.5887803774232762 0.2001272386983733 0  0.5745072403740523 0.2002044435018727 0  0.5511891430099709 0.2001122610077113 0  0.2751288526855082 0.20000000000002 0  0.5365194309847112 0.1999999999999436 0  0.2894621222999649 0.1998691686390484 0  0.5215828265105155 0.1999999999999228 0  0.3127789816668748 0.1998657885438805 0  0.3274069683451451 0.2000000000000796 0  0.5066462220363641 0.199999999999908 0  0.3650630746574081 0.199866017807523 0  0.476773013087985 0.1999999999998713 0  0.3417402379596385 0.1998691686391011 0  0.3796850840047755 0.200000000000134 0  0.4618364086138087 0.1999999999998546 0  0.4917096175621762 0.1999999999998808 0  0.3946216884789568 0.2000000000001512 0  0.446899804139621 0.1999999999998389 0  0.4089549580935208 0.1998691686391595 0  0.4322718174608562 0.200127451265745 0  0.4201487168029707 0.1999966199048527 0  0.3528922713220932 0.2000185703532356 0  0.5633122436674589 0.1999814296467508 0  0.3006558810093873 0.1999966199048318 0  0.5815926498168407 0.1966545283159175 0  0.2677053789419034 0.1964246479135325 0  0.5290511287476175 0.1970915826863981 0  0.5439877332217911 0.197091582686394 0  0.2825131256993216 0.2035478995978015 0  0.3199386661080599 0.202908417313604 0  0.4842413153250809 0.1970915826863873 0  0.5141145242734466 0.1970915826863843 0  0.3722167817676917 0.2029084173136195 0  0.4693047108508938 0.1970915826863783 0  0.3348752705822316 0.202908417313609 0  0.3871533862418661 0.2029084173136212 0  0.4543681063767183 0.1970915826863795 0  0.4991779197992749 0.1970915826863902 0  0.4020059614928624 0.203547899597858 0  0.4394315019025246 0.1970915826863714 0  0.2550657455369551 0.2034088125358657 0  0.2548908499171161 0.1966940311614271 0  0.5946539510196798 0.2024302972968126 0  0.267698176732111 0.2039977513680092 0  0.4261685417851465 0.196409292431739 0  0.3590076176283495 0.196411355804271 0  0.5571672426447437 0.2036011176410121 0  0.3066757059912147 0.1964092924317024 0  0.594380730180568 0.1966558399668133 0  0.4842413153245942 0.2040749161535287 0  0.4693047108503577 0.2040749161535231 0  0.3871533862424271 0.1959250838464788 0  0.372246743208829 0.1959123236376545 0  0.5141145242731028 0.2040749161535395 0  0.4543681063761134 0.2040749161535186 0  0.4019979587101454 0.1959834479682427 0  0.4394608940728603 0.2040870543693135 0  0.5439623148931173 0.2040856076781014 0  0.5290511287473298 0.2040749161535501 0  0.4991779197988497 0.2040749161535382 0  0.3347912413592433 0.1959225448935183 0  0.3199680582793816 0.1959123018030061 0  0.2825051229162361 0.1959834479681729 0  0.3590471196690275 0.2036304442587945 0  0.5571594006495384 0.1963685282145804 0  0.3067669986803285 0.203627750582736 0  0.4262598344738712 0.2036568242185335 0  0.5814408164431408 0.2041285596160068 0  0.5688286748170428 0.1961819304477386 0  0.4145905603063645 0.2038180695522843 0  0.3473758401724931 0.2038180695522752 0  0.2950977245128307 0.2038180695522663 0  0.5688286748170693 0.203818069552238 0  0.2950977245127906 0.1961819304477774 0  0.3473758401723931 0.1961819304478349 0  0.4145905603061963 0.1961819304479011 0  0.2601812407614425 0.2056861609747042
[...]
<PointData  Vectors="f_46-2"> 
<DataArray  type="Float64"  Name="f_46-2"  NumberOfComponents="3" format="ascii">0.0000000000000000e+00 0.0000000000000000e+00 0.0000000000000000e+00  0.0000000000000000e+00 0.0000000000000000e+00 0.0000000000000000e+00  0.0000000000000000e+00 0.0000000000000000e+00 0.0000000000000000e+00  0.0000000000000000e+00 0.0000000000000000e+00 0.0000000000000000e+00  2.7290840930824857e-05 1.0703716594969528e-04 0.0000000000000000e+00  2.4303437946132034e-05 1.0638770203920559e-04 0.0000000000000000e+00  0.0000000000000000e+00 0.0000000000000000e+00 0.0000000000000000e+00  0.0000000000000000e+00 0.0000000000000000e+00 0.0000000000000000e+00  0.0000000000000000e+00 0.0000000000000000e+00 0.0000000000000000e+00  0.0000000000000000e+00 0.0000000000000000e+00 0.0000000000000000e+00  2.5506544754540677e-05 1.0671196000898787e-04 0.0000000000000000e+00  0.0000000000000000e+00 0.0000000000000000e+00 0.0000000000000000e+00  0.0000000000000000e+00 0.0000000000000000e+00 0.0000000000000000e+00  0.0000000000000000e+00 0.0000000000000000e+00 0.0000000000000000e+00  0.0000000000000000e+00 0.0000000000000000e+00 0.0000000000000000e+00  0.0000000000000000e+00 0.0000000000000000e+00 0.0000000000000000e+00  0.0000000000000000e+00 0.0000000000000000e+00 0.0000000000000000e+00  0.0000000000000000e+00 0.0000000000000000e+00 0.0000000000000000e+00  0.0000000000000000e+00 0.0000000000000000e+00 0.0000000000000000e+00  0.0000000000000000e+00 0.0000000000000000e+00 0.0000000000000000e+00  0.0000000000000000e+00 0.0000000000000000e+00 0.0000000000000000e+00  0.0000000000000000e+00 0.0000000000000000e+00 0.0000000000000000e+00  0.0000000000000000e+00 0.0000000000000000e+00 0.0000000000000000e+00  0.0000000000000000e+00 0.0000000000000000e+00 0.0000000000000000e+00  0.0000000000000000e+00 0.0000000000000000e+00 0.0000000000000000e+00  0.0000000000000000e+00 0.0000000000000000e+00 0.0000000000000000e+00  0.0000000000000000e+00 0.0000000000000000e+00 0.0000000000000000e+00  0.0000000000000000e+00 0.0000000000000000e+00 0.0000000000000000e+00  0.0000000000000000e+00 0.0000000000000000e+00 0.0000000000000000e+00  0.0000000000000000e+00 0.0000000000000000e+00 0.0000000000000000e+00  0.0000000000000000e+00 0.0000000000000000e+00 0.0000000000000000e+00  0.0000000000000000e+00 0.0000000000000000e+00 0.0000000000000000e+00  0.0000000000000000e+00 0.0000000000000000e+00 0.0000000000000000e+00  0.0000000000000000e+00 0.0000000000000000e+00 0.0000000000000000e+00  0.0000000000000000e+00 0.0000000000000000e+00 0.0000000000000000e+00  7.9636713283029416e-14 2.5021845298420797e-17 0.0000000000000000e+00  0.0000000000000000e+00 0.0000000000000000e+00 0.0000000000000000e+00  0.0000000000000000e+00 0.0000000000000000e+00 0.0000000000000000e+00  0.0000000000000000e+00 0.0000000000000000e+00 0.0000000000000000e+00  0.0000000000000000e+00 0.0000000000000000e+00 0.0000000000000000e+00  0.0000000000000000e+00 0.0000000000000000e+00 0.0000000000000000e+00  0.0000000000000000e+00 0.0000000000000000e+00 0.0000000000000000e+00  0.0000000000000000e+00 0.0000000000000000e+00 0.0000000000000000e+00  0.0000000000000000e+00 0.0000000000000000e+00 0.0000000000000000e+00  0.0000000000000000e+00 0.0000000000000000e+00 0.0000000000000000e+00  0.0000000000000000e+00 0.0000000000000000e+00 0.0000000000000000e+00  0.0000000000000000e+00 0.0000000000000000e+00 0.0000000000000000e+00  0.0000000000000000e+00 0.0000000000000000e+00 0.0000000000000000e+00  0.0000000000000000e+00 0.0000000000000000e+00 0.0000000000000000e+00  0.0000000000000000e+00 0.0000000000000000e+00 0.0000000000000000e+00  0.0000000000000000e+00 0.0000000000000000e+00 0.0000000000000000e+00  0.0000000000000000e+00 0.0000000000000000e+00 0.0000000000000000e+00  0.0000000000000000e+00 0.0000000000000000e+00 0.0000000000000000e+00  0.0000000000000000e+00 0.0000000000000000e+00 0.0000000000000000e+00  0.0000000000000000e+00 0.0000000000000000e+00 0.0000000000000000e+00  0.0000000000000000e+00 0.0000000000000000e+00 0.0000000000000000e+00  0.0000000000000000e+00 0.0000000000000000e+00 0.0000000000000000e+00  0.0000000000000000e+00 0.0000000000000000e+00 0.0000000000000000e+00  0.0000000000000000e+00 0.0000000000000000e+00 0.0000000000000000e+00  0.0000000000000000e+00 0.0000000000000000e+00 0.0000000000000000e+00  0.0000000000000000e+00 0.0000000000000000e+00 0.0000000000000000e+00  0.0000000000000000e+00 0.0000000000000000e+00 0.0000000000000000e+00  0.0000000000000000e+00 0.0000000000000000e+00 0.0000000000000000e+00  0.0000000000000000e+00 0.0000000000000000e+00 0.0000000000000000e+00  0.0000000000000000e+00 0.0000000000000000e+00 0.0000000000000000e+00  0.0000000000000000e+00 0.0000000000000000e+00 0.0000000000000000e+00  0.0000000000000000e+00 0.0000000000000000e+00 0.0000000000000000e+00  0.0000000000000000e+00 0.0000000000000000e+00 0.0000000000000000e+00  0.0000000000000000e+00 0.0000000000000000e+00 0.0000000000000000e+00  0.0000000000000000e+00 0.0000000000000000e+00 0.0000000000000000e+00  0.0000000000000000e+00 0.0000000000000000e+00 0.0000000000000000e+00  0.0000000000000000e+00 0.0000000000000000e+00 0.0000000000000000e+00  0.0000000000000000e+00 0.0000000000000000e+00 0.0000000000000000e+00  0.0000000000000000e+00 0.0000000000000000e+00 0.0000000000000000e+00  0.0000000000000000e+00 0.0000000000000000e+00 0.0000000000000000e+00  0.0000000000000000e+00 0.0000000000000000e+00 0.0000000000000000e+00  0.0000000000000000e+00 0.0000000000000000e+00 0.0000000000000000e+00  0.0000000000000000e+00 0.0000000000000000e+00 0.0000000000000000e+00  0.0000000000000000e+00 0.0000000000000000e+00 0.0000000000000000e+00  0.0000000000000000e+00 0.0000000000000000e+00 0.0000000000000000e+00  0.0000000000000000e+00 0.0000000000000000e+00 0.0000000000000000e+00  0.0000000000000000e+00 0.0000000000000000e+00 0.0000000000000000e+00  0.0000000000000000e+00 0.0000000000000000e+00 0.0000000000000000e+00  0.0000000000000000e+00 0.0000000000000000e+00 0.0000000000000000e+00  0.0000000000000000e+00 0.0000000000000000e+00 0.0000000000000000e+00  0.0000000000000000e+00 0.0000000000000000e+00 0.0000000000000000e+00  0.0000000000000000e+00 0.0000000000000000e+00 0.0000000000000000e+00  0.0000000000000000e+00 0.0000000000000000e+00 0.0000000000000000e+00  -6.6322043586119973e-14 0.0000000000000000e+00 0.0000000000000000e+00  0.0000000000000000e+00 0.0000000000000000e+00 0.0000000000000000e+00  0.0000000000000000e+00 0.0000000000000000e+00 0.0000000000000000e+00  0.0000000000000000e+00 0.0000000000000000e+00 0.0000000000000000e+00  0.0000000000000000e+00 0.0000000000000000e+00 0.0000000000000000e+00  0.0000000000000000e+00 0.0000000000000000e+00 0.0000000000000000e+00  -3.0531110934540346e-14 -2.5706378743774445e-18 0.0000000000000000e+00  0.0000000000000000e+00 0.0000000000000000e+00 0.0000000000000000e+00  0.0000000000000000e+00 0.0000000000000000e+00 0.0000000000000000e+00  0.0000000000000000e+00 0.0000000000000000e+00 0.0000000000000000e+00  0.0000000000000000e+00 0.0000000000000000e+00 0.0000000000000000e+00  0.0000000000000000e+00 0.0000000000000000e+00 0.0000000000000000e+00  0.0000000000000000e+00 0.0000000000000000e+00 0.0000000000000000e+00  0.0000000000000000e+00 0.0000000000000000e+00 0.0000000000000000e+00  0.0000000000000000e+00 0.0000000000000000e+00 0.0000000000000000e+00  0.0000000000000000e+00 0.0000000000000000e+00 0.0000000000000000e+00  0.0000000000000000e+00 0.0000000000000000e+00 0.0000000000000000e+00  -1.1054013219552598e-13 1.8287553893442943e-13 0.0000000000000000e+00  0.0000000000000000e+00 0.0000000000000000e+00 0.0000000000000000e+00  0.0000000000000000e+00 0.0000000000000000e+00 0.0000000000000000e+00  0.0000000000000000e+00 0.0000000000000000e+00 0.0000000000000000e+00  0.0000000000000000e+00 0.0000000000000000e+00 0.0000000000000000e+00  4.2595021771728242e-13 2.7320171681538261e-14 0.0000000000000000e+00  0.0000000000000000e+00 0.0000000000000000e+00 0.0000000000000000e+00  0.0000000000000000e+00 0.0000000000000000e+00 0.0000000000000000e+00  0.0000000000000000e+00 0.0000000000000000e+00 0.0000000000000000e+00  0.0000000000000000e+00 0.0000000000000000e+00 0.0000000000000000e+00  0.0000000000000000e+00 0.0000000000000000e+00 0.0000000000000000e+00  0.0000000000000000e+00 0.0000000000000000e+00 0.0000000000000000e+00  0.0000000000000000e+00 0.0000000000000000e+00 0.0000000000000000e+00  0.0000000000000000e+00 0.0000000000000000e+00 0.0000000000000000e+00  0.0000000000000000e+00 0.0000000000000000e+00 0.0000000000000000e+00  0.0000000000000000e+00 0.0000000000000000e+00 0.0000000000000000e+00  0.0000000000000000e+00 0.0000000000000000e+00 0.0000000000000000e+00  0.0000000000000000e+00 0.0000000000000000e+00 0.0000000000000000e+00  0.0000000000000000e+00 0.0000000000000000e+00 0.0000000000000000e+00  0.0000000000000000e+00 0.0000000000000000e+00 0.0000000000000000e+00  0.0000000000000000e+00 0.0000000000000000e+00 0.0000000000000000e+00  0.0000000000000000e+00 0.0000000000000000e+00 0.0000000000000000e+00  0.0000000000000000e+00 0.0000000000000000e+00 0.0000000000000000e+00  0.0000000000000000e+00 0.0000000000000000e+00 0.0000000000000000e+00  0.0000000000000000e+00 0.0000000000000000e+00 0.0000000000000000e+00  0.0000000000000000e+00 0.0000000000000000e+00 0.0000000000000000e+00  0.0000000000000000e+00 0.0000000000000000e+00 0.0000000000000000e+00  0.0000000000000000e+00 0.0000000000000000e+00 0.0000000000000000e+00  0.0000000000000000e+00 0.0000000000000000e+00 0.0000000000000000e+00  0.0000000000000000e+00 0.0000000000000000e+00 0.0000000000000000e+00  0.0000000000000000e+00 0.0000000000000000e+00 0.0000000000000000e+00  0.0000000000000000e+00 0.0000000000000000e+00 0.0000000000000000e+00  0.0000000000000000e+00 0.0000000000000000e+00 0.0000000000000000e+00  0.0000000000000000e+00 0.0000000000000000e+00 0.0000000000000000e+00  0.0000000000000000e+00 0.0000000000000000e+00 0.0000000000000000e+00  0.0000000000000000e+00 0.0000000000000000e+00 0.0000000000000000e+00  0.0000000000000000e+00 0.0000000000000000e+00 0.0000000000000000e+00  3.1320109779967367e-13 1.6484808180023778e-13 0.0000000000000000e+00  -2.2698439486959871e-07 5.8316044567904818e-08 0.0000000000000000e+00  -4.2665470703985772e-07 1.0783296564084597e-06 0.0000000000000000e+00  -3.8525299224675392e-07 2.6536739741543370e-06 0.0000000000000000e+00  -2.9198515852184961e-07 4.7832076043367704e-06 0.0000000000000000e+00  -1.1052672754306478e-08 7.2548319180304622e-06 0.0000000000000000e+00  2.8966715171612751e-07 1.0088809655176036e-05 0.0000000000000000e+00  7.3487847572227823e-07 1.3140339102826027e-05 0.0000000000000000e+00  1.2485154431141949e-06 1.6441052843327984e-05 0.0000000000000000e+00  1.7811838962675868e-06 1.9892578953662594e-05 0.0000000000000000e+00  2.4171204511887895e-06 2.3458902496672526e-05 0.0000000000000000e+00  3.0753195228876964e-06 2.7114280338704068e-05 0.0000000000000000e+00  3.7946596602133710e-06 3.0803785190695736e-05 0.0000000000000000e+00  4.5490203844625014e-06 3.4506069598368733e-05 0.0000000000000000e+00  5.3271439237691978e-06 3.8191345704238050e-05 0.0000000000000000e+00  6.1290396654583078e-06 4.1830130111459792e-05 0.0000000000000000e+00  6.9648331304294223e-06 4.5410996779174399e-05 0.0000000000000000e+00  7.7901220461104293e-06 4.8912805760781680e-05 0.0000000000000000e+00  8.6559669174821379e-06 5.2314792616049150e-05 0.0000000000000000e+00  9.4882751988712033e-06 5.5612450813297359e-05 0.0000000000000000e+00  1.0357272619383778e-05 5.8791098557478585e-05 0.0000000000000000e+00  1.1189560611834149e-05 6.1846488778455458e-05 0.0000000000000000e+00  1.2043590260511988e-05 6.4762677424711935e-05 0.0000000000000000e+00  1.2853160733216268e-05 6.7567304684950364e-05 0.0000000000000000e+00  1.3650366880369925e-05 7.0219034361833176e-05 0.0000000000000000e+00  1.4463507449015911e-05 7.2755578609480523e-05 0.0000000000000000e+00  1.5229378739789872e-05 7.5157216363809260e-05 0.0000000000000000e+00  1.5983547985450469e-05 7.7419733825263479e-05 0.0000000000000000e+00  1.6700712239544767e-05 7.9575118910373447e-05 0.0000000000000000e+00  1.7401828179068884e-05 8.1596398513681916e-05 0.0000000000000000e+00  1.8062681498778367e-05 8.3524557921191745e-05 0.0000000000000000e+00  1.8703469940154391e-05 8.5330230702457217e-05 0.0000000000000000e+00  1.9302054549446970e-05 8.7058931516357843e-05 0.0000000000000000e+00  1.9876654159758857e-05 8.8679160468966724e-05 0.0000000000000000e+00  2.0409329700228338e-05 9.0240235820963604e-05 0.0000000000000000e+00  2.0913283662430287e-05 9.1707676769245430e-05 0.0000000000000000e+00  2.1375362956202624e-05 9.3133717862441668e-05 0.0000000000000000e+00  2.1807229024202624e-05 9.4482764165425363e-05 0.0000000000000000e+00  2.2198069612677544e-05 9.5806370701513049e-05 0.0000000000000000e+00  2.2556848409455248e-05 9.7068352647465374e-05 0.0000000000000000e+00  2.2874209811837126e-05 9.8320744822536201e-05 0.0000000000000000e+00  2.3154591857445725e-05 9.9530497813028380e-05 0.0000000000000000e+00  2.3401182564505792e-05 1.0073178034383043e-04 0.0000000000000000e+00  2.3610166292600555e-05 1.0191328612571889e-04 0.0000000000000000e+00  2.3799378780520879e-05 1.0308753115005879e-04 0.0000000000000000e+00  2.3947017516714075e-05 1.0426620121780757e-04 0.0000000000000000e+00  2.4095770117297304e-05 1.0540543208978303e-04 0.0000000000000000e+00  2.4806600435566416e-05 1.0655471094361135e-04 0.0000000000000000e+00  2.6312425604296385e-05 1.0686560474914368e-04 0.0000000000000000e+00  2.7100384632059148e-05 1.0577565172944211e-04 0.0000000000000000e+00  2.6977117319933675e-05 1.0467319458735627e-04 0.0000000000000000e+00  2.6852524496943872e-05 1.0358612547133022e-04 0.0000000000000000e+00  2.6700493631639683e-05 1.0247605198808857e-04 0.0000000000000000e+00  2.6530319370374017e-05 1.0135592469425737e-04 0.0000000000000000e+00  2.6332549401727201e-05 1.0021720637888266e-04 0.0000000000000000e+00  2.6123533424486708e-05 9.9053923905705957e-05 0.0000000000000000e+00  2.5881807543021448e-05 9.7875149683526255e-05 0.0000000000000000e+00  2.5632766412455514e-05 9.6645561932566594e-05 0.0000000000000000e+00  2.5352182749271049e-05 9.5392766486096460e-05 0.0000000000000000e+00  2.5071895813067339e-05 9.4074675843738864e-05 0.0000000000000000e+00  2.4757990432201704e-05 9.2716513250430666e-05 0.0000000000000000e+00  2.4451834753103714e-05 9.1277874749058223e-05 0.0000000000000000e+00  2.4108311008395022e-05 8.9781077392563644e-05 0.0000000000000000e+00  2.3779509955701202e-05 8.8187831839596311e-05 0.0000000000000000e+00  2.3408260433728518e-05 8.6519373901440858e-05 0.0000000000000000e+00  2.3057527619831878e-05 8.4738877266537233e-05 0.0000000000000000e+00  2.2659994904048351e-05 8.2866724409306306e-05 0.0000000000000000e+00  2.2288266626663016e-05 8.0868684153999158e-05 0.0000000000000000e+00  2.1864929270761831e-05 7.8765008577565899e-05 0.0000000000000000e+00  2.1471076218085457e-05 7.6523168136919087e-05 0.0000000000000000e+00  2.1021207112707766e-05 7.4163792098902407e-05 0.0000000000000000e+00  2.0594645663779579e-05 7.1661417594867137e-05 0.0000000000000000e+00  2.0122605346519606e-05 6.9039559910837340e-05 0.0000000000000000e+00  1.9631179263211137e-05 6.6261457014869506e-05 0.0000000000000000e+00  1.9157134123019623e-05 6.3372780240065186e-05 0.0000000000000000e+00  1.8636833284505188e-05 6.0345653239406644e-05 0.0000000000000000e+00  1.8109513018209737e-05 5.7184563624373803e-05 0.0000000000000000e+00  1.7545484885666621e-05 5.3914730272659651e-05 0.0000000000000000e+00  1.6965176345332150e-05 5.0521252268329117e-05 0.0000000000000000e+00  1.6348424907868747e-05 4.7044668969927981e-05 0.0000000000000000e+00  1.5707993734222782e-05 4.3469625032518811e-05 0.0000000000000000e+00  1.5025312741668011e-05 3.9842664238787653e-05 0.0000000000000000e+00  1.4307831561642972e-05 3.6165886983252400e-05 0.0000000000000000e+00  1.3558857202653423e-05 3.2465432213746742e-05 0.0000000000000000e+00  1.2762541414634707e-05 2.8781495085557465e-05 0.0000000000000000e+00  1.1912448891153224e-05 2.5117979055093959e-05 0.0000000000000000e+00  1.1021084865828095e-05 2.1543398437557030e-05 0.0000000000000000e+00  1.0036038288415597e-05 1.8089598441337415e-05 0.0000000000000000e+00  9.0385624880903314e-06 1.4774260077583284e-05 0.0000000000000000e+00  7.9839673043954315e-06 1.1708000550455379e-05 0.0000000000000000e+00  6.8003941025167529e-06 8.8455295513349833e-06 0.0000000000000000e+00  5.5878911975828684e-06 6.3534577987429705e-06 0.0000000000000000e+00  4.2278447112896553e-06 4.2440904964848518e-06 0.0000000000000000e+00  2.8873825695148286e-06 2.6150166100649986e-06 0.0000000000000000e+00  1.4079973003460537e-06 1.4668405446131146e-06 0.0000000000000000e+00  8.1203348762323080e-07 8.9749136019631670e-07 0.0000000000000000e+00  2.5397516909394304e-05 1.0503245547431397e-04 0.0000000000000000e+00  2.5182234690487181e-05 1.0287024417653015e-04 0.0000000000000000e+00  2.4555248351477944e-05 9.9254274375354761e-05 0.0000000000000000e+00  2.2885728676336208e-06 4.1601914843997636e-06 0.0000000000000000e+00  2.4022793473166066e-05 9.6878458490751702e-05 0.0000000000000000e+00  3.7483284392487013e-06 9.0025143608374693e-06 0.0000000000000000e+00  2.3358936977071423e-05 9.4311722508021129e-05 0.0000000000000000e+00  6.1083953586077437e-06 1.9029498730262946e-05 0.0000000000000000e+00  7.5304128151917026e-06 2.6066300166264553e-05 0.0000000000000000e+00  2.2592050624634980e-05 9.1538680650191554e-05 0.0000000000000000e+00  1.1364561391400972e-05 4.4654094566783274e-05 0.0000000000000000e+00  2.0770847347326951e-05 8.5105875057681595e-05 0.0000000000000000e+00  9.0437115022250803e-06 3.3194280887271492e-05 0.0000000000000000e+00  1.2717810883136254e-05 5.1491204600910377e-05 0.0000000000000000e+00  1.9727673400132893e-05 8.1314813520494636e-05 0.0000000000000000e+00  2.1727582869127377e-05 8.8492599083021058e-05 0.0000000000000000e+00  1.4125329668601873e-05 5.8075025409646164e-05 0.0000000000000000e+00  1.8603295483622404e-05 7.7061826786825960e-05 0.0000000000000000e+00  1.5481328333200051e-05 6.3939655171203001e-05 0.0000000000000000e+00  1.7390199930326554e-05 7.2397376301243100e-05 0.0000000000000000e+00  1.6404588927833713e-05 6.8142325358564105e-05 0.0000000000000000e+00  1.0084148470626551e-05 3.8709123717100927e-05 0.0000000000000000e+00  2.4930782594092463e-05 1.0115444570983278e-04 0.0000000000000000e+00  4.8258262353155376e-06 1.3584353671696270e-05 0.0000000000000000e+00  2.5846236881347667e-05 1.0401801459965716e-04 0.0000000000000000e+00  2.2514050107353638e-06 2.5995560529991896e-06 0.0000000000000000e+00  2.4213865296995375e-05 9.5739756792017833e-05 0.0000000000000000e+00  2.4795650781574245e-05 9.8213288424918826e-05 0.0000000000000000e+00  1.9065788258333739e-06 6.2491395299173796e-06 0.0000000000000000e+00  5.4145842528218556e-06 2.2192154389558155e-05 0.0000000000000000e+00  2.1930256973883763e-05 8.7005993032686365e-05 0.0000000000000000e+00  2.3538712964356641e-05 9.3091228240527261e-05 0.0000000000000000e+00  1.0652749777769030e-05 4.7794844830901136e-05 0.0000000000000000e+00  2.1007272437832961e-05 8.3435617081553787e-05 0.0000000000000000e+00  6.8770765399942027e-06 2.9526351721726147e-05 0.0000000000000000e+00  1.2155346120096574e-05 5.4600683688408465e-05 0.0000000000000000e+00  2.0011093464903682e-05 7.9430697057995014e-05 0.0000000000000000e+00  2.2775634542603996e-05 9.0202745771464401e-05 0.0000000000000000e+00  1.3360859298814432e-05 6.0863971636352922e-05 0.0000000000000000e+00  1.8943716814952564e-05 7.4938351659348593e-05 0.0000000000000000e+00  1.7026046713017855e-07 6.9535347925414711e-08 0.0000000000000000e+00  4.1667947522601147e-07 3.9298093398372280e-07 0.0000000000000000e+00  2.5100780525434558e-05 1.0586780781123977e-04 0.0000000000000000e+00  7.6195313666332072e-07 1.9816830526835462e-06 0.0000000000000000e+00  1.8182500960169577e-05 7.0558555443034582e-05 0.0000000000000000e+00  1.2427088049252249e-05 4.2002133913133283e-05 0.0000000000000000e+00 