<?xml version="1.0"?>
<VTKFile type="UnstructuredGrid"  version="0.1"  >
<UnstructuredGrid>
<Piece  NumberOfPoints="1419" NumberOfCells="2698">
<Points>
<DataArray  type="Float64"  NumberOfComponents="3"  format="ascii">0 0 0  0 0.41 0  2.5 0 0  2.5 0.41 0  0.6 0.19 0  0.6 0.21 0  0.25 0.2 0  0.15 0.2 0  0.2489897948556636 0.21 0  0.2489897948556636 0.19 0  0.6 0.2 0  0 0.3807142857143437 0  0 0.3514285714286952 0  0 0.3221428571430699 0  0 0.29285714285744 0  0 0.2635714285718054 0  0 0.2342857142861561 0  0 0.2050000000005308 0  0 0.175714285714732 0  0 0.1464285714289574 0  0 0.1171428571431897 0  0 0.08785714285737878 0  0 0.05857142857161107 0  0 0.02928571428580012 0  0.03015443760436003 0 0  0.06140001986583606 0 0  0.09377624077125973 0 0  0.1273239957535082 0 0  0.1620856860351972 0 0  0.1981052433264291 0 0  0.235428184091502 0 0  0.2741016576309132 0 0  0.3141745521465447 0 0  0.3556974926295285 0 0  0.3987229542472677 0 0  0.4433053055141081 0 0  0.4895008759286886 0 0  0.5373680609405097 0 0  0.5869673343216626 0 0  0.6383613676634521 0 0  0.6916151138468254 0 0  0.7467958595648856 0 0  0.8039733463919316 0 0  0.8632198139502143 0 0  0.9246101326867038 0 0  0.9882218810934433 0 0  1.054135445558498 0 0  1.122434100542598 0 0  1.193204177141305 0 0  1.266535089879536 0 0  1.342519516046404 0 0  1.421253448503939 0 0  1.502836389106271 0 0  1.587371439758838 0 0  1.674965418777374 0 0  1.765729001825544 0 0  1.859776908880082 0 0  1.957227977487062 0 0  2.058205329869943 0 0  2.162836591189951 0 0  2.271253957290865 0 0  2.383594446803425 0 0  2.5 0.1024999999997612 0  2.5 0.2049999999994743 0  2.5 0.3074999999997183 0  2.383594446803656 0.41 0  2.271253957291315 0.41 0  2.162836591190598 0.41 0  2.058205329870775 0.41 0  1.957227977488067 0.41 0  1.859776908881246 0.41 0  1.765729001826854 0.41 0  1.674965418778818 0.41 0  1.58737143976041 0.41 0  1.502836389107956 0.41 0  1.421253448505726 0.41 0  1.342519516048286 0.41 0  1.266535089881505 0.41 0  1.193204177143353 0.41 0  1.122434100544716 0.41 0  1.05413544556068 0.41 0  0.9882218810956305 0.41 0  0.9246101326886647 0.41 0  0.8632198139519631 0.41 0  0.8039733463934788 0.41 0  0.7467958595662458 0.41 0  0.6916151138480078 0.41 0  0.6383613676644679 0.41 0  0.5869673343225223 0.41 0  0.5373680609412221 0.41 0  0.4895008759292634 0.41 0  0.4433053055145528 0.41 0  0.3987229542475914 0.41 0  0.3556974926297398 0.41 0  0.3141745521466497 0.41 0  0.2741016576310038 0.41 0  0.2354281840915826 0.41 0  0.1981052433265003 0.41 0  0.1620856860352591 0.41 0  0.1273239957535623 0.41 0  0.09377624077128965 0.41 0  0.06140001986584975 0.41 0  0.03015443760436654 0.41 0  0.2497468076502589 0.2050254481002335 0  0.2497468076502614 0.1949745518997913 0  0.2469965252529372 0.1829317073451959 0  0.2439893735792749 0.1762316384219906 0  0.2400332147834255 0.1700443375285386 0  0.2352133972704371 0.1645032867342007 0  0.2296339016332438 0.1597280261969788 0  0.2234150974217223 0.1558215752574715 0  0.2166911463437691 0.1528682099456123 0  0.2096071079204251 0.1509316448471593 0  0.2023158100364996 0.1500536585536553 0  0.194974551899914 0.1502531923497262 0  0.1877417105387872 0.1515259415822739 0  0.1807733240461124 0.153844448527136 0  0.1742197252835808 0.15715869474974 0  0.1682222986673531 0.1613971801805478 0  0.162910430003803 0.1664684656256651 0  0.1583987151779087 0.1722631454351573 0  0.1547844879126891 0.178656207771761 0  0.1521457199348551 0.1855097315605723 0  0.1505393388476355 0.1926758619366523 0  0.1505393388476328 0.2073241380633295 0  0.1521457199348437 0.2144902684393899 0  0.1547844879126531 0.221343792228163 0  0.1583987151778488 0.2277368545647528 0  0.1629104300036858 0.2335315343742052 0  0.1682222986671726 0.2386028198193036 0  0.1742197252833576 0.2428413052501257 0  0.1807733240458683 0.2461555514727623 0  0.1877417105384929 0.2484740584176516 0  0.1949745518995776 0.2497468076502398 0  0.202315810036185 0.2499463414463592 0  0.2096071079201568 0.2490683551528932 0  0.2166911463435495 0.2471317900544655 0  0.2234150974215506 0.2441784247426195 0  0.2296339016331197 0.2402719738031125 0  0.2352133972703547 0.2354967132658811 0  0.2400332147833751 0.2299556624715287 0  0.2439893735792577 0.2237683615780412 0  0.246996525252926 0.2170682926548348 0  0.25645809709277 0.21 0  0.2639263993298655 0.21 0  0.271394701566961 0.21 0  0.2788630038040554 0.21 0  0.2863313060411479 0.21 0  0.2937996082782405 0.21 0  0.301267910515333 0.21 0  0.3087362127524279 0.21 0  0.3162045149895234 0.21 0  0.3236728172265972 0.21 0  0.3311411194636928 0.21 0  0.3386094217007701 0.21 0  0.3460777239378666 0.21 0  0.3535460261749672 0.21 0  0.3610143284120516 0.21 0  0.3684826306491596 0.21 0  0.3759509328862226 0.21 0  0.383419235123329 0.21 0  0.3908875373604028 0.21 0  0.3983558395975142 0.21 0  0.4058241418345938 0.21 0  0.4132924440716992 0.21 0  0.4207607463087888 0.21 0  0.4282290485459029 0.21 0  0.4356973507830418 0.21 0  0.4431656530201649 0.21 0  0.4506339552573136 0.21 0  0.4581022574944306 0.21 0  0.4655705597315852 0.21 0  0.4730388619686996 0.21 0  0.480507164205851 0.21 0  0.4879754664429498 0.21 0  0.4954437686800938 0.21 0  0.502912070917267 0.21 0  0.5103803731544119 0.21 0  0.5178486753915261 0.21 0  0.5253169776286404 0.21 0  0.5327852798657868 0.21 0  0.5402535821029386 0.21 0  0.54772188434007 0.21 0  0.5551901865771842 0.21 0  0.5626584888143201 0.21 0  0.5701267910514778 0.21 0  0.5775950932886138 0.21 0  0.5850633955257281 0.21 0  0.5925316977628483 0.21 0  0.6 0.2050000000000054 0  0.6 0.1950000000000217 0  0.5925316977628897 0.19 0  0.5850633955257988 0.19 0  0.5775950932887378 0.19 0  0.5701267910515998 0.19 0  0.5626584888145268 0.19 0  0.5551901865773963 0.19 0  0.547721884340339 0.19 0  0.5402535821032429 0.19 0  0.5327852798661811 0.19 0  0.5253169776290537 0.19 0  0.5178486753919799 0.19 0  0.5103803731549078 0.19 0  0.502912070917822 0.19 0  0.4954437686807294 0.19 0  0.4879754664436223 0.19 0  0.4805071642065402 0.19 0  0.4730388619694271 0.19 0  0.4655705597323621 0.19 0  0.4581022574952563 0.19 0  0.4506339552581777 0.19 0  0.4431656530210671 0.19 0  0.4356973507839815 0.19 0  0.4282290485468779 0.19 0  0.4207607463097617 0.19 0  0.4132924440726327 0.19 0  0.4058241418354857 0.19 0  0.3983558395983636 0.19 0  0.3908875373612097 0.19 0  0.3834192351240934 0.19 0  0.3759509328869369 0.19 0  0.3684826306498175 0.19 0  0.361014328412667 0.19 0  0.3535460261755617 0.19 0  0.3460777239384295 0.19 0  0.3386094217012945 0.19 0  0.3311411194641595 0.19 0  0.3236728172270245 0.19 0  0.3162045149898895 0.19 0  0.3087362127527544 0.19 0  0.3012679105156187 0.19 0  0.2937996082784807 0.19 0  0.2863313060413428 0.19 0  0.2788630038042048 0.19 0  0.2713947015670686 0.19 0  0.2639263993299336 0.19 0  0.2564580970927985 0.19 0  0.2607803159922026 0.2000727136295815 0  0.5887803774232762 0.2001272386983733 0  0.5745072403740523 0.2002044435018727 0  0.5511891430099709 0.2001122610077113 0  0.2751288526855082 0.20000000000002 0  0.5365194309847112 0.1999999999999436 0  0.2894621222999649 0.1998691686390484 0  0.5215828265105155 0.1999999999999228 0  0.3127789816668748 0.1998657885438805 0  0.3274069683451451 0.2000000000000796 0  0.5066462220363641 0.199999999999908 0  0.3650630746574081 0.199866017807523 0  0.476773013087985 0.1999999999998713 0  0.3417402379596385 0.1998691686391011 0  0.3796850840047755 0.200000000000134 0  0.4618364086138087 0.1999999999998546 0  0.4917096175621762 0.1999999999998808 0  0.3946216884789568 0.2000000000001512 0  0.446899804139621 0.1999999999998389 0  0.4089549580935208 0.1998691686391595 0  0.4322718174608562 0.200127451265745 0  0.4201487168029707 0.1999966199048527 0  0.3528922713220932 0.2000185703532356 0  0.5633122436674589 0.1999814296467508 0  0.3006558810093873 0.1999966199048318 0  0.5815926498168407 0.1966545283159175 0  0.2677053789419034 0.1964246479135325 0  0.5290511287476175 0.1970915826863981 0  0.5439877332217911 0.197091582686394 0  0.2825131256993216 0.2035478995978015 0  0.3199386661080599 0.202908417313604 0  0.4842413153250809 0.1970915826863873 0  0.5141145242734466 0.1970915826863843 0  0.3722167817676917 0.2029084173136195 0  0.4693047108508938 0.1970915826863783 0  0.3348752705822316 0.202908417313609 0  0.3871533862418661 0.2029084173136212 0  0.4543681063767183 0.1970915826863795 0  0.4991779197992749 0.1970915826863902 0  0.4020059614928624 0.203547899597858 0  0.4394315019025246 0.1970915826863714 0  0.2550657455369551 0.2034088125358657 0  0.2548908499171161 0.1966940311614271 0  0.5946539510196798 0.2024302972968126 0  0.267698176732111 0.2039977513680092 0  0.4261685417851465 0.196409292431739 0  0.3590076176283495 0.196411355804271 0  0.5571672426447437 0.2036011176410121 0  0.3066757059912147 0.1964092924317024 0  0.594380730180568 0.1966558399668133 0  0.4842413153245942 0.2040749161535287 0  0.4693047108503577 0.2040749161535231 0  0.3871533862424271 0.1959250838464788 0  0.372246743208829 0.1959123236376545 0  0.5141145242731028 0.2040749161535395 0  0.4543681063761134 0.2040749161535186 0  0.4019979587101454 0.1959834479682427 0  0.4394608940728603 0.2040870543693135 0  0.5439623148931173 0.2040856076781014 0  0.5290511287473298 0.2040749161535501 0  0.4991779197988497 0.2040749161535382 0  0.3347912413592433 0.1959225448935183 0  0.3199680582793816 0.1959123018030061 0  0.2825051229162361 0.1959834479681729 0  0.3590471196690275 0.2036304442587945 0  0.5571594006495384 0.1963685282145804 0  0.3067669986803285 0.203627750582736 0  0.4262598344738712 0.2036568242185335 0  0.5814408164431408 0.2041285596160068 0  0.5688286748170428 0.1961819304477386 0  0.4145905603063645 0.2038180695522843 0  0.3473758401724931 0.2038180695522752 0  0.2950977245128307 0.2038180695522663 0  0.5688286748170693 0.203818069552238 0  0.2950977245127906 0.1961819304477774 0  0.3473758401723931 0.1961819304478349 0  0.4145905603061963 0.1961819304479011 0  0.2601812407614425 0.2056861609747042
[...]
<PointData  Vectors="f_46-0"> 
<DataArray  type="Float64"  Name="f_46-0"  NumberOfComponents="3" format="ascii">0.0000000000000000e+00 0.0000000000000000e+00 0.0000000000000000e+00  0.0000000000000000e+00 0.0000000000000000e+00 0.0000000000000000e+00  0.0000000000000000e+00 0.0000000000000000e+00 0.0000000000000000e+00  0.0000000000000000e+00 0.0000000000000000e+00 0.0000000000000000e+00  5.9565582488574278e-05 -4.8646028079546080e-04 0.0000000000000000e+00  9.6991399281338265e-05 -4.7806010644301135e-04 0.0000000000000000e+00  0.0000000000000000e+00 0.0000000000000000e+00 0.0000000000000000e+00  0.0000000000000000e+00 0.0000000000000000e+00 0.0000000000000000e+00  0.0000000000000000e+00 0.0000000000000000e+00 0.0000000000000000e+00  0.0000000000000000e+00 0.0000000000000000e+00 0.0000000000000000e+00  7.8477414078678316e-05 -4.8225521714408370e-04 0.0000000000000000e+00  7.7196598053294097e-02 0.0000000000000000e+00 0.0000000000000000e+00  1.4251679640609088e-01 0.0000000000000000e+00 0.0000000000000000e+00  1.9596059505837499e-01 0.0000000000000000e+00 0.0000000000000000e+00  2.3752799401020827e-01 0.0000000000000000e+00 0.0000000000000000e+00  2.6721899326158544e-01 0.0000000000000000e+00 0.0000000000000000e+00  2.8503359281250462e-01 0.0000000000000000e+00 0.0000000000000000e+00  2.9097179266294804e-01 0.0000000000000000e+00 0.0000000000000000e+00  2.8503359281286483e-01 0.0000000000000000e+00 0.0000000000000000e+00  2.6721899326220411e-01 0.0000000000000000e+00 0.0000000000000000e+00  2.3752799401097449e-01 0.0000000000000000e+00 0.0000000000000000e+00  1.9596059505910282e-01 0.0000000000000000e+00 0.0000000000000000e+00  1.4251679640671197e-01 0.0000000000000000e+00 0.0000000000000000e+00  7.7196598053644053e-02 0.0000000000000000e+00 0.0000000000000000e+00  0.0000000000000000e+00 0.0000000000000000e+00 0.0000000000000000e+00  0.0000000000000000e+00 0.0000000000000000e+00 0.0000000000000000e+00  0.0000000000000000e+00 0.0000000000000000e+00 0.0000000000000000e+00  0.0000000000000000e+00 0.0000000000000000e+00 0.0000000000000000e+00  0.0000000000000000e+00 0.0000000000000000e+00 0.0000000000000000e+00  0.0000000000000000e+00 0.0000000000000000e+00 0.0000000000000000e+00  0.0000000000000000e+00 0.0000000000000000e+00 0.0000000000000000e+00  0.0000000000000000e+00 0.0000000000000000e+00 0.0000000000000000e+00  0.0000000000000000e+00 0.0000000000000000e+00 0.0000000000000000e+00  0.0000000000000000e+00 0.0000000000000000e+00 0.0000000000000000e+00  0.0000000000000000e+00 0.0000000000000000e+00 0.0000000000000000e+00  0.0000000000000000e+00 0.0000000000000000e+00 0.0000000000000000e+00  0.0000000000000000e+00 0.0000000000000000e+00 0.0000000000000000e+00  0.0000000000000000e+00 0.0000000000000000e+00 0.0000000000000000e+00  0.0000000000000000e+00 0.0000000000000000e+00 0.0000000000000000e+00  0.0000000000000000e+00 0.0000000000000000e+00 0.0000000000000000e+00  0.0000000000000000e+00 0.0000000000000000e+00 0.0000000000000000e+00  0.0000000000000000e+00 0.0000000000000000e+00 0.0000000000000000e+00  0.0000000000000000e+00 0.0000000000000000e+00 0.0000000000000000e+00  0.0000000000000000e+00 0.0000000000000000e+00 0.0000000000000000e+00  0.0000000000000000e+00 0.0000000000000000e+00 0.0000000000000000e+00  0.0000000000000000e+00 0.0000000000000000e+00 0.0000000000000000e+00  0.0000000000000000e+00 0.0000000000000000e+00 0.0000000000000000e+00  0.0000000000000000e+00 0.0000000000000000e+00 0.0000000000000000e+00  0.0000000000000000e+00 0.0000000000000000e+00 0.0000000000000000e+00  0.0000000000000000e+00 0.0000000000000000e+00 0.0000000000000000e+00  0.0000000000000000e+00 0.0000000000000000e+00 0.0000000000000000e+00  0.0000000000000000e+00 0.0000000000000000e+00 0.0000000000000000e+00  0.0000000000000000e+00 0.0000000000000000e+00 0.0000000000000000e+00  0.0000000000000000e+00 0.0000000000000000e+00 0.0000000000000000e+00  0.0000000000000000e+00 0.0000000000000000e+00 0.0000000000000000e+00  0.0000000000000000e+00 0.0000000000000000e+00 0.0000000000000000e+00  0.0000000000000000e+00 0.0000000000000000e+00 0.0000000000000000e+00  0.0000000000000000e+00 0.0000000000000000e+00 0.0000000000000000e+00  0.0000000000000000e+00 0.0000000000000000e+00 0.0000000000000000e+00  0.0000000000000000e+00 0.0000000000000000e+00 0.0000000000000000e+00  0.0000000000000000e+00 0.0000000000000000e+00 0.0000000000000000e+00  0.0000000000000000e+00 0.0000000000000000e+00 0.0000000000000000e+00  2.7008768379896225e-01 1.5359364793772487e-02 0.0000000000000000e+00  2.2579052185918574e-01 1.3538851160012336e-03 0.0000000000000000e+00  2.7613744748097874e-01 -2.5862465100704748e-02 0.0000000000000000e+00  0.0000000000000000e+00 0.0000000000000000e+00 0.0000000000000000e+00  0.0000000000000000e+00 0.0000000000000000e+00 0.0000000000000000e+00  0.0000000000000000e+00 0.0000000000000000e+00 0.0000000000000000e+00  0.0000000000000000e+00 0.0000000000000000e+00 0.0000000000000000e+00  0.0000000000000000e+00 0.0000000000000000e+00 0.0000000000000000e+00  0.0000000000000000e+00 0.0000000000000000e+00 0.0000000000000000e+00  0.0000000000000000e+00 0.0000000000000000e+00 0.0000000000000000e+00  0.0000000000000000e+00 0.0000000000000000e+00 0.0000000000000000e+00  0.0000000000000000e+00 0.0000000000000000e+00 0.0000000000000000e+00  0.0000000000000000e+00 0.0000000000000000e+00 0.0000000000000000e+00  0.0000000000000000e+00 0.0000000000000000e+00 0.0000000000000000e+00  0.0000000000000000e+00 0.0000000000000000e+00 0.0000000000000000e+00  0.0000000000000000e+00 0.0000000000000000e+00 0.0000000000000000e+00  0.0000000000000000e+00 0.0000000000000000e+00 0.0000000000000000e+00  0.0000000000000000e+00 0.0000000000000000e+00 0.0000000000000000e+00  0.0000000000000000e+00 0.0000000000000000e+00 0.0000000000000000e+00  0.0000000000000000e+00 0.0000000000000000e+00 0.0000000000000000e+00  0.0000000000000000e+00 0.0000000000000000e+00 0.0000000000000000e+00  0.0000000000000000e+00 0.0000000000000000e+00 0.0000000000000000e+00  0.0000000000000000e+00 0.0000000000000000e+00 0.0000000000000000e+00  0.0000000000000000e+00 0.0000000000000000e+00 0.0000000000000000e+00  0.0000000000000000e+00 0.0000000000000000e+00 0.0000000000000000e+00  0.0000000000000000e+00 0.0000000000000000e+00 0.0000000000000000e+00  0.0000000000000000e+00 0.0000000000000000e+00 0.0000000000000000e+00  0.0000000000000000e+00 0.0000000000000000e+00 0.0000000000000000e+00  0.0000000000000000e+00 0.0000000000000000e+00 0.0000000000000000e+00  0.0000000000000000e+00 0.0000000000000000e+00 0.0000000000000000e+00  0.0000000000000000e+00 0.0000000000000000e+00 0.0000000000000000e+00  0.0000000000000000e+00 0.0000000000000000e+00 0.0000000000000000e+00  0.0000000000000000e+00 0.0000000000000000e+00 0.0000000000000000e+00  0.0000000000000000e+00 0.0000000000000000e+00 0.0000000000000000e+00  0.0000000000000000e+00 0.0000000000000000e+00 0.0000000000000000e+00  0.0000000000000000e+00 0.0000000000000000e+00 0.0000000000000000e+00  0.0000000000000000e+00 0.0000000000000000e+00 0.0000000000000000e+00  0.0000000000000000e+00 0.0000000000000000e+00 0.0000000000000000e+00  0.0000000000000000e+00 0.0000000000000000e+00 0.0000000000000000e+00  0.0000000000000000e+00 0.0000000000000000e+00 0.0000000000000000e+00  0.0000000000000000e+00 0.0000000000000000e+00 0.0000000000000000e+00  0.0000000000000000e+00 0.0000000000000000e+00 0.0000000000000000e+00  0.0000000000000000e+00 0.0000000000000000e+00 0.0000000000000000e+00  -2.5864741299762314e-13 -4.7616965585021881e-13 0.0000000000000000e+00  0.0000000000000000e+00 0.0000000000000000e+00 0.0000000000000000e+00  0.0000000000000000e+00 0.0000000000000000e+00 0.0000000000000000e+00  0.0000000000000000e+00 0.0000000000000000e+00 0.0000000000000000e+00  0.0000000000000000e+00 0.0000000000000000e+00 0.0000000000000000e+00  -2.2606570666751791e-13 0.0000000000000000e+00 0.0000000000000000e+00  0.0000000000000000e+00 0.0000000000000000e+00 0.0000000000000000e+00  0.0000000000000000e+00 0.0000000000000000e+00 0.0000000000000000e+00  0.0000000000000000e+00 0.0000000000000000e+00 0.0000000000000000e+00  0.0000000000000000e+00 0.0000000000000000e+00 0.0000000000000000e+00  0.0000000000000000e+00 0.0000000000000000e+00 0.0000000000000000e+00  0.0000000000000000e+00 0.0000000000000000e+00 0.0000000000000000e+00  0.0000000000000000e+00 0.0000000000000000e+00 0.0000000000000000e+00  0.0000000000000000e+00 0.0000000000000000e+00 0.0000000000000000e+00  0.0000000000000000e+00 0.0000000000000000e+00 0.0000000000000000e+00  0.0000000000000000e+00 0.0000000000000000e+00 0.0000000000000000e+00  0.0000000000000000e+00 0.0000000000000000e+00 0.0000000000000000e+00  0.0000000000000000e+00 0.0000000000000000e+00 0.0000000000000000e+00  0.0000000000000000e+00 0.0000000000000000e+00 0.0000000000000000e+00  0.0000000000000000e+00 0.0000000000000000e+00 0.0000000000000000e+00  0.0000000000000000e+00 0.0000000000000000e+00 0.0000000000000000e+00  0.0000000000000000e+00 0.0000000000000000e+00 0.0000000000000000e+00  0.0000000000000000e+00 0.0000000000000000e+00 0.0000000000000000e+00  0.0000000000000000e+00 0.0000000000000000e+00 0.0000000000000000e+00  0.0000000000000000e+00 0.0000000000000000e+00 0.0000000000000000e+00  0.0000000000000000e+00 0.0000000000000000e+00 0.0000000000000000e+00  0.0000000000000000e+00 0.0000000000000000e+00 0.0000000000000000e+00  0.0000000000000000e+00 0.0000000000000000e+00 0.0000000000000000e+00  0.0000000000000000e+00 0.0000000000000000e+00 0.0000000000000000e+00  0.0000000000000000e+00 0.0000000000000000e+00 0.0000000000000000e+00  0.0000000000000000e+00 0.0000000000000000e+00 0.0000000000000000e+00  0.0000000000000000e+00 0.0000000000000000e+00 0.0000000000000000e+00  0.0000000000000000e+00 0.0000000000000000e+00 0.0000000000000000e+00  0.0000000000000000e+00 0.0000000000000000e+00 0.0000000000000000e+00  0.0000000000000000e+00 0.0000000000000000e+00 0.0000000000000000e+00  0.0000000000000000e+00 0.0000000000000000e+00 0.0000000000000000e+00  0.0000000000000000e+00 0.0000000000000000e+00 0.0000000000000000e+00  0.0000000000000000e+00 5.0064891390624115e-17 0.0000000000000000e+00  1.8415478039860666e-06 6.3663977897745134e-06 0.0000000000000000e+00  3.6719491038210124e-06 5.9801485735921697e-06 0.0000000000000000e+00  5.1167939644799140e-06 4.5004408813700362e-06 0.0000000000000000e+00  6.5453203401430498e-06 2.0761647126034737e-06 0.0000000000000000e+00  7.8405064730233220e-06 -1.0295173926890931e-06 0.0000000000000000e+00  9.4034915994371727e-06 -4.7751913356230699e-06 0.0000000000000000e+00  1.0857686052094045e-05 -9.0802068475702809e-06 0.0000000000000000e+00  1.2426774922518590e-05 -1.4120259538671659e-05 0.0000000000000000e+00  1.4215135067148542e-05 -1.9715666998694273e-05 0.0000000000000000e+00  1.5878085485120592e-05 -2.5939891449210202e-05 0.0000000000000000e+00  1.7810680164477960e-05 -3.2721729631962562e-05 0.0000000000000000e+00  1.9586335112646171e-05 -4.0109173237516053e-05 0.0000000000000000e+00  2.1586949904113351e-05 -4.8025328070784753e-05 0.0000000000000000e+00  2.3455575093138006e-05 -5.6389305176473744e-05 0.0000000000000000e+00  2.5379800998600878e-05 -6.5330008711327991e-05 0.0000000000000000e+00  2.7434665951625685e-05 -7.4684666915510791e-05 0.0000000000000000e+00  2.9363444919505003e-05 -8.4511220003247612e-05 0.0000000000000000e+00  3.1454803386231693e-05 -9.4744797614750438e-05 0.0000000000000000e+00  3.3411205308458245e-05 -1.0540109306472489e-04 0.0000000000000000e+00  3.5497989078025742e-05 -1.1639793130372089e-04 0.0000000000000000e+00  3.7499580894875273e-05 -1.2777676288288720e-04 0.0000000000000000e+00  3.9593168177750228e-05 -1.3948030041048453e-04 0.0000000000000000e+00  4.1604872440687758e-05 -1.5142830819979197e-04 0.0000000000000000e+00  4.3645223116040373e-05 -1.6370184260447982e-04 0.0000000000000000e+00  4.5743921706928363e-05 -1.7617034343579444e-04 0.0000000000000000e+00  4.7813804384481377e-05 -1.8890635895021479e-04 0.0000000000000000e+00  4.9918852414354053e-05 -2.0181719372711423e-04 0.0000000000000000e+00  5.2016915007826287e-05 -2.1492607395889811e-04 0.0000000000000000e+00  5.4148436432616965e-05 -2.2817983407675207e-04 0.0000000000000000e+00  5.6281144759541124e-05 -2.4158453210873794e-04 0.0000000000000000e+00  5.8445264422047511e-05 -2.5510009562455658e-04 0.0000000000000000e+00  6.0621584991353171e-05 -2.6873288380501522e-04 0.0000000000000000e+00  6.2825154623838035e-05 -2.8243911698729913e-04 0.0000000000000000e+00  6.5050659545846346e-05 -2.9624244686847050e-04 0.0000000000000000e+00  6.7313194837570757e-05 -3.1008362177154859e-04 0.0000000000000000e+00  6.9596371239809688e-05 -3.2399515685172339e-04 0.0000000000000000e+00  7.1913556733240280e-05 -3.3792908927038221e-04 0.0000000000000000e+00  7.4259071310039574e-05 -3.5191430120872598e-04 0.0000000000000000e+00  7.6643842211452656e-05 -3.6590544937025929e-04 0.0000000000000000e+00  7.9064604548712320e-05 -3.7993136231135081e-04 0.0000000000000000e+00  8.1529269633813539e-05 -3.9396037639288480e-04 0.0000000000000000e+00  8.4020947812184042e-05 -4.0800346904125179e-04 0.0000000000000000e+00  8.6567204268284497e-05 -4.2204819521340030e-04 0.0000000000000000e+00  8.9137330589575189e-05 -4.3609821793740103e-04 0.0000000000000000e+00  9.1753969497892476e-05 -4.5016161501417997e-04 0.0000000000000000e+00  9.4386140106127032e-05 -4.6419265627300398e-04 0.0000000000000000e+00  8.7808378538928864e-05 -4.8015630198301301e-04 0.0000000000000000e+00  6.9087127428427373e-05 -4.8435352808260860e-04 0.0000000000000000e+00  5.6957493084762911e-05 -4.7236385831488976e-04 0.0000000000000000e+00  5.4320426310785550e-05 -4.5844568321873504e-04 0.0000000000000000e+00  5.1704233623771863e-05 -4.4454757208538682e-04 0.0000000000000000e+00  4.9141084861921787e-05 -4.3063857319977996e-04 0.0000000000000000e+00  4.6606266987182309e-05 -4.1673021426278690e-04 0.0000000000000000e+00  4.4136438818191052e-05 -4.0282659719878945e-04 0.0000000000000000e+00  4.1708021308612631e-05 -3.8892554879419177e-04 0.0000000000000000e+00  3.9331302859770276e-05 -3.7504616901536624e-04 0.0000000000000000e+00  3.7012532503573670e-05 -3.6116580435849159e-04 0.0000000000000000e+00  3.4738087150913770e-05 -3.4733299635543463e-04 0.0000000000000000e+00  3.2531085473202027e-05 -3.3350895006015727e-04 0.0000000000000000e+00  3.0366605331091459e-05 -3.1974862066914972e-04 0.0000000000000000e+00  2.8279121273326615e-05 -3.0601405926353691e-04 0.0000000000000000e+00  2.6227534070426513e-05 -2.9236502661683016e-04 0.0000000000000000e+00  2.4263723306605038e-05 -2.7876565310410226e-04 0.0000000000000000e+00  2.2330899843489518e-05 -2.6528059119496858e-04 0.0000000000000000e+00  2.0500931224812770e-05 -2.5187482302237960e-04 0.0000000000000000e+00  1.8694097327059322e-05 -2.3861629070199831e-04 0.0000000000000000e+00  1.7004775610347678e-05 -2.2546881893045878e-04 0.0000000000000000e+00  1.5326240676772076e-05 -2.1250546973350661e-04 0.0000000000000000e+00  1.3782832523732864e-05 -1.9969588480590899e-04 0.0000000000000000e+00  1.2239310425276756e-05 -1.8711458807737390e-04 0.0000000000000000e+00  1.0848375551872446e-05 -1.7474661559077761e-04 0.0000000000000000e+00  9.4533363569174120e-06 -1.6260804372377028e-04 0.0000000000000000e+00  8.1395884398098178e-06 -1.5078597596983765e-04 0.0000000000000000e+00  6.9505428529440985e-06 -1.3919238857118061e-04 0.0000000000000000e+00  5.7913727392223093e-06 -1.2797666296552129e-04 0.0000000000000000e+00  4.7484578017416977e-06 -1.1706082994633962e-04 0.0000000000000000e+00  3.7426343021774560e-06 -1.0657248321375813e-04 0.0000000000000000e+00  2.8552907121023163e-06 -9.6440839359159588e-05 0.0000000000000000e+00  2.0068265741499312e-06 -8.6768685462001741e-05 0.0000000000000000e+00  1.3367796762027204e-06 -7.7573337631517834e-05 0.0000000000000000e+00  6.1869499892869779e-07 -6.8796928277130317e-05 0.0000000000000000e+00  -4.4419746773000493e-09 -6.0602363323352422e-05 0.0000000000000000e+00  -4.4262660693595734e-07 -5.2833004250469294e-05 0.0000000000000000e+00  -8.4630115070980937e-07 -4.5698918995830933e-05 0.0000000000000000e+00  -1.0941493594146807e-06 -3.9080957892217001e-05 0.0000000000000000e+00  -1.2890658701917415e-06 -3.3097852185281771e-05 0.0000000000000000e+00  -1.2499715282163288e-06 -2.7764647897250234e-05 0.0000000000000000e+00  -1.2646889773630282e-06 -2.2972115826699278e-05 0.0000000000000000e+00  -1.1555699642975541e-06 -1.8925352027663766e-05 0.0000000000000000e+00  -8.1024279630655278e-07 -1.5396439712441872e-05 0.0000000000000000e+00  -4.5247475217354536e-07 -1.2652993354893615e-05 0.0000000000000000e+00  2.2050916068018975e-08 -1.0544235534147288e-05 0.0000000000000000e+00  2.5865262410743082e-07 -8.8726006755286523e-06 0.0000000000000000e+00  3.0872098752247386e-07 -7.4337702273037032e-06 0.0000000000000000e+00  2.9349997608567364e-06 -4.8217701530844045e-07 0.0000000000000000e+00  7.4649018118612726e-05 -4.6120914648254655e-04 0.0000000000000000e+00  6.9734490355629399e-05 -4.3445499491271485e-04 0.0000000000000000e+00  6.1724190566436946e-05 -3.9085148402180311e-04 0.0000000000000000e+00  2.8844229342263372e-06 -3.6315824663523117e-06 0.0000000000000000e+00  5.6811053230767689e-05 -3.6349009910308127e-04 0.0000000000000000e+00  3.7471954113278537e-06 -9.3092827937459503e-06 0.0000000000000000e+00  5.2193172225749937e-05 -3.3566160920144847e-04 0.0000000000000000e+00  5.9871172685494967e-06 -2.3507770034304126e-05 0.0000000000000000e+00  7.9766262029626656e-06 -3.5417129221677050e-05 0.0000000000000000e+00  4.7751189586704013e-05 -3.0797495833173968e-04 0.0000000000000000e+00  1.3925963309668389e-05 -7.6196120295165648e-05 0.0000000000000000e+00  3.9388594495936470e-05 -2.5337008122497357e-04 0.0000000000000000e+00  9.9710406755361170e-06 -4.9413287809737749e-05 0.0000000000000000e+00  1.6862283758655328e-05 -9.5248061013558592e-05 0.0000000000000000e+00  3.5464466779033277e-05 -2.2667897310493698e-04 0.0000000000000000e+00  4.3483339281526163e-05 -2.8051074604011633e-04 0.0000000000000000e+00  1.9866914859411608e-05 -1.1642715305026344e-04 0.0000000000000000e+00  3.1707611433421885e-05 -2.0058178372180769e-04 0.0000000000000000e+00  2.2705635885695204e-05 -1.3819062597702499e-04 0.0000000000000000e+00  2.8398898338608825e-05 -1.7569016191058644e-04 0.0000000000000000e+00  2.5399083220466443e-05 -1.5590112244628595e-04 0.0000000000000000e+00  1.1980118735008876e-05 -6.1595155782353565e-05 0.0000000000000000e+00  6.5511339294211437e-05 -4.1359435676259059e-04 0.0000000000000000e+00  4.8136050643873877e-06 -1.5354677601018805e-05 0.0000000000000000e+00  6.5575859438977134e-05 -4.4919735373852678e-04 0.0000000000000000e+00  1.9219788215894139e-06 -4.6080760703268130e-06 0.0000000000000000e+00  4.9072175175103847e-05 -3.5092155902591662e-04 0.0000000000000000e+00  5.3759764036750322e-05 -3.7875868855238935e-04 0.0000000000000000e+00  4.6924709061029176e-06 -3.6962713357159575e-06 0.0000000000000000e+00  9.3455060242003601e-06 -2.7124902221908914e-05 0.0000000000000000e+00  3.6149574302044291e-05 -2.6837142307999421e-04 0.0000000000000000e+00  4.4572823174395157e-05 -3.2319507441368645e-04 0.0000000000000000e+00  1.9208760459343333e-05 -8.3556826256332950e-05 0.0000000000000000e+00  3.2230529436682952e-05 -2.4147938545091374e-04 0.0000000000000000e+00  1.1854403509953122e-05 -4.0588854649969473e-05 0.0000000000000000e+00  2.2439034886511333e-05 -1.0397086583409314e-04 0.0000000000000000e+00  2.8509694659096671e-05 -2.1510551655381737e-04 0.0000000000000000e+00  4.0264910562243843e-05 -2.9564842968179500e-04 0.0000000000000000e+00  2.6749414308417957e-05 -1.2544248413798076e-04 0.0000000000000000e+00  2.4982526570920865e-05 -1.8940602400853383e-04 0.0000000000000000e+00  2.3615500902604563e-06 1.5789136119775141e-06 0.0000000000000000e+00  2.0455067325679009e-06 -1.5515902573517582e-06 0.0000000000000000e+00  8.1089400609480060e-05 -4.7125495376354687e-04 0.0000000000000000e+00  3.5234889966391496e-06 1.3314274433582418e-06 0.0000000000000000e+00