<?xml version="1.0"?>
<VTKFile type="UnstructuredGrid"  version="0.1"  >
<UnstructuredGrid>
<Piece  NumberOfPoints="1419" NumberOfCells="2698">
<Points>
<DataArray  type="Float64"  NumberOfComponents="3"  format="ascii">0 0 0  0 0.41 0  2.5 0 0  2.5 0.41 0  0.6 0.19 0  0.6 0.21 0  0.25 0.2 0  0.15 0.2 0  0.2489897948556636 0.21 0  0.2489897948556636 0.19 0  0.6 0.2 0  0 0.3807142857143437 0  0 0.3514285714286952 0  0 0.3221428571430699 0  0 0.29285714285744 0  0 0.2635714285718054 0  0 0.2342857142861561 0  0 0.2050000000005308 0  0 0.175714285714732 0  0 0.1464285714289574 0  0 0.1171428571431897 0  0 0.08785714285737878 0  0 0.05857142857161107 0  0 0.02928571428580012 0  0.03015443760436003 0 0  0.06140001986583606 0 0  0.09377624077125973 0 0  0.1273239957535082 0 0  0.1620856860351972 0 0  0.1981052433264291 0 0  0.235428184091502 0 0  0.2741016576309132 0 0  0.3141745521465447 0 0  0.3556974926295285 0 0  0.3987229542472677 0 0  0.4433053055141081 0 0  0.4895008759286886 0 0  0.5373680609405097 0 0  0.5869673343216626 0 0  0.6383613676634521 0 0  0.6916151138468254 0 0  0.7467958595648856 0 0  0.8039733463919316 0 0  0.8632198139502143 0 0  0.9246101326867038 0 0  0.9882218810934433 0 0  1.054135445558498 0 0  1.122434100542598 0 0  1.193204177141305 0 0  1.266535089879536 0 0  1.342519516046404 0 0  1.421253448503939 0 0  1.502836389106271 0 0  1.587371439758838 0 0  1.674965418777374 0 0  1.765729001825544 0 0  1.859776908880082 0 0  1.957227977487062 0 0  2.058205329869943 0 0  2.162836591189951 0 0  2.271253957290865 0 0  2.383594446803425 0 0  2.5 0.1024999999997612 0  2.5 0.2049999999994743 0  2.5 0.3074999999997183 0  2.383594446803656 0.41 0  2.271253957291315 0.41 0  2.162836591190598 0.41 0  2.058205329870775 0.41 0  1.957227977488067 0.41 0  1.859776908881246 0.41 0  1.765729001826854 0.41 0  1.674965418778818 0.41 0  1.58737143976041 0.41 0  1.502836389107956 0.41 0  1.421253448505726 0.41 0  1.342519516048286 0.41 0  1.266535089881505 0.41 0  1.193204177143353 0.41 0  1.122434100544716 0.41 0  1.05413544556068 0.41 0  0.9882218810956305 0.41 0  0.9246101326886647 0.41 0  0.8632198139519631 0.41 0  0.8039733463934788 0.41 0  0.7467958595662458 0.41 0  0.6916151138480078 0.41 0  0.6383613676644679 0.41 0  0.5869673343225223 0.41 0  0.5373680609412221 0.41 0  0.4895008759292634 0.41 0  0.4433053055145528 0.41 0  0.3987229542475914 0.41 0  0.3556974926297398 0.41 0  0.3141745521466497 0.41 0  0.2741016576310038 0.41 0  0.2354281840915826 0.41 0  0.1981052433265003 0.41 0  0.1620856860352591 0.41 0  0.1273239957535623 0.41 0  0.09377624077128965 0.41 0  0.06140001986584975 0.41 0  0.03015443760436654 0.41 0  0.2497468076502589 0.2050254481002335 0  0.2497468076502614 0.1949745518997913 0  0.2469965252529372 0.1829317073451959 0  0.2439893735792749 0.1762316384219906 0  0.2400332147834255 0.1700443375285386 0  0.2352133972704371 0.1645032867342007 0  0.2296339016332438 0.1597280261969788 0  0.2234150974217223 0.1558215752574715 0  0.2166911463437691 0.1528682099456123 0  0.2096071079204251 0.1509316448471593 0  0.2023158100364996 0.1500536585536553 0  0.194974551899914 0.1502531923497262 0  0.1877417105387872 0.1515259415822739 0  0.1807733240461124 0.153844448527136 0  0.1742197252835808 0.15715869474974 0  0.1682222986673531 0.1613971801805478 0  0.162910430003803 0.1664684656256651 0  0.1583987151779087 0.1722631454351573 0  0.1547844879126891 0.178656207771761 0  0.1521457199348551 0.1855097315605723 0  0.1505393388476355 0.1926758619366523 0  0.1505393388476328 0.2073241380633295 0  0.1521457199348437 0.2144902684393899 0  0.1547844879126531 0.221343792228163 0  0.1583987151778488 0.2277368545647528 0  0.1629104300036858 0.2335315343742052 0  0.1682222986671726 0.2386028198193036 0  0.1742197252833576 0.2428413052501257 0  0.1807733240458683 0.2461555514727623 0  0.1877417105384929 0.2484740584176516 0  0.1949745518995776 0.2497468076502398 0  0.202315810036185 0.2499463414463592 0  0.2096071079201568 0.2490683551528932 0  0.2166911463435495 0.2471317900544655 0  0.2234150974215506 0.2441784247426195 0  0.2296339016331197 0.2402719738031125 0  0.2352133972703547 0.2354967132658811 0  0.2400332147833751 0.2299556624715287 0  0.2439893735792577 0.2237683615780412 0  0.246996525252926 0.2170682926548348 0  0.25645809709277 0.21 0  0.2639263993298655 0.21 0  0.271394701566961 0.21 0  0.2788630038040554 0.21 0  0.2863313060411479 0.21 0  0.2937996082782405 0.21 0  0.301267910515333 0.21 0  0.3087362127524279 0.21 0  0.3162045149895234 0.21 0  0.3236728172265972 0.21 0  0.3311411194636928 0.21 0  0.3386094217007701 0.21 0  0.3460777239378666 0.21 0  0.3535460261749672 0.21 0  0.3610143284120516 0.21 0  0.3684826306491596 0.21 0  0.3759509328862226 0.21 0  0.383419235123329 0.21 0  0.3908875373604028 0.21 0  0.3983558395975142 0.21 0  0.4058241418345938 0.21 0  0.4132924440716992 0.21 0  0.4207607463087888 0.21 0  0.4282290485459029 0.21 0  0.4356973507830418 0.21 0  0.4431656530201649 0.21 0  0.4506339552573136 0.21 0  0.4581022574944306 0.21 0  0.4655705597315852 0.21 0  0.4730388619686996 0.21 0  0.480507164205851 0.21 0  0.4879754664429498 0.21 0  0.4954437686800938 0.21 0  0.502912070917267 0.21 0  0.5103803731544119 0.21 0  0.5178486753915261 0.21 0  0.5253169776286404 0.21 0  0.5327852798657868 0.21 0  0.5402535821029386 0.21 0  0.54772188434007 0.21 0  0.5551901865771842 0.21 0  0.5626584888143201 0.21 0  0.5701267910514778 0.21 0  0.5775950932886138 0.21 0  0.5850633955257281 0.21 0  0.5925316977628483 0.21 0  0.6 0.2050000000000054 0  0.6 0.1950000000000217 0  0.5925316977628897 0.19 0  0.5850633955257988 0.19 0  0.5775950932887378 0.19 0  0.5701267910515998 0.19 0  0.5626584888145268 0.19 0  0.5551901865773963 0.19 0  0.547721884340339 0.19 0  0.5402535821032429 0.19 0  0.5327852798661811 0.19 0  0.5253169776290537 0.19 0  0.5178486753919799 0.19 0  0.5103803731549078 0.19 0  0.502912070917822 0.19 0  0.4954437686807294 0.19 0  0.4879754664436223 0.19 0  0.4805071642065402 0.19 0  0.4730388619694271 0.19 0  0.4655705597323621 0.19 0  0.4581022574952563 0.19 0  0.4506339552581777 0.19 0  0.4431656530210671 0.19 0  0.4356973507839815 0.19 0  0.4282290485468779 0.19 0  0.4207607463097617 0.19 0  0.4132924440726327 0.19 0  0.4058241418354857 0.19 0  0.3983558395983636 0.19 0  0.3908875373612097 0.19 0  0.3834192351240934 0.19 0  0.3759509328869369 0.19 0  0.3684826306498175 0.19 0  0.361014328412667 0.19 0  0.3535460261755617 0.19 0  0.3460777239384295 0.19 0  0.3386094217012945 0.19 0  0.3311411194641595 0.19 0  0.3236728172270245 0.19 0  0.3162045149898895 0.19 0  0.3087362127527544 0.19 0  0.3012679105156187 0.19 0  0.2937996082784807 0.19 0  0.2863313060413428 0.19 0  0.2788630038042048 0.19 0  0.2713947015670686 0.19 0  0.2639263993299336 0.19 0  0.2564580970927985 0.19 0  0.2607803159922026 0.2000727136295815 0  0.5887803774232762 0.2001272386983733 0  0.5745072403740523 0.2002044435018727 0  0.5511891430099709 0.2001122610077113 0  0.2751288526855082 0.20000000000002 0  0.5365194309847112 0.1999999999999436 0  0.2894621222999649 0.1998691686390484 0  0.5215828265105155 0.1999999999999228 0  0.3127789816668748 0.1998657885438805 0  0.3274069683451451 0.2000000000000796 0  0.5066462220363641 0.199999999999908 0  0.3650630746574081 0.199866017807523 0  0.476773013087985 0.1999999999998713 0  0.3417402379596385 0.1998691686391011 0  0.3796850840047755 0.200000000000134 0  0.4618364086138087 0.1999999999998546 0  0.4917096175621762 0.1999999999998808 0  0.3946216884789568 0.2000000000001512 0  0.446899804139621 0.1999999999998389 0  0.4089549580935208 0.1998691686391595 0  0.4322718174608562 0.200127451265745 0  0.4201487168029707 0.1999966199048527 0  0.3528922713220932 0.2000185703532356 0  0.5633122436674589 0.1999814296467508 0  0.3006558810093873 0.1999966199048318 0  0.5815926498168407 0.1966545283159175 0  0.2677053789419034 0.1964246479135325 0  0.5290511287476175 0.1970915826863981 0  0.5439877332217911 0.197091582686394 0  0.2825131256993216 0.2035478995978015 0  0.3199386661080599 0.202908417313604 0  0.4842413153250809 0.1970915826863873 0  0.5141145242734466 0.1970915826863843 0  0.3722167817676917 0.2029084173136195 0  0.4693047108508938 0.1970915826863783 0  0.3348752705822316 0.202908417313609 0  0.3871533862418661 0.2029084173136212 0  0.4543681063767183 0.1970915826863795 0  0.4991779197992749 0.1970915826863902 0  0.4020059614928624 0.203547899597858 0  0.4394315019025246 0.1970915826863714 0  0.2550657455369551 0.2034088125358657 0  0.2548908499171161 0.1966940311614271 0  0.5946539510196798 0.2024302972968126 0  0.267698176732111 0.2039977513680092 0  0.4261685417851465 0.196409292431739 0  0.3590076176283495 0.196411355804271 0  0.5571672426447437 0.2036011176410121 0  0.3066757059912147 0.1964092924317024 0  0.594380730180568 0.1966558399668133 0  0.4842413153245942 0.2040749161535287 0  0.4693047108503577 0.2040749161535231 0  0.3871533862424271 0.1959250838464788 0  0.372246743208829 0.1959123236376545 0  0.5141145242731028 0.2040749161535395 0  0.4543681063761134 0.2040749161535186 0  0.4019979587101454 0.1959834479682427 0  0.4394608940728603 0.2040870543693135 0  0.5439623148931173 0.2040856076781014 0  0.5290511287473298 0.2040749161535501 0  0.4991779197988497 0.2040749161535382 0  0.3347912413592433 0.1959225448935183 0  0.3199680582793816 0.1959123018030061 0  0.2825051229162361 0.1959834479681729 0  0.3590471196690275 0.2036304442587945 0  0.5571594006495384 0.1963685282145804 0  0.3067669986803285 0.203627750582736 0  0.4262598344738712 0.2036568242185335 0  0.5814408164431408 0.2041285596160068 0  0.5688286748170428 0.1961819304477386 0  0.4145905603063645 0.2038180695522843 0  0.3473758401724931 0.2038180695522752 0  0.2950977245128307 0.2038180695522663 0  0.5688286748170693 0.203818069552238 0  0.2950977245127906 0.1961819304477774 0  0.3473758401723931 0.1961819304478349 0  0.4145905603061963 0.1961819304479011 0  0.2601812407614425 0.2056861609747042
[...]
<PointData  Vectors="f_46-0"> 
<DataArray  type="Float64"  Name="f_46-0"  NumberOfComponents="3" format="ascii">0.0000000000000000e+00 0.0000000000000000e+00 0.0000000000000000e+00  0.0000000000000000e+00 0.0000000000000000e+00 0.0000000000000000e+00  0.0000000000000000e+00 0.0000000000000000e+00 0.0000000000000000e+00  0.0000000000000000e+00 0.0000000000000000e+00 0.0000000000000000e+00  6.9266092773951387e-05 -3.6768215881306088e-04 0.0000000000000000e+00  9.7474810395280798e-05 -3.6662888744377832e-04 0.0000000000000000e+00  0.0000000000000000e+00 0.0000000000000000e+00 0.0000000000000000e+00  0.0000000000000000e+00 0.0000000000000000e+00 0.0000000000000000e+00  0.0000000000000000e+00 0.0000000000000000e+00 0.0000000000000000e+00  0.0000000000000000e+00 0.0000000000000000e+00 0.0000000000000000e+00  8.2867498833801893e-05 -3.6715704297209524e-04 0.0000000000000000e+00  5.0055600143121146e-02 0.0000000000000000e+00 0.0000000000000000e+00  9.2410338725768246e-02 0.0000000000000000e+00 0.0000000000000000e+00  1.2706421574793136e-01 0.0000000000000000e+00 0.0000000000000000e+00  1.5401723120965061e-01 0.0000000000000000e+00 0.0000000000000000e+00  1.7326938511092252e-01 0.0000000000000000e+00 0.0000000000000000e+00  1.8482067745174585e-01 0.0000000000000000e+00 0.0000000000000000e+00  1.8867110823210914e-01 0.0000000000000000e+00 0.0000000000000000e+00  1.8482067745197941e-01 0.0000000000000000e+00 0.0000000000000000e+00  1.7326938511132364e-01 0.0000000000000000e+00 0.0000000000000000e+00  1.5401723121014740e-01 0.0000000000000000e+00 0.0000000000000000e+00  1.2706421574840332e-01 0.0000000000000000e+00 0.0000000000000000e+00  9.2410338726170979e-02 0.0000000000000000e+00 0.0000000000000000e+00  5.0055600143348054e-02 0.0000000000000000e+00 0.0000000000000000e+00  0.0000000000000000e+00 0.0000000000000000e+00 0.0000000000000000e+00  0.0000000000000000e+00 0.0000000000000000e+00 0.0000000000000000e+00  0.0000000000000000e+00 0.0000000000000000e+00 0.0000000000000000e+00  0.0000000000000000e+00 0.0000000000000000e+00 0.0000000000000000e+00  0.0000000000000000e+00 0.0000000000000000e+00 0.0000000000000000e+00  0.0000000000000000e+00 0.0000000000000000e+00 0.0000000000000000e+00  0.0000000000000000e+00 0.0000000000000000e+00 0.0000000000000000e+00  0.0000000000000000e+00 0.0000000000000000e+00 0.0000000000000000e+00  0.0000000000000000e+00 0.0000000000000000e+00 0.0000000000000000e+00  0.0000000000000000e+00 0.0000000000000000e+00 0.0000000000000000e+00  0.0000000000000000e+00 0.0000000000000000e+00 0.0000000000000000e+00  0.0000000000000000e+00 0.0000000000000000e+00 0.0000000000000000e+00  0.0000000000000000e+00 0.0000000000000000e+00 0.0000000000000000e+00  0.0000000000000000e+00 0.0000000000000000e+00 0.0000000000000000e+00  0.0000000000000000e+00 0.0000000000000000e+00 0.0000000000000000e+00  0.0000000000000000e+00 0.0000000000000000e+00 0.0000000000000000e+00  0.0000000000000000e+00 0.0000000000000000e+00 0.0000000000000000e+00  0.0000000000000000e+00 0.0000000000000000e+00 0.0000000000000000e+00  0.0000000000000000e+00 0.0000000000000000e+00 0.0000000000000000e+00  0.0000000000000000e+00 0.0000000000000000e+00 0.0000000000000000e+00  0.0000000000000000e+00 0.0000000000000000e+00 0.0000000000000000e+00  0.0000000000000000e+00 0.0000000000000000e+00 0.0000000000000000e+00  0.0000000000000000e+00 0.0000000000000000e+00 0.0000000000000000e+00  0.0000000000000000e+00 0.0000000000000000e+00 0.0000000000000000e+00  0.0000000000000000e+00 0.0000000000000000e+00 0.0000000000000000e+00  0.0000000000000000e+00 0.0000000000000000e+00 0.0000000000000000e+00  0.0000000000000000e+00 0.0000000000000000e+00 0.0000000000000000e+00  0.0000000000000000e+00 0.0000000000000000e+00 0.0000000000000000e+00  0.0000000000000000e+00 0.0000000000000000e+00 0.0000000000000000e+00  0.0000000000000000e+00 0.0000000000000000e+00 0.0000000000000000e+00  0.0000000000000000e+00 0.0000000000000000e+00 0.0000000000000000e+00  0.0000000000000000e+00 0.0000000000000000e+00 0.0000000000000000e+00  0.0000000000000000e+00 0.0000000000000000e+00 0.0000000000000000e+00  0.0000000000000000e+00 0.0000000000000000e+00 0.0000000000000000e+00  0.0000000000000000e+00 0.0000000000000000e+00 0.0000000000000000e+00  0.0000000000000000e+00 0.0000000000000000e+00 0.0000000000000000e+00  0.0000000000000000e+00 0.0000000000000000e+00 0.0000000000000000e+00  0.0000000000000000e+00 0.0000000000000000e+00 0.0000000000000000e+00  1.7932050800548760e-01 1.8031945574511762e-02 0.0000000000000000e+00  1.3969371483847556e-01 1.4323513144456183e-03 0.0000000000000000e+00  1.8155208334870443e-01 -2.1321078377601534e-02 0.0000000000000000e+00  0.0000000000000000e+00 0.0000000000000000e+00 0.0000000000000000e+00  0.0000000000000000e+00 0.0000000000000000e+00 0.0000000000000000e+00  0.0000000000000000e+00 0.0000000000000000e+00 0.0000000000000000e+00  0.0000000000000000e+00 0.0000000000000000e+00 0.0000000000000000e+00  0.0000000000000000e+00 0.0000000000000000e+00 0.0000000000000000e+00  0.0000000000000000e+00 0.0000000000000000e+00 0.0000000000000000e+00  0.0000000000000000e+00 0.0000000000000000e+00 0.0000000000000000e+00  0.0000000000000000e+00 0.0000000000000000e+00 0.0000000000000000e+00  0.0000000000000000e+00 0.0000000000000000e+00 0.0000000000000000e+00  0.0000000000000000e+00 0.0000000000000000e+00 0.0000000000000000e+00  0.0000000000000000e+00 0.0000000000000000e+00 0.0000000000000000e+00  0.0000000000000000e+00 0.0000000000000000e+00 0.0000000000000000e+00  0.0000000000000000e+00 0.0000000000000000e+00 0.0000000000000000e+00  0.0000000000000000e+00 0.0000000000000000e+00 0.0000000000000000e+00  0.0000000000000000e+00 0.0000000000000000e+00 0.0000000000000000e+00  0.0000000000000000e+00 0.0000000000000000e+00 0.0000000000000000e+00  0.0000000000000000e+00 0.0000000000000000e+00 0.0000000000000000e+00  0.0000000000000000e+00 0.0000000000000000e+00 0.0000000000000000e+00  0.0000000000000000e+00 0.0000000000000000e+00 0.0000000000000000e+00  0.0000000000000000e+00 0.0000000000000000e+00 0.0000000000000000e+00  0.0000000000000000e+00 0.0000000000000000e+00 0.0000000000000000e+00  0.0000000000000000e+00 0.0000000000000000e+00 0.0000000000000000e+00  0.0000000000000000e+00 0.0000000000000000e+00 0.0000000000000000e+00  0.0000000000000000e+00 0.0000000000000000e+00 0.0000000000000000e+00  0.0000000000000000e+00 0.0000000000000000e+00 0.0000000000000000e+00  0.0000000000000000e+00 0.0000000000000000e+00 0.0000000000000000e+00  0.0000000000000000e+00 0.0000000000000000e+00 0.0000000000000000e+00  0.0000000000000000e+00 0.0000000000000000e+00 0.0000000000000000e+00  0.0000000000000000e+00 0.0000000000000000e+00 0.0000000000000000e+00  0.0000000000000000e+00 0.0000000000000000e+00 0.0000000000000000e+00  0.0000000000000000e+00 0.0000000000000000e+00 0.0000000000000000e+00  0.0000000000000000e+00 0.0000000000000000e+00 0.0000000000000000e+00  0.0000000000000000e+00 0.0000000000000000e+00 0.0000000000000000e+00  0.0000000000000000e+00 0.0000000000000000e+00 0.0000000000000000e+00  0.0000000000000000e+00 0.0000000000000000e+00 0.0000000000000000e+00  0.0000000000000000e+00 0.0000000000000000e+00 0.0000000000000000e+00  0.0000000000000000e+00 0.0000000000000000e+00 0.0000000000000000e+00  0.0000000000000000e+00 0.0000000000000000e+00 0.0000000000000000e+00  0.0000000000000000e+00 0.0000000000000000e+00 0.0000000000000000e+00  0.0000000000000000e+00 0.0000000000000000e+00 0.0000000000000000e+00  -2.2967638442853435e-16 0.0000000000000000e+00 0.0000000000000000e+00  0.0000000000000000e+00 0.0000000000000000e+00 0.0000000000000000e+00  0.0000000000000000e+00 0.0000000000000000e+00 0.0000000000000000e+00  0.0000000000000000e+00 0.0000000000000000e+00 0.0000000000000000e+00  0.0000000000000000e+00 0.0000000000000000e+00 0.0000000000000000e+00  2.9350864222792650e-17 0.0000000000000000e+00 0.0000000000000000e+00  0.0000000000000000e+00 0.0000000000000000e+00 0.0000000000000000e+00  0.0000000000000000e+00 0.0000000000000000e+00 0.0000000000000000e+00  0.0000000000000000e+00 0.0000000000000000e+00 0.0000000000000000e+00  0.0000000000000000e+00 0.0000000000000000e+00 0.0000000000000000e+00  0.0000000000000000e+00 0.0000000000000000e+00 0.0000000000000000e+00  0.0000000000000000e+00 0.0000000000000000e+00 0.0000000000000000e+00  0.0000000000000000e+00 0.0000000000000000e+00 0.0000000000000000e+00  0.0000000000000000e+00 0.0000000000000000e+00 0.0000000000000000e+00  0.0000000000000000e+00 0.0000000000000000e+00 0.0000000000000000e+00  0.0000000000000000e+00 0.0000000000000000e+00 0.0000000000000000e+00  0.0000000000000000e+00 0.0000000000000000e+00 0.0000000000000000e+00  0.0000000000000000e+00 0.0000000000000000e+00 0.0000000000000000e+00  0.0000000000000000e+00 0.0000000000000000e+00 0.0000000000000000e+00  0.0000000000000000e+00 0.0000000000000000e+00 0.0000000000000000e+00  0.0000000000000000e+00 0.0000000000000000e+00 0.0000000000000000e+00  0.0000000000000000e+00 0.0000000000000000e+00 0.0000000000000000e+00  0.0000000000000000e+00 0.0000000000000000e+00 0.0000000000000000e+00  0.0000000000000000e+00 0.0000000000000000e+00 0.0000000000000000e+00  0.0000000000000000e+00 0.0000000000000000e+00 0.0000000000000000e+00  0.0000000000000000e+00 0.0000000000000000e+00 0.0000000000000000e+00  0.0000000000000000e+00 0.0000000000000000e+00 0.0000000000000000e+00  0.0000000000000000e+00 0.0000000000000000e+00 0.0000000000000000e+00  0.0000000000000000e+00 0.0000000000000000e+00 0.0000000000000000e+00  0.0000000000000000e+00 0.0000000000000000e+00 0.0000000000000000e+00  0.0000000000000000e+00 0.0000000000000000e+00 0.0000000000000000e+00  0.0000000000000000e+00 0.0000000000000000e+00 0.0000000000000000e+00  0.0000000000000000e+00 0.0000000000000000e+00 0.0000000000000000e+00  0.0000000000000000e+00 0.0000000000000000e+00 0.0000000000000000e+00  0.0000000000000000e+00 0.0000000000000000e+00 0.0000000000000000e+00  0.0000000000000000e+00 0.0000000000000000e+00 0.0000000000000000e+00  0.0000000000000000e+00 0.0000000000000000e+00 0.0000000000000000e+00  -1.0498826946685900e-16 0.0000000000000000e+00 0.0000000000000000e+00  2.8784450621900704e-06 -9.8211212213348564e-07 0.0000000000000000e+00  5.9859252486812159e-06 -1.8695394047049911e-06 0.0000000000000000e+00  9.0980502084731348e-06 -3.2978356480653221e-06 0.0000000000000000e+00  1.2314516882145471e-05 -5.3103533578088166e-06 0.0000000000000000e+00  1.5407991324810922e-05 -7.8293492214814691e-06 0.0000000000000000e+00  1.8608282385145590e-05 -1.0907472295873759e-05 0.0000000000000000e+00  2.1644120205034116e-05 -1.4396215053049606e-05 0.0000000000000000e+00  2.4645866267259157e-05 -1.8437079397070288e-05 0.0000000000000000e+00  2.7727121642817432e-05 -2.2906489494160043e-05 0.0000000000000000e+00  3.0595449289304783e-05 -2.7803950553903979e-05 0.0000000000000000e+00  3.3558298901048863e-05 -3.3167693000830382e-05 0.0000000000000000e+00  3.6309864005911813e-05 -3.8911613364779913e-05 0.0000000000000000e+00  3.9112900257789195e-05 -4.5069476975654575e-05 0.0000000000000000e+00  4.1755580054970645e-05 -5.1545809597453105e-05 0.0000000000000000e+00  4.4340971687414428e-05 -5.8415158510047070e-05 0.0000000000000000e+00  4.6954277848169221e-05 -6.5592698803623167e-05 0.0000000000000000e+00  4.9393013272553303e-05 -7.3055192374311208e-05 0.0000000000000000e+00  5.1866959589128177e-05 -8.0846812398750815e-05 0.0000000000000000e+00  5.4178813820706654e-05 -8.8870949046549730e-05 0.0000000000000000e+00  5.6511557444231788e-05 -9.7175879847922184e-05 0.0000000000000000e+00  5.8716813462773485e-05 -1.0568900804621887e-04 0.0000000000000000e+00  6.0905388924798949e-05 -1.1445043920327629e-04 0.0000000000000000e+00  6.2990642903562409e-05 -1.2337698704961242e-04 0.0000000000000000e+00  6.5022664448804912e-05 -1.3251581241419450e-04 0.0000000000000000e+00  6.7044775239520748e-05 -1.4180844339853286e-04 0.0000000000000000e+00  6.8968953244539450e-05 -1.5125211933063727e-04 0.0000000000000000e+00  7.0848335443683474e-05 -1.6086867079410168e-04 0.0000000000000000e+00  7.2657695688274856e-05 -1.7057835686328597e-04 0.0000000000000000e+00  7.4421480957207543e-05 -1.8043820394393319e-04 0.0000000000000000e+00  7.6119773791278401e-05 -1.9036562172065311e-04 0.0000000000000000e+00  7.7772360031119392e-05 -2.0041772924271134e-04 0.0000000000000000e+00  7.9363006379739394e-05 -2.1051251231620798e-04 0.0000000000000000e+00  8.0906819101432027e-05 -2.2070923118551878e-04 0.0000000000000000e+00  8.2392081008696950e-05 -2.3093072905310542e-04 0.0000000000000000e+00  8.3830397277561328e-05 -2.4123633938023684e-04 0.0000000000000000e+00  8.5213514468678107e-05 -2.5154891816561541e-04 0.0000000000000000e+00  8.6550013119491621e-05 -2.6192868641840836e-04 0.0000000000000000e+00  8.7834041988638044e-05 -2.7230328917461573e-04 0.0000000000000000e+00  8.9071366389997526e-05 -2.8273316936118081e-04 0.0000000000000000e+00  9.0256004506101897e-05 -2.9314606623306725e-04 0.0000000000000000e+00  9.1386247616803833e-05 -3.0359350942498338e-04 0.0000000000000000e+00  9.2474346922448203e-05 -3.1403669019581219e-04 0.0000000000000000e+00  9.3513005718641283e-05 -3.2449217891643246e-04 0.0000000000000000e+00  9.4521877671139269e-05 -3.3494921123180925e-04 0.0000000000000000e+00  9.5470025275319332e-05 -3.4538747548566273e-04 0.0000000000000000e+00  9.6420964288106153e-05 -3.5588384904293024e-04 0.0000000000000000e+00  9.0005746743044315e-05 -3.6688304910925852e-04 0.0000000000000000e+00  7.5917497626292940e-05 -3.6743634425252927e-04 0.0000000000000000e+00  6.8231260603117622e-05 -3.5737806307743655e-04 0.0000000000000000e+00  6.7310050725814490e-05 -3.4682432422834732e-04 0.0000000000000000e+00  6.6381647058187819e-05 -3.3624151712439992e-04 0.0000000000000000e+00  6.5399432437360987e-05 -3.2569336275309660e-04 0.0000000000000000e+00  6.4385883224165260e-05 -3.1515227869308675e-04 0.0000000000000000e+00  6.3324785211309715e-05 -3.0462198567927836e-04 0.0000000000000000e+00  6.2232318848315246e-05 -2.9411241965639391e-04 0.0000000000000000e+00  6.1088962608765209e-05 -2.8359517069286071e-04 0.0000000000000000e+00  5.9914219669349696e-05 -2.7312853058476577e-04 0.0000000000000000e+00  5.8695711163518936e-05 -2.6265212419648761e-04 0.0000000000000000e+00  5.7454573958443411e-05 -2.5223628429904663e-04 0.0000000000000000e+00  5.6168979737869489e-05 -2.4182205360042839e-04 0.0000000000000000e+00  5.4866866090917937e-05 -2.3148140685348581e-04 0.0000000000000000e+00  5.3518359628995364e-05 -2.2116114761481218e-04 0.0000000000000000e+00  5.2163006652879590e-05 -2.1093006609889542e-04 0.0000000000000000e+00  5.0756604234048124e-05 -2.0073804344290490e-04 0.0000000000000000e+00  4.9353872852028523e-05 -1.9065407649852643e-04 0.0000000000000000e+00  4.7895319693965461e-05 -1.8063000239665306e-04 0.0000000000000000e+00  4.6449417998571135e-05 -1.7073709319066747e-04 0.0000000000000000e+00  4.4941192974857592e-05 -1.6093196204974307e-04 0.0000000000000000e+00  4.3457621957882949e-05 -1.5128436281467355e-04 0.0000000000000000e+00  4.1903321787035245e-05 -1.4175329847567538e-04 0.0000000000000000e+00  4.0374978232032952e-05 -1.3240059252174474e-04 0.0000000000000000e+00  3.8787844768283137e-05 -1.2319425183050380e-04 0.0000000000000000e+00  3.7177418328730658e-05 -1.1420747255375345e-04 0.0000000000000000e+00  3.5603676613000672e-05 -1.0538349990257042e-04 0.0000000000000000e+00  3.3967358928758536e-05 -9.6787652810528420e-05 0.0000000000000000e+00  3.2341404935295155e-05 -8.8437753072931834e-05 0.0000000000000000e+00  3.0671600407708453e-05 -8.0324240259660039e-05 0.0000000000000000e+00  2.9012201533064691e-05 -7.2497127004738954e-05 0.0000000000000000e+00  2.7307410266147987e-05 -6.4928459235944925e-05 0.0000000000000000e+00  2.5643170720802514e-05 -5.7718388738086994e-05 0.0000000000000000e+00  2.3893882038988502e-05 -5.0773601318631637e-05 0.0000000000000000e+00  2.2126238027263130e-05 -4.4240592967709890e-05 0.0000000000000000e+00  2.0436833812912384e-05 -3.8002314659265589e-05 0.0000000000000000e+00  1.8671969278600143e-05 -3.2188342659516881e-05 0.0000000000000000e+00  1.6934585523465712e-05 -2.6793779393158999e-05 0.0000000000000000e+00  1.5145726441659525e-05 -2.1806404788157303e-05 0.0000000000000000e+00  1.3429959829284833e-05 -1.7332517130257676e-05 0.0000000000000000e+00  1.1609302230940355e-05 -1.3253983637846264e-05 0.0000000000000000e+00  9.7845867121408001e-06 -9.7558222392213989e-06 0.0000000000000000e+00  8.0905034182148637e-06 -6.6801869901567041e-06 0.0000000000000000e+00  6.3281291950868435e-06 -4.1822759439497385e-06 0.0000000000000000e+00  4.6861657342302368e-06 -2.2421590444511348e-06 0.0000000000000000e+00  2.9856793094533048e-06 -8.7485337449818575e-07 0.0000000000000000e+00  1.4826822363836021e-06 -9.3895755104242062e-08 0.0000000000000000e+00  3.4075408678879680e-06 -5.5343901117353791e-07 0.0000000000000000e+00  8.1836948444365479e-05 -3.5132649319229853e-04 0.0000000000000000e+00  8.0244827655042754e-05 -3.3123106879430752e-04 0.0000000000000000e+00  7.6839036659291665e-05 -2.9847742155517397e-04 0.0000000000000000e+00  8.0731031365327958e-06 -3.3288838268588990e-06 0.0000000000000000e+00  7.4387659298146084e-05 -2.7792277720042885e-04 0.0000000000000000e+00  1.2691927242316131e-05 -8.1219247349771002e-06 0.0000000000000000e+00  7.1890671370451411e-05 -2.5706562722134686e-04 0.0000000000000000e+00  2.0190835779352330e-05 -1.9936745659501708e-05 0.0000000000000000e+00  2.4866731640976969e-05 -2.9665442984175788e-05 0.0000000000000000e+00  6.9227591070555015e-05 -2.3633079236457576e-04 0.0000000000000000e+00  3.5948118402719380e-05 -6.1711499696995051e-05 0.0000000000000000e+00  6.3415027835518180e-05 -1.9547654878874062e-04 0.0000000000000000e+00  2.9146734298265410e-05 -4.0743226330001838e-05 0.0000000000000000e+00  4.0154437388388937e-05 -7.6464105236628580e-05 0.0000000000000000e+00  6.0270526234559614e-05 -1.7551048823216060e-04 0.0000000000000000e+00  6.6401458744070241e-05 -2.1577745876260088e-04 0.0000000000000000e+00  4.4170114773293651e-05 -9.2626688467058066e-05 0.0000000000000000e+00  5.6967570934995318e-05 -1.5597915936892671e-04 0.0000000000000000e+00  4.7726382491868687e-05 -1.0904895881238653e-04 0.0000000000000000e+00  5.3746821781671334e-05 -1.3737566200038723e-04 0.0000000000000000e+00  5.0642509307424489e-05 -1.2245301449916607e-04 0.0000000000000000e+00  3.2559031890244227e-05 -5.0407836314649166e-05 0.0000000000000000e+00  7.8390428440521870e-05 -3.1550879775752751e-04 0.0000000000000000e+00  1.6361656093242721e-05 -1.3283214291594157e-05 0.0000000000000000e+00  7.6130858705539094e-05 -3.4145576653335345e-04 0.0000000000000000e+00  4.9936244141903967e-06 -1.5069038424414745e-06 0.0000000000000000e+00  6.9108777605155468e-05 -2.6759741429296382e-04 0.0000000000000000e+00  7.1505820777283745e-05 -2.8851687638010640e-04 0.0000000000000000e+00  1.1645624824961981e-05 -5.8165081244295274e-06 0.0000000000000000e+00  2.4450639834084168e-05 -2.4681067683869282e-05 0.0000000000000000e+00  6.0990636280129344e-05 -2.0565157675836240e-04 0.0000000000000000e+00  6.6554357795023996e-05 -2.4677604323551449e-04 0.0000000000000000e+00  4.1004901092744335e-05 -6.8902765946337306e-05 0.0000000000000000e+00  5.7992526345013171e-05 -1.8548970127122287e-04 0.0000000000000000e+00  2.9395169200627124e-05 -3.5431178122793357e-05 0.0000000000000000e+00  4.5309642961918274e-05 -8.4510063341793035e-05 0.0000000000000000e+00  5.4854597138271352e-05 -1.6571091404983898e-04 0.0000000000000000e+00  6.3846378974523948e-05 -2.2610518790324420e-04 0.0000000000000000e+00  5.0144005969899488e-05 -1.0107346682790682e-04 0.0000000000000000e+00  5.1578307127477726e-05 -1.4642156972056376e-04 0.0000000000000000e+00  1.6996871508192238e-06 -2.3822050108893683e-07 0.0000000000000000e+00  1.4106001102816292e-06 3.1042189753417197e-08 0.0000000000000000e+00  8.5723880560161807e-05 -3.5943383261244415e-04 0.0000000000000000e+00  6.4110409224319285e-06 -1.9133844099785296e-06 0.0000000000000000e+00  4.77