<?xml version="1.0"?>
<VTKFile type="UnstructuredGrid"  version="0.1"  >
<UnstructuredGrid>
<Piece  NumberOfPoints="1419" NumberOfCells="2698">
<Points>
<DataArray  type="Float64"  NumberOfComponents="3"  format="ascii">0 0 0  0 0.41 0  2.5 0 0  2.5 0.41 0  0.6 0.19 0  0.6 0.21 0  0.25 0.2 0  0.15 0.2 0  0.2489897948556636 0.21 0  0.2489897948556636 0.19 0  0.6 0.2 0  0 0.3807142857143437 0  0 0.3514285714286952 0  0 0.3221428571430699 0  0 0.29285714285744 0  0 0.2635714285718054 0  0 0.2342857142861561 0  0 0.2050000000005308 0  0 0.175714285714732 0  0 0.1464285714289574 0  0 0.1171428571431897 0  0 0.08785714285737878 0  0 0.05857142857161107 0  0 0.02928571428580012 0  0.03015443760436003 0 0  0.06140001986583606 0 0  0.09377624077125973 0 0  0.1273239957535082 0 0  0.1620856860351972 0 0  0.1981052433264291 0 0  0.235428184091502 0 0  0.2741016576309132 0 0  0.3141745521465447 0 0  0.3556974926295285 0 0  0.3987229542472677 0 0  0.4433053055141081 0 0  0.4895008759286886 0 0  0.5373680609405097 0 0  0.5869673343216626 0 0  0.6383613676634521 0 0  0.6916151138468254 0 0  0.7467958595648856 0 0  0.8039733463919316 0 0  0.8632198139502143 0 0  0.9246101326867038 0 0  0.9882218810934433 0 0  1.054135445558498 0 0  1.122434100542598 0 0  1.193204177141305 0 0  1.266535089879536 0 0  1.342519516046404 0 0  1.421253448503939 0 0  1.502836389106271 0 0  1.587371439758838 0 0  1.674965418777374 0 0  1.765729001825544 0 0  1.859776908880082 0 0  1.957227977487062 0 0  2.058205329869943 0 0  2.162836591189951 0 0  2.271253957290865 0 0  2.383594446803425 0 0  2.5 0.1024999999997612 0  2.5 0.2049999999994743 0  2.5 0.3074999999997183 0  2.383594446803656 0.41 0  2.271253957291315 0.41 0  2.162836591190598 0.41 0  2.058205329870775 0.41 0  1.957227977488067 0.41 0  1.859776908881246 0.41 0  1.765729001826854 0.41 0  1.674965418778818 0.41 0  1.58737143976041 0.41 0  1.502836389107956 0.41 0  1.421253448505726 0.41 0  1.342519516048286 0.41 0  1.266535089881505 0.41 0  1.193204177143353 0.41 0  1.122434100544716 0.41 0  1.05413544556068 0.41 0  0.9882218810956305 0.41 0  0.9246101326886647 0.41 0  0.8632198139519631 0.41 0  0.8039733463934788 0.41 0  0.7467958595662458 0.41 0  0.6916151138480078 0.41 0  0.6383613676644679 0.41 0  0.5869673343225223 0.41 0  0.5373680609412221 0.41 0  0.4895008759292634 0.41 0  0.4433053055145528 0.41 0  0.3987229542475914 0.41 0  0.3556974926297398 0.41 0  0.3141745521466497 0.41 0  0.2741016576310038 0.41 0  0.2354281840915826 0.41 0  0.1981052433265003 0.41 0  0.1620856860352591 0.41 0  0.1273239957535623 0.41 0  0.09377624077128965 0.41 0  0.06140001986584975 0.41 0  0.03015443760436654 0.41 0  0.2497468076502589 0.2050254481002335 0  0.2497468076502614 0.1949745518997913 0  0.2469965252529372 0.1829317073451959 0  0.2439893735792749 0.1762316384219906 0  0.2400332147834255 0.1700443375285386 0  0.2352133972704371 0.1645032867342007 0  0.2296339016332438 0.1597280261969788 0  0.2234150974217223 0.1558215752574715 0  0.2166911463437691 0.1528682099456123 0  0.2096071079204251 0.1509316448471593 0  0.2023158100364996 0.1500536585536553 0  0.194974551899914 0.1502531923497262 0  0.1877417105387872 0.1515259415822739 0  0.1807733240461124 0.153844448527136 0  0.1742197252835808 0.15715869474974 0  0.1682222986673531 0.1613971801805478 0  0.162910430003803 0.1664684656256651 0  0.1583987151779087 0.1722631454351573 0  0.1547844879126891 0.178656207771761 0  0.1521457199348551 0.1855097315605723 0  0.1505393388476355 0.1926758619366523 0  0.1505393388476328 0.2073241380633295 0  0.1521457199348437 0.2144902684393899 0  0.1547844879126531 0.221343792228163 0  0.1583987151778488 0.2277368545647528 0  0.1629104300036858 0.2335315343742052 0  0.1682222986671726 0.2386028198193036 0  0.1742197252833576 0.2428413052501257 0  0.1807733240458683 0.2461555514727623 0  0.1877417105384929 0.2484740584176516 0  0.1949745518995776 0.2497468076502398 0  0.202315810036185 0.2499463414463592 0  0.2096071079201568 0.2490683551528932 0  0.2166911463435495 0.2471317900544655 0  0.2234150974215506 0.2441784247426195 0  0.2296339016331197 0.2402719738031125 0  0.2352133972703547 0.2354967132658811 0  0.2400332147833751 0.2299556624715287 0  0.2439893735792577 0.2237683615780412 0  0.246996525252926 0.2170682926548348 0  0.25645809709277 0.21 0  0.2639263993298655 0.21 0  0.271394701566961 0.21 0  0.2788630038040554 0.21 0  0.2863313060411479 0.21 0  0.2937996082782405 0.21 0  0.301267910515333 0.21 0  0.3087362127524279 0.21 0  0.3162045149895234 0.21 0  0.3236728172265972 0.21 0  0.3311411194636928 0.21 0  0.3386094217007701 0.21 0  0.3460777239378666 0.21 0  0.3535460261749672 0.21 0  0.3610143284120516 0.21 0  0.3684826306491596 0.21 0  0.3759509328862226 0.21 0  0.383419235123329 0.21 0  0.3908875373604028 0.21 0  0.3983558395975142 0.21 0  0.4058241418345938 0.21 0  0.4132924440716992 0.21 0  0.4207607463087888 0.21 0  0.4282290485459029 0.21 0  0.4356973507830418 0.21 0  0.4431656530201649 0.21 0  0.4506339552573136 0.21 0  0.4581022574944306 0.21 0  0.4655705597315852 0.21 0  0.4730388619686996 0.21 0  0.480507164205851 0.21 0  0.4879754664429498 0.21 0  0.4954437686800938 0.21 0  0.502912070917267 0.21 0  0.5103803731544119 0.21 0  0.5178486753915261 0.21 0  0.5253169776286404 0.21 0  0.5327852798657868 0.21 0  0.5402535821029386 0.21 0  0.54772188434007 0.21 0  0.5551901865771842 0.21 0  0.5626584888143201 0.21 0  0.5701267910514778 0.21 0  0.5775950932886138 0.21 0  0.5850633955257281 0.21 0  0.5925316977628483 0.21 0  0.6 0.2050000000000054 0  0.6 0.1950000000000217 0  0.5925316977628897 0.19 0  0.5850633955257988 0.19 0  0.5775950932887378 0.19 0  0.5701267910515998 0.19 0  0.5626584888145268 0.19 0  0.5551901865773963 0.19 0  0.547721884340339 0.19 0  0.5402535821032429 0.19 0  0.5327852798661811 0.19 0  0.5253169776290537 0.19 0  0.5178486753919799 0.19 0  0.5103803731549078 0.19 0  0.502912070917822 0.19 0  0.4954437686807294 0.19 0  0.4879754664436223 0.19 0  0.4805071642065402 0.19 0  0.4730388619694271 0.19 0  0.4655705597323621 0.19 0  0.4581022574952563 0.19 0  0.4506339552581777 0.19 0  0.4431656530210671 0.19 0  0.4356973507839815 0.19 0  0.4282290485468779 0.19 0  0.4207607463097617 0.19 0  0.4132924440726327 0.19 0  0.4058241418354857 0.19 0  0.3983558395983636 0.19 0  0.3908875373612097 0.19 0  0.3834192351240934 0.19 0  0.3759509328869369 0.19 0  0.3684826306498175 0.19 0  0.361014328412667 0.19 0  0.3535460261755617 0.19 0  0.3460777239384295 0.19 0  0.3386094217012945 0.19 0  0.3311411194641595 0.19 0  0.3236728172270245 0.19 0  0.3162045149898895 0.19 0  0.3087362127527544 0.19 0  0.3012679105156187 0.19 0  0.2937996082784807 0.19 0  0.2863313060413428 0.19 0  0.2788630038042048 0.19 0  0.2713947015670686 0.19 0  0.2639263993299336 0.19 0  0.2564580970927985 0.19 0  0.2607803159922026 0.2000727136295815 0  0.5887803774232762 0.2001272386983733 0  0.5745072403740523 0.2002044435018727 0  0.5511891430099709 0.2001122610077113 0  0.2751288526855082 0.20000000000002 0  0.5365194309847112 0.1999999999999436 0  0.2894621222999649 0.1998691686390484 0  0.5215828265105155 0.1999999999999228 0  0.3127789816668748 0.1998657885438805 0  0.3274069683451451 0.2000000000000796 0  0.5066462220363641 0.199999999999908 0  0.3650630746574081 0.199866017807523 0  0.476773013087985 0.1999999999998713 0  0.3417402379596385 0.1998691686391011 0  0.3796850840047755 0.200000000000134 0  0.4618364086138087 0.1999999999998546 0  0.4917096175621762 0.1999999999998808 0  0.3946216884789568 0.2000000000001512 0  0.446899804139621 0.1999999999998389 0  0.4089549580935208 0.1998691686391595 0  0.4322718174608562 0.200127451265745 0  0.4201487168029707 0.1999966199048527 0  0.3528922713220932 0.2000185703532356 0  0.5633122436674589 0.1999814296467508 0  0.3006558810093873 0.1999966199048318 0  0.5815926498168407 0.1966545283159175 0  0.2677053789419034 0.1964246479135325 0  0.5290511287476175 0.1970915826863981 0  0.5439877332217911 0.197091582686394 0  0.2825131256993216 0.2035478995978015 0  0.3199386661080599 0.202908417313604 0  0.4842413153250809 0.1970915826863873 0  0.5141145242734466 0.1970915826863843 0  0.3722167817676917 0.2029084173136195 0  0.4693047108508938 0.1970915826863783 0  0.3348752705822316 0.202908417313609 0  0.3871533862418661 0.2029084173136212 0  0.4543681063767183 0.1970915826863795 0  0.4991779197992749 0.1970915826863902 0  0.4020059614928624 0.203547899597858 0  0.4394315019025246 0.1970915826863714 0  0.2550657455369551 0.2034088125358657 0  0.2548908499171161 0.1966940311614271 0  0.5946539510196798 0.2024302972968126 0  0.267698176732111 0.2039977513680092 0  0.4261685417851465 0.196409292431739 0  0.3590076176283495 0.196411355804271 0  0.5571672426447437 0.2036011176410121 0  0.3066757059912147 0.1964092924317024 0  0.594380730180568 0.1966558399668133 0  0.4842413153245942 0.2040749161535287 0  0.4693047108503577 0.2040749161535231 0  0.3871533862424271 0.1959250838464788 0  0.372246743208829 0.1959123236376545 0  0.5141145242731028 0.2040749161535395 0  0.4543681063761134 0.2040749161535186 0  0.4019979587101454 0.1959834479682427 0  0.4394608940728603 0.2040870543693135 0  0.5439623148931173 0.2040856076781014 0  0.5290511287473298 0.2040749161535501 0  0.4991779197988497 0.2040749161535382 0  0.3347912413592433 0.1959225448935183 0  0.3199680582793816 0.1959123018030061 0  0.2825051229162361 0.1959834479681729 0  0.3590471196690275 0.2036304442587945 0  0.5571594006495384 0.1963685282145804 0  0.3067669986803285 0.203627750582736 0  0.4262598344738712 0.2036568242185335 0  0.5814408164431408 0.2041285596160068 0  0.5688286748170428 0.1961819304477386 0  0.4145905603063645 0.2038180695522843 0  0.3473758401724931 0.2038180695522752 0  0.2950977245128307 0.2038180695522663 0  0.5688286748170693 0.203818069552238 0  0.2950977245127906 0.1961819304477774 0  0.3473758401723931 0.1961819304478349 0  0.4145905603061963 0.1961819304479011 0  0.2601812407614425 0.2056861609747042
[...]
<PointData  Vectors="f_46-0"> 
<DataArray  type="Float64"  Name="f_46-0"  NumberOfComponents="3" format="ascii">0.0000000000000000e+00 0.0000000000000000e+00 0.0000000000000000e+00  0.0000000000000000e+00 0.0000000000000000e+00 0.0000000000000000e+00  0.0000000000000000e+00 0.0000000000000000e+00 0.0000000000000000e+00  0.0000000000000000e+00 0.0000000000000000e+00 0.0000000000000000e+00  4.2913518957321364e-05 -4.4425758899398709e-04 0.0000000000000000e+00  7.7824216422511753e-05 -4.3493087309313705e-04 0.0000000000000000e+00  0.0000000000000000e+00 0.0000000000000000e+00 0.0000000000000000e+00  0.0000000000000000e+00 0.0000000000000000e+00 0.0000000000000000e+00  0.0000000000000000e+00 0.0000000000000000e+00 0.0000000000000000e+00  0.0000000000000000e+00 0.0000000000000000e+00 0.0000000000000000e+00  6.0765120901077004e-05 -4.3958904385059660e-04 0.0000000000000000e+00  7.9528224953171009e-02 0.0000000000000000e+00 0.0000000000000000e+00  1.4682133837509470e-01 0.0000000000000000e+00 0.0000000000000000e+00  2.0187934026575524e-01 0.0000000000000000e+00 0.0000000000000000e+00  2.4470223062521637e-01 0.0000000000000000e+00 0.0000000000000000e+00  2.7529000945347259e-01 0.0000000000000000e+00 0.0000000000000000e+00  2.9364267675052202e-01 0.0000000000000000e+00 0.0000000000000000e+00  2.9976023251634631e-01 0.0000000000000000e+00 0.0000000000000000e+00  2.9364267675089306e-01 0.0000000000000000e+00 0.0000000000000000e+00  2.7529000945410992e-01 0.0000000000000000e+00 0.0000000000000000e+00  2.4470223062600566e-01 0.0000000000000000e+00 0.0000000000000000e+00  2.0187934026650506e-01 0.0000000000000000e+00 0.0000000000000000e+00  1.4682133837573455e-01 0.0000000000000000e+00 0.0000000000000000e+00  7.9528224953531540e-02 0.0000000000000000e+00 0.0000000000000000e+00  0.0000000000000000e+00 0.0000000000000000e+00 0.0000000000000000e+00  0.0000000000000000e+00 0.0000000000000000e+00 0.0000000000000000e+00  0.0000000000000000e+00 0.0000000000000000e+00 0.0000000000000000e+00  0.0000000000000000e+00 0.0000000000000000e+00 0.0000000000000000e+00  0.0000000000000000e+00 0.0000000000000000e+00 0.0000000000000000e+00  0.0000000000000000e+00 0.0000000000000000e+00 0.0000000000000000e+00  0.0000000000000000e+00 0.0000000000000000e+00 0.0000000000000000e+00  0.0000000000000000e+00 0.0000000000000000e+00 0.0000000000000000e+00  0.0000000000000000e+00 0.0000000000000000e+00 0.0000000000000000e+00  0.0000000000000000e+00 0.0000000000000000e+00 0.0000000000000000e+00  0.0000000000000000e+00 0.0000000000000000e+00 0.0000000000000000e+00  0.0000000000000000e+00 0.0000000000000000e+00 0.0000000000000000e+00  0.0000000000000000e+00 0.0000000000000000e+00 0.0000000000000000e+00  0.0000000000000000e+00 0.0000000000000000e+00 0.0000000000000000e+00  0.0000000000000000e+00 0.0000000000000000e+00 0.0000000000000000e+00  0.0000000000000000e+00 0.0000000000000000e+00 0.0000000000000000e+00  0.0000000000000000e+00 0.0000000000000000e+00 0.0000000000000000e+00  0.0000000000000000e+00 0.0000000000000000e+00 0.0000000000000000e+00  0.0000000000000000e+00 0.0000000000000000e+00 0.0000000000000000e+00  0.0000000000000000e+00 0.0000000000000000e+00 0.0000000000000000e+00  0.0000000000000000e+00 0.0000000000000000e+00 0.0000000000000000e+00  0.0000000000000000e+00 0.0000000000000000e+00 0.0000000000000000e+00  0.0000000000000000e+00 0.0000000000000000e+00 0.0000000000000000e+00  0.0000000000000000e+00 0.0000000000000000e+00 0.0000000000000000e+00  0.0000000000000000e+00 0.0000000000000000e+00 0.0000000000000000e+00  0.0000000000000000e+00 0.0000000000000000e+00 0.0000000000000000e+00  0.0000000000000000e+00 0.0000000000000000e+00 0.0000000000000000e+00  0.0000000000000000e+00 0.0000000000000000e+00 0.0000000000000000e+00  0.0000000000000000e+00 0.0000000000000000e+00 0.0000000000000000e+00  0.0000000000000000e+00 0.0000000000000000e+00 0.0000000000000000e+00  0.0000000000000000e+00 0.0000000000000000e+00 0.0000000000000000e+00  0.0000000000000000e+00 0.0000000000000000e+00 0.0000000000000000e+00  0.0000000000000000e+00 0.0000000000000000e+00 0.0000000000000000e+00  0.0000000000000000e+00 0.0000000000000000e+00 0.0000000000000000e+00  0.0000000000000000e+00 0.0000000000000000e+00 0.0000000000000000e+00  0.0000000000000000e+00 0.0000000000000000e+00 0.0000000000000000e+00  0.0000000000000000e+00 0.0000000000000000e+00 0.0000000000000000e+00  0.0000000000000000e+00 0.0000000000000000e+00 0.0000000000000000e+00  2.7474771753482352e-01 1.2342775744758524e-02 0.0000000000000000e+00  2.3870583916964325e-01 2.7691551503529056e-03 0.0000000000000000e+00  2.8188396223515022e-01 -2.3538427938278639e-02 0.0000000000000000e+00  0.0000000000000000e+00 0.0000000000000000e+00 0.0000000000000000e+00  0.0000000000000000e+00 0.0000000000000000e+00 0.0000000000000000e+00  0.0000000000000000e+00 0.0000000000000000e+00 0.0000000000000000e+00  0.0000000000000000e+00 0.0000000000000000e+00 0.0000000000000000e+00  0.0000000000000000e+00 0.0000000000000000e+00 0.0000000000000000e+00  0.0000000000000000e+00 0.0000000000000000e+00 0.0000000000000000e+00  0.0000000000000000e+00 0.0000000000000000e+00 0.0000000000000000e+00  0.0000000000000000e+00 0.0000000000000000e+00 0.0000000000000000e+00  0.0000000000000000e+00 0.0000000000000000e+00 0.0000000000000000e+00  0.0000000000000000e+00 0.0000000000000000e+00 0.0000000000000000e+00  0.0000000000000000e+00 0.0000000000000000e+00 0.0000000000000000e+00  0.0000000000000000e+00 0.0000000000000000e+00 0.0000000000000000e+00  0.0000000000000000e+00 0.0000000000000000e+00 0.0000000000000000e+00  0.0000000000000000e+00 0.0000000000000000e+00 0.0000000000000000e+00  0.0000000000000000e+00 0.0000000000000000e+00 0.0000000000000000e+00  0.0000000000000000e+00 0.0000000000000000e+00 0.0000000000000000e+00  0.0000000000000000e+00 0.0000000000000000e+00 0.0000000000000000e+00  0.0000000000000000e+00 0.0000000000000000e+00 0.0000000000000000e+00  0.0000000000000000e+00 0.0000000000000000e+00 0.0000000000000000e+00  0.0000000000000000e+00 0.0000000000000000e+00 0.0000000000000000e+00  0.0000000000000000e+00 0.0000000000000000e+00 0.0000000000000000e+00  0.0000000000000000e+00 0.0000000000000000e+00 0.0000000000000000e+00  0.0000000000000000e+00 0.0000000000000000e+00 0.0000000000000000e+00  0.0000000000000000e+00 0.0000000000000000e+00 0.0000000000000000e+00  0.0000000000000000e+00 0.0000000000000000e+00 0.0000000000000000e+00  0.0000000000000000e+00 0.0000000000000000e+00 0.0000000000000000e+00  0.0000000000000000e+00 0.0000000000000000e+00 0.0000000000000000e+00  0.0000000000000000e+00 0.0000000000000000e+00 0.0000000000000000e+00  0.0000000000000000e+00 0.0000000000000000e+00 0.0000000000000000e+00  0.0000000000000000e+00 0.0000000000000000e+00 0.0000000000000000e+00  0.0000000000000000e+00 0.0000000000000000e+00 0.0000000000000000e+00  0.0000000000000000e+00 0.0000000000000000e+00 0.0000000000000000e+00  0.0000000000000000e+00 0.0000000000000000e+00 0.0000000000000000e+00  0.0000000000000000e+00 0.0000000000000000e+00 0.0000000000000000e+00  0.0000000000000000e+00 0.0000000000000000e+00 0.0000000000000000e+00  0.0000000000000000e+00 0.0000000000000000e+00 0.0000000000000000e+00  0.0000000000000000e+00 0.0000000000000000e+00 0.0000000000000000e+00  0.0000000000000000e+00 0.0000000000000000e+00 0.0000000000000000e+00  0.0000000000000000e+00 0.0000000000000000e+00 0.0000000000000000e+00  0.0000000000000000e+00 0.0000000000000000e+00 0.0000000000000000e+00  8.9375060292316912e-16 0.0000000000000000e+00 0.0000000000000000e+00  0.0000000000000000e+00 0.0000000000000000e+00 0.0000000000000000e+00  0.0000000000000000e+00 0.0000000000000000e+00 0.0000000000000000e+00  0.0000000000000000e+00 0.0000000000000000e+00 0.0000000000000000e+00  0.0000000000000000e+00 0.0000000000000000e+00 0.0000000000000000e+00  -6.3229346274167832e-16 0.0000000000000000e+00 0.0000000000000000e+00  0.0000000000000000e+00 0.0000000000000000e+00 0.0000000000000000e+00  0.0000000000000000e+00 0.0000000000000000e+00 0.0000000000000000e+00  0.0000000000000000e+00 0.0000000000000000e+00 0.0000000000000000e+00  0.0000000000000000e+00 0.0000000000000000e+00 0.0000000000000000e+00  0.0000000000000000e+00 0.0000000000000000e+00 0.0000000000000000e+00  0.0000000000000000e+00 0.0000000000000000e+00 0.0000000000000000e+00  0.0000000000000000e+00 0.0000000000000000e+00 0.0000000000000000e+00  0.0000000000000000e+00 0.0000000000000000e+00 0.0000000000000000e+00  0.0000000000000000e+00 0.0000000000000000e+00 0.0000000000000000e+00  0.0000000000000000e+00 0.0000000000000000e+00 0.0000000000000000e+00  0.0000000000000000e+00 0.0000000000000000e+00 0.0000000000000000e+00  0.0000000000000000e+00 0.0000000000000000e+00 0.0000000000000000e+00  0.0000000000000000e+00 0.0000000000000000e+00 0.0000000000000000e+00  0.0000000000000000e+00 0.0000000000000000e+00 0.0000000000000000e+00  0.0000000000000000e+00 0.0000000000000000e+00 0.0000000000000000e+00  0.0000000000000000e+00 0.0000000000000000e+00 0.0000000000000000e+00  0.0000000000000000e+00 0.0000000000000000e+00 0.0000000000000000e+00  0.0000000000000000e+00 0.0000000000000000e+00 0.0000000000000000e+00  0.0000000000000000e+00 0.0000000000000000e+00 0.0000000000000000e+00  0.0000000000000000e+00 0.0000000000000000e+00 0.0000000000000000e+00  0.0000000000000000e+00 0.0000000000000000e+00 0.0000000000000000e+00  0.0000000000000000e+00 0.0000000000000000e+00 0.0000000000000000e+00  0.0000000000000000e+00 0.0000000000000000e+00 0.0000000000000000e+00  0.0000000000000000e+00 0.0000000000000000e+00 0.0000000000000000e+00  0.0000000000000000e+00 0.0000000000000000e+00 0.0000000000000000e+00  0.0000000000000000e+00 0.0000000000000000e+00 0.0000000000000000e+00  0.0000000000000000e+00 0.0000000000000000e+00 0.0000000000000000e+00  0.0000000000000000e+00 0.0000000000000000e+00 0.0000000000000000e+00  0.0000000000000000e+00 0.0000000000000000e+00 0.0000000000000000e+00  0.0000000000000000e+00 0.0000000000000000e+00 0.0000000000000000e+00  0.0000000000000000e+00 0.0000000000000000e+00 0.0000000000000000e+00  0.0000000000000000e+00 0.0000000000000000e+00 0.0000000000000000e+00  1.0462528836688591e-06 7.7870226343579433e-06 0.0000000000000000e+00  2.0054775091679024e-06 7.7525204677240773e-06 0.0000000000000000e+00  2.5265556672582352e-06 6.6858021645386979e-06 0.0000000000000000e+00  2.9898977256145174e-06 4.7638186701887539e-06 0.0000000000000000e+00  3.3433147788463721e-06 2.2523206280586302e-06 0.0000000000000000e+00  3.9617334281978993e-06 -7.9594102915536982e-07 0.0000000000000000e+00  4.5116635642720127e-06 -4.3500614756213734e-06 0.0000000000000000e+00  5.2030590570779493e-06 -8.5694755833513534e-06 0.0000000000000000e+00  6.1233292754901253e-06 -1.3295260139908000e-05 0.0000000000000000e+00  6.9765533612943566e-06 -1.8619070298227091e-05 0.0000000000000000e+00  8.1195218434171854e-06 -2.4444261701909050e-05 0.0000000000000000e+00  9.1586357762725278e-06 -3.0866286372784954e-05 0.0000000000000000e+00  1.0458516245803625e-05 -3.7780629650660828e-05 0.0000000000000000e+00  1.1664992630003759e-05 -4.5126719715361819e-05 0.0000000000000000e+00  1.2968874017649167e-05 -5.3037433444022570e-05 0.0000000000000000e+00  1.4430914187203327e-05 -6.1345163664591201e-05 0.0000000000000000e+00  1.5808922176304443e-05 -7.0135450234545642e-05 0.0000000000000000e+00  1.7383297907004013e-05 -7.9309260683519214e-05 0.0000000000000000e+00  1.8852593635477548e-05 -8.8929051367917625e-05 0.0000000000000000e+00  2.0482375616144655e-05 -9.8872939080890752e-05 0.0000000000000000e+00  2.2053111787860205e-05 -1.0922415137527025e-04 0.0000000000000000e+00  2.3748101794140632e-05 -1.1989690598706324e-04 0.0000000000000000e+00  2.5375976894055490e-05 -1.3082224895796406e-04 0.0000000000000000e+00  2.7057323153947519e-05 -1.4208702818983436e-04 0.0000000000000000e+00  2.8816239786530800e-05 -1.5354863399555252e-04 0.0000000000000000e+00  3.0569627696808273e-05 -1.6529928179334939e-04 0.0000000000000000e+00  3.2380672230155443e-05 -1.7721878969510934e-04 0.0000000000000000e+00  3.4203749869030806e-05 -1.8936042937827777e-04 0.0000000000000000e+00  3.6081753617989528e-05 -2.0164214806548352e-04 0.0000000000000000e+00  3.7979667378284536e-05 -2.1409651417293827e-04 0.0000000000000000e+00  3.9929499074131343e-05 -2.2665710631226030e-04 0.0000000000000000e+00  4.1911117209379401e-05 -2.3935635320974103e-04 0.0000000000000000e+00  4.3939912974127627e-05 -2.5212265078104512e-04 0.0000000000000000e+00  4.6010947806619534e-05 -2.6500691103578357e-04 0.0000000000000000e+00  4.8140605794499576e-05 -2.7791938002111842e-04 0.0000000000000000e+00  5.0310696559642307e-05 -2.9092139212578819e-04 0.0000000000000000e+00  5.2535839883651502e-05 -3.0393563175422610e-04 0.0000000000000000e+00  5.4810119216849004e-05 -3.1701838782060383e-04 0.0000000000000000e+00  5.7145720112817211e-05 -3.3009543864200377e-04 0.0000000000000000e+00  5.9540274527219746e-05 -3.4322378442157606e-04 0.0000000000000000e+00  6.2004723801265422e-05 -3.5634830224171482e-04 0.0000000000000000e+00  6.4514164573376017e-05 -3.6949322558356635e-04 0.0000000000000000e+00  6.7104141906651536e-05 -3.8263815403370656e-04 0.0000000000000000e+00  6.9732639627588188e-05 -3.9578948871905992e-04 0.0000000000000000e+00  7.2436866657158984e-05 -4.0896357029750907e-04 0.0000000000000000e+00  7.5161399105573982e-05 -4.2208129826224708e-04 0.0000000000000000e+00  6.9435184653183289e-05 -4.3726141521656115e-04 0.0000000000000000e+00  5.1964305104199100e-05 -4.4191404770089538e-04 0.0000000000000000e+00  4.0239620905236438e-05 -4.3101535717845351e-04 0.0000000000000000e+00  3.7499165817124322e-05 -4.1805311585924092e-04 0.0000000000000000e+00  3.4789433312911182e-05 -4.0512394332815161e-04 0.0000000000000000e+00  3.2162679390025779e-05 -3.9216985767575756e-04 0.0000000000000000e+00  2.9581304904475725e-05 -3.7921502951230180e-04 0.0000000000000000e+00  2.7094123477235173e-05 -3.6626446750338994e-04 0.0000000000000000e+00  2.4668869378589669e-05 -3.5331199080176689e-04 0.0000000000000000e+00  2.2322460049229730e-05 -3.4039192331629159e-04 0.0000000000000000e+00  2.0058522593887943e-05 -3.2745730007145257e-04 0.0000000000000000e+00  1.7861424014957237e-05 -3.1458856867790802e-04 0.0000000000000000e+00  1.5756073821234901e-05 -3.0171534128211149e-04 0.0000000000000000e+00  1.3714809862359977e-05 -2.8892547642460977e-04 0.0000000000000000e+00  1.1775456154084003e-05 -2.7614953623762570e-04 0.0000000000000000e+00  9.8920212569282697e-06 -2.6347928138096584e-04 0.0000000000000000e+00  8.1207445200376978e-06 -2.5084915014654991e-04 0.0000000000000000e+00  6.4000686528709516e-06 -2.3835541231844709e-04 0.0000000000000000e+00  4.8065050858823349e-06 -2.2593343663431911e-04 0.0000000000000000e+00  3.2547325196581690e-06 -2.1368248698943175e-04 0.0000000000000000e+00  1.8450692196160091e-06 -2.0153589166234344e-04 0.0000000000000000e+00  4.6397115367983875e-07 -1.8959706432796882e-04 0.0000000000000000e+00  -7.5745950054757874e-07 -1.7780668348719555e-04 0.0000000000000000e+00  -1.9608728318521481e-06 -1.6626912641157636e-04 0.0000000000000000e+00  -2.9845499192747651e-06 -1.5494573779774204e-04 0.0000000000000000e+00  -3.9973957686053778e-06 -1.4386580688914983e-04 0.0000000000000000e+00  -4.9050121914797971e-06 -1.3311305829111922e-04 0.0000000000000000e+00  -5.6707575390741571e-06 -1.2259521765055421e-04 0.0000000000000000e+00  -6.3812269119179464e-06 -1.1247504557188044e-04 0.0000000000000000e+00  -6.9526095123732653e-06 -1.0264732705216185e-04 0.0000000000000000e+00  -7.4643640680416975e-06 -9.3271718514260671e-05 0.0000000000000000e+00  -7.8335743541245085e-06 -8.4239848720017379e-05 0.0000000000000000e+00  -8.1383320707327912e-06 -7.5687270013674501e-05 0.0000000000000000e+00  -8.2375775186938857e-06 -6.7594160160184841e-05 0.0000000000000000e+00  -8.3651085961829634e-06 -5.9920940063279711e-05 0.0000000000000000e+00  -8.3694513416843337e-06 -5.2809464266056896e-05 0.0000000000000000e+00  -8.1763505120103205e-06 -4.6107811126161691e-05 0.0000000000000000e+00  -7.9177070206090430e-06 -4.0018194241250921e-05 0.0000000000000000e+00  -7.4839265074349296e-06 -3.4396239261437805e-05 0.0000000000000000e+00  -6.9781166602514985e-06 -2.9380252433989947e-05 0.0000000000000000e+00  -6.2310653724564276e-06 -2.4948706369124131e-05 0.0000000000000000e+00  -5.5235139323822701e-06 -2.1006146890541016e-05 0.0000000000000000e+00  -4.6899738453013242e-06 -1.7723808684529124e-05 0.0000000000000000e+00  -3.6465291445389751e-06 -1.4889272904628347e-05 0.0000000000000000e+00  -2.5917095231908556e-06 -1.2746172721787151e-05 0.0000000000000000e+00  -1.4746689333277129e-06 -1.1135321268364253e-05 0.0000000000000000e+00  -6.3016831032477694e-07 -9.7973637918236506e-06 0.0000000000000000e+00  -1.0169625020807250e-07 -8.4998320494153858e-06 0.0000000000000000e+00  2.1869639236325821e-06 -2.7174446170350825e-07 0.0000000000000000e+00  5.6689766092217271e-05 -4.1994680022753558e-04 0.0000000000000000e+00  5.1553003367157762e-05 -3.9496494847605468e-04 0.0000000000000000e+00  4.3454957889064097e-05 -3.5425405706339305e-04 0.0000000000000000e+00  4.5803573062303118e-07 -2.6721646014182219e-06 0.0000000000000000e+00  3.8615988306724743e-05 -3.2872155867588043e-04 0.0000000000000000e+00  -2.3760241036309864e-07 -7.2109884687766201e-06 0.0000000000000000e+00  3.4145908880163987e-05 -3.0275773230702477e-04 0.0000000000000000e+00  -4.9585636491728574e-07 -1.8905300858331493e-05 0.0000000000000000e+00  1.9741241536020799e-09 -2.8955013861372600e-05 0.0000000000000000e+00  2.9940395034153126e-05 -2.7694908000339255e-04 0.0000000000000000e+00  2.6686559166742019e-06 -6.4498741787868575e-05 0.0000000000000000e+00  2.2308399914740592e-05 -2.2616485297252063e-04 0.0000000000000000e+00  6.6182111913348733e-07 -4.1031775999119645e-05 0.0000000000000000e+00  4.5186261038145168e-06 -8.1419946357476109e-05 0.0000000000000000e+00  1.8875016856360564e-05 -2.0142953392835908e-04 0.0000000000000000e+00  2.5995528538582944e-05 -2.5138218988962347e-04 0.0000000000000000e+00  6.5384336971438072e-06 -1.0044555877570076e-04 0.0000000000000000e+00  1.5691774549750444e-05 -1.7732356848984120e-04 0.0000000000000000e+00  8.5439373049441320e-06 -1.2018063026174906e-04 0.0000000000000000e+00  1.3005416949522524e-05 -1.5440820574118513e-04 0.0000000000000000e+00  1.0628495645095042e-05 -1.3630813591129480e-04 0.0000000000000000e+00  1.6938893996579034e-06 -5.1624061611715999e-05 0.0000000000000000e+00  4.7291120057395434e-05 -3.7550175039592664e-04 0.0000000000000000e+00  -3.9077550265289718e-07 -1.2106215688906819e-05 0.0000000000000000e+00  4.7924902436832751e-05 -4.0897167245005332e-04 0.0000000000000000e+00  4.9922943466717033e-07 -4.5961865749686677e-06 0.0000000000000000e+00  3.1302330373523040e-05 -3.1726131152733545e-04 0.0000000000000000e+00  3.5885032642287059e-05 -3.4322524837964753e-04 0.0000000000000000e+00  1.1873767136501619e-06 -1.6816581902674046e-06 0.0000000000000000e+00  1.7553469566944417e-06 -2.1231885758891266e-05 0.0000000000000000e+00  1.9229074317183207e-05 -2.4041783065123734e-04 0.0000000000000000e+00  2.6997994638261388e-05 -2.9141911430399450e-04 0.0000000000000000e+00  6.9809807429609271e-06 -7.0487684623682335e-05 0.0000000000000000e+00  1.5765174061574147e-05 -2.1547759590793465e-04 0.0000000000000000e+00  2.7770020282140846e-06 -3.2755771096876577e-05 0.0000000000000000e+00  9.1735624238534190e-06 -8.8758339865997575e-05 0.0000000000000000e+00  1.2583471438009370e-05 -1.9108953410498141e-04 0.0000000000000000e+00  2.2974010980483006e-05 -2.6577271360819126e-04 0.0000000000000000e+00  1.2467452199625477e-05 -1.0805184353864799e-04 0.0000000000000000e+00  9.6782179755088885e-06 -1.6741232699227454e-04 0.0000000000000000e+00  2.1196534791515428e-06 1.9407831430650988e-06 0.0000000000000000e+00  1.8759796635241556e-06 -1.7801894604078292e-06 0.0000000000000000e+00  6.2958975397048723e-05 -4.2916851533282026e-04 0.0000000000000000e+00  1.7428246099398697e-06 2.4302440894015730e-06 0.0000