<?xml version="1.0"?>
<VTKFile type="UnstructuredGrid"  version="0.1"  >
<UnstructuredGrid>
<Piece  NumberOfPoints="1419" NumberOfCells="2698">
<Points>
<DataArray  type="Float64"  NumberOfComponents="3"  format="ascii">0 0 0  0 0.41 0  2.5 0 0  2.5 0.41 0  0.6 0.19 0  0.6 0.21 0  0.25 0.2 0  0.15 0.2 0  0.2489897948556636 0.21 0  0.2489897948556636 0.19 0  0.6 0.2 0  0 0.3807142857143437 0  0 0.3514285714286952 0  0 0.3221428571430699 0  0 0.29285714285744 0  0 0.2635714285718054 0  0 0.2342857142861561 0  0 0.2050000000005308 0  0 0.175714285714732 0  0 0.1464285714289574 0  0 0.1171428571431897 0  0 0.08785714285737878 0  0 0.05857142857161107 0  0 0.02928571428580012 0  0.03015443760436003 0 0  0.06140001986583606 0 0  0.09377624077125973 0 0  0.1273239957535082 0 0  0.1620856860351972 0 0  0.1981052433264291 0 0  0.235428184091502 0 0  0.2741016576309132 0 0  0.3141745521465447 0 0  0.3556974926295285 0 0  0.3987229542472677 0 0  0.4433053055141081 0 0  0.4895008759286886 0 0  0.5373680609405097 0 0  0.5869673343216626 0 0  0.6383613676634521 0 0  0.6916151138468254 0 0  0.7467958595648856 0 0  0.8039733463919316 0 0  0.8632198139502143 0 0  0.9246101326867038 0 0  0.9882218810934433 0 0  1.054135445558498 0 0  1.122434100542598 0 0  1.193204177141305 0 0  1.266535089879536 0 0  1.342519516046404 0 0  1.421253448503939 0 0  1.502836389106271 0 0  1.587371439758838 0 0  1.674965418777374 0 0  1.765729001825544 0 0  1.859776908880082 0 0  1.957227977487062 0 0  2.058205329869943 0 0  2.162836591189951 0 0  2.271253957290865 0 0  2.383594446803425 0 0  2.5 0.1024999999997612 0  2.5 0.2049999999994743 0  2.5 0.3074999999997183 0  2.383594446803656 0.41 0  2.271253957291315 0.41 0  2.162836591190598 0.41 0  2.058205329870775 0.41 0  1.957227977488067 0.41 0  1.859776908881246 0.41 0  1.765729001826854 0.41 0  1.674965418778818 0.41 0  1.58737143976041 0.41 0  1.502836389107956 0.41 0  1.421253448505726 0.41 0  1.342519516048286 0.41 0  1.266535089881505 0.41 0  1.193204177143353 0.41 0  1.122434100544716 0.41 0  1.05413544556068 0.41 0  0.9882218810956305 0.41 0  0.9246101326886647 0.41 0  0.8632198139519631 0.41 0  0.8039733463934788 0.41 0  0.7467958595662458 0.41 0  0.6916151138480078 0.41 0  0.6383613676644679 0.41 0  0.5869673343225223 0.41 0  0.5373680609412221 0.41 0  0.4895008759292634 0.41 0  0.4433053055145528 0.41 0  0.3987229542475914 0.41 0  0.3556974926297398 0.41 0  0.3141745521466497 0.41 0  0.2741016576310038 0.41 0  0.2354281840915826 0.41 0  0.1981052433265003 0.41 0  0.1620856860352591 0.41 0  0.1273239957535623 0.41 0  0.09377624077128965 0.41 0  0.06140001986584975 0.41 0  0.03015443760436654 0.41 0  0.2497468076502589 0.2050254481002335 0  0.2497468076502614 0.1949745518997913 0  0.2469965252529372 0.1829317073451959 0  0.2439893735792749 0.1762316384219906 0  0.2400332147834255 0.1700443375285386 0  0.2352133972704371 0.1645032867342007 0  0.2296339016332438 0.1597280261969788 0  0.2234150974217223 0.1558215752574715 0  0.2166911463437691 0.1528682099456123 0  0.2096071079204251 0.1509316448471593 0  0.2023158100364996 0.1500536585536553 0  0.194974551899914 0.1502531923497262 0  0.1877417105387872 0.1515259415822739 0  0.1807733240461124 0.153844448527136 0  0.1742197252835808 0.15715869474974 0  0.1682222986673531 0.1613971801805478 0  0.162910430003803 0.1664684656256651 0  0.1583987151779087 0.1722631454351573 0  0.1547844879126891 0.178656207771761 0  0.1521457199348551 0.1855097315605723 0  0.1505393388476355 0.1926758619366523 0  0.1505393388476328 0.2073241380633295 0  0.1521457199348437 0.2144902684393899 0  0.1547844879126531 0.221343792228163 0  0.1583987151778488 0.2277368545647528 0  0.1629104300036858 0.2335315343742052 0  0.1682222986671726 0.2386028198193036 0  0.1742197252833576 0.2428413052501257 0  0.1807733240458683 0.2461555514727623 0  0.1877417105384929 0.2484740584176516 0  0.1949745518995776 0.2497468076502398 0  0.202315810036185 0.2499463414463592 0  0.2096071079201568 0.2490683551528932 0  0.2166911463435495 0.2471317900544655 0  0.2234150974215506 0.2441784247426195 0  0.2296339016331197 0.2402719738031125 0  0.2352133972703547 0.2354967132658811 0  0.2400332147833751 0.2299556624715287 0  0.2439893735792577 0.2237683615780412 0  0.246996525252926 0.2170682926548348 0  0.25645809709277 0.21 0  0.2639263993298655 0.21 0  0.271394701566961 0.21 0  0.2788630038040554 0.21 0  0.2863313060411479 0.21 0  0.2937996082782405 0.21 0  0.301267910515333 0.21 0  0.3087362127524279 0.21 0  0.3162045149895234 0.21 0  0.3236728172265972 0.21 0  0.3311411194636928 0.21 0  0.3386094217007701 0.21 0  0.3460777239378666 0.21 0  0.3535460261749672 0.21 0  0.3610143284120516 0.21 0  0.3684826306491596 0.21 0  0.3759509328862226 0.21 0  0.383419235123329 0.21 0  0.3908875373604028 0.21 0  0.3983558395975142 0.21 0  0.4058241418345938 0.21 0  0.4132924440716992 0.21 0  0.4207607463087888 0.21 0  0.4282290485459029 0.21 0  0.4356973507830418 0.21 0  0.4431656530201649 0.21 0  0.4506339552573136 0.21 0  0.4581022574944306 0.21 0  0.4655705597315852 0.21 0  0.4730388619686996 0.21 0  0.480507164205851 0.21 0  0.4879754664429498 0.21 0  0.4954437686800938 0.21 0  0.502912070917267 0.21 0  0.5103803731544119 0.21 0  0.5178486753915261 0.21 0  0.5253169776286404 0.21 0  0.5327852798657868 0.21 0  0.5402535821029386 0.21 0  0.54772188434007 0.21 0  0.5551901865771842 0.21 0  0.5626584888143201 0.21 0  0.5701267910514778 0.21 0  0.5775950932886138 0.21 0  0.5850633955257281 0.21 0  0.5925316977628483 0.21 0  0.6 0.2050000000000054 0  0.6 0.1950000000000217 0  0.5925316977628897 0.19 0  0.5850633955257988 0.19 0  0.5775950932887378 0.19 0  0.5701267910515998 0.19 0  0.5626584888145268 0.19 0  0.5551901865773963 0.19 0  0.547721884340339 0.19 0  0.5402535821032429 0.19 0  0.5327852798661811 0.19 0  0.5253169776290537 0.19 0  0.5178486753919799 0.19 0  0.5103803731549078 0.19 0  0.502912070917822 0.19 0  0.4954437686807294 0.19 0  0.4879754664436223 0.19 0  0.4805071642065402 0.19 0  0.4730388619694271 0.19 0  0.4655705597323621 0.19 0  0.4581022574952563 0.19 0  0.4506339552581777 0.19 0  0.4431656530210671 0.19 0  0.4356973507839815 0.19 0  0.4282290485468779 0.19 0  0.4207607463097617 0.19 0  0.4132924440726327 0.19 0  0.4058241418354857 0.19 0  0.3983558395983636 0.19 0  0.3908875373612097 0.19 0  0.3834192351240934 0.19 0  0.3759509328869369 0.19 0  0.3684826306498175 0.19 0  0.361014328412667 0.19 0  0.3535460261755617 0.19 0  0.3460777239384295 0.19 0  0.3386094217012945 0.19 0  0.3311411194641595 0.19 0  0.3236728172270245 0.19 0  0.3162045149898895 0.19 0  0.3087362127527544 0.19 0  0.3012679105156187 0.19 0  0.2937996082784807 0.19 0  0.2863313060413428 0.19 0  0.2788630038042048 0.19 0  0.2713947015670686 0.19 0  0.2639263993299336 0.19 0  0.2564580970927985 0.19 0  0.2607803159922026 0.2000727136295815 0  0.5887803774232762 0.2001272386983733 0  0.5745072403740523 0.2002044435018727 0  0.5511891430099709 0.2001122610077113 0  0.2751288526855082 0.20000000000002 0  0.5365194309847112 0.1999999999999436 0  0.2894621222999649 0.1998691686390484 0  0.5215828265105155 0.1999999999999228 0  0.3127789816668748 0.1998657885438805 0  0.3274069683451451 0.2000000000000796 0  0.5066462220363641 0.199999999999908 0  0.3650630746574081 0.199866017807523 0  0.476773013087985 0.1999999999998713 0  0.3417402379596385 0.1998691686391011 0  0.3796850840047755 0.200000000000134 0  0.4618364086138087 0.1999999999998546 0  0.4917096175621762 0.1999999999998808 0  0.3946216884789568 0.2000000000001512 0  0.446899804139621 0.1999999999998389 0  0.4089549580935208 0.1998691686391595 0  0.4322718174608562 0.200127451265745 0  0.4201487168029707 0.1999966199048527 0  0.3528922713220932 0.2000185703532356 0  0.5633122436674589 0.1999814296467508 0  0.3006558810093873 0.1999966199048318 0  0.5815926498168407 0.1966545283159175 0  0.2677053789419034 0.1964246479135325 0  0.5290511287476175 0.1970915826863981 0  0.5439877332217911 0.197091582686394 0  0.2825131256993216 0.2035478995978015 0  0.3199386661080599 0.202908417313604 0  0.4842413153250809 0.1970915826863873 0  0.5141145242734466 0.1970915826863843 0  0.3722167817676917 0.2029084173136195 0  0.4693047108508938 0.1970915826863783 0  0.3348752705822316 0.202908417313609 0  0.3871533862418661 0.2029084173136212 0  0.4543681063767183 0.1970915826863795 0  0.4991779197992749 0.1970915826863902 0  0.4020059614928624 0.203547899597858 0  0.4394315019025246 0.1970915826863714 0  0.2550657455369551 0.2034088125358657 0  0.2548908499171161 0.1966940311614271 0  0.5946539510196798 0.2024302972968126 0  0.267698176732111 0.2039977513680092 0  0.4261685417851465 0.196409292431739 0  0.3590076176283495 0.196411355804271 0  0.5571672426447437 0.2036011176410121 0  0.3066757059912147 0.1964092924317024 0  0.594380730180568 0.1966558399668133 0  0.4842413153245942 0.2040749161535287 0  0.4693047108503577 0.2040749161535231 0  0.3871533862424271 0.1959250838464788 0  0.372246743208829 0.1959123236376545 0  0.5141145242731028 0.2040749161535395 0  0.4543681063761134 0.2040749161535186 0  0.4019979587101454 0.1959834479682427 0  0.4394608940728603 0.2040870543693135 0  0.5439623148931173 0.2040856076781014 0  0.5290511287473298 0.2040749161535501 0  0.4991779197988497 0.2040749161535382 0  0.3347912413592433 0.1959225448935183 0  0.3199680582793816 0.1959123018030061 0  0.2825051229162361 0.1959834479681729 0  0.3590471196690275 0.2036304442587945 0  0.5571594006495384 0.1963685282145804 0  0.3067669986803285 0.203627750582736 0  0.4262598344738712 0.2036568242185335 0  0.5814408164431408 0.2041285596160068 0  0.5688286748170428 0.1961819304477386 0  0.4145905603063645 0.2038180695522843 0  0.3473758401724931 0.2038180695522752 0  0.2950977245128307 0.2038180695522663 0  0.5688286748170693 0.203818069552238 0  0.2950977245127906 0.1961819304477774 0  0.3473758401723931 0.1961819304478349 0  0.4145905603061963 0.1961819304479011 0  0.2601812407614425 0.2056861609747042
[...]
<PointData  Vectors="f_46-0"> 
<DataArray  type="Float64"  Name="f_46-0"  NumberOfComponents="3" format="ascii">0.0000000000000000e+00 0.0000000000000000e+00 0.0000000000000000e+00  0.0000000000000000e+00 0.0000000000000000e+00 0.0000000000000000e+00  0.0000000000000000e+00 0.0000000000000000e+00 0.0000000000000000e+00  0.0000000000000000e+00 0.0000000000000000e+00 0.0000000000000000e+00  7.3842277205393651e-05 -4.7256299462444421e-04 0.0000000000000000e+00  1.1028360750200640e-04 -4.6717600669050386e-04 0.0000000000000000e+00  0.0000000000000000e+00 0.0000000000000000e+00 0.0000000000000000e+00  0.0000000000000000e+00 0.0000000000000000e+00 0.0000000000000000e+00  0.0000000000000000e+00 0.0000000000000000e+00 0.0000000000000000e+00  0.0000000000000000e+00 0.0000000000000000e+00 0.0000000000000000e+00  9.1905236520997566e-05 -4.6986592658594336e-04 0.0000000000000000e+00  6.6671407670000599e-02 0.0000000000000000e+00 0.0000000000000000e+00  1.2308567569847079e-01 0.0000000000000000e+00 0.0000000000000000e+00  1.6924280408539741e-01 0.0000000000000000e+00 0.0000000000000000e+00  2.0514279283083375e-01 0.0000000000000000e+00 0.0000000000000000e+00  2.3078564193477533e-01 0.0000000000000000e+00 0.0000000000000000e+00  2.4617135139722046e-01 0.0000000000000000e+00 0.0000000000000000e+00  2.5129992121815387e-01 0.0000000000000000e+00 0.0000000000000000e+00  2.4617135139753152e-01 0.0000000000000000e+00 0.0000000000000000e+00  2.3078564193530962e-01 0.0000000000000000e+00 0.0000000000000000e+00  2.0514279283149550e-01 0.0000000000000000e+00 0.0000000000000000e+00  1.6924280408602599e-01 0.0000000000000000e+00 0.0000000000000000e+00  1.2308567569900722e-01 0.0000000000000000e+00 0.0000000000000000e+00  6.6671407670302829e-02 0.0000000000000000e+00 0.0000000000000000e+00  0.0000000000000000e+00 0.0000000000000000e+00 0.0000000000000000e+00  0.0000000000000000e+00 0.0000000000000000e+00 0.0000000000000000e+00  0.0000000000000000e+00 0.0000000000000000e+00 0.0000000000000000e+00  0.0000000000000000e+00 0.0000000000000000e+00 0.0000000000000000e+00  0.0000000000000000e+00 0.0000000000000000e+00 0.0000000000000000e+00  0.0000000000000000e+00 0.0000000000000000e+00 0.0000000000000000e+00  0.0000000000000000e+00 0.0000000000000000e+00 0.0000000000000000e+00  0.0000000000000000e+00 0.0000000000000000e+00 0.0000000000000000e+00  0.0000000000000000e+00 0.0000000000000000e+00 0.0000000000000000e+00  0.0000000000000000e+00 0.0000000000000000e+00 0.0000000000000000e+00  0.0000000000000000e+00 0.0000000000000000e+00 0.0000000000000000e+00  0.0000000000000000e+00 0.0000000000000000e+00 0.0000000000000000e+00  0.0000000000000000e+00 0.0000000000000000e+00 0.0000000000000000e+00  0.0000000000000000e+00 0.0000000000000000e+00 0.0000000000000000e+00  0.0000000000000000e+00 0.0000000000000000e+00 0.0000000000000000e+00  0.0000000000000000e+00 0.0000000000000000e+00 0.0000000000000000e+00  0.0000000000000000e+00 0.0000000000000000e+00 0.0000000000000000e+00  0.0000000000000000e+00 0.0000000000000000e+00 0.0000000000000000e+00  0.0000000000000000e+00 0.0000000000000000e+00 0.0000000000000000e+00  0.0000000000000000e+00 0.0000000000000000e+00 0.0000000000000000e+00  0.0000000000000000e+00 0.0000000000000000e+00 0.0000000000000000e+00  0.0000000000000000e+00 0.0000000000000000e+00 0.0000000000000000e+00  0.0000000000000000e+00 0.0000000000000000e+00 0.0000000000000000e+00  0.0000000000000000e+00 0.0000000000000000e+00 0.0000000000000000e+00  0.0000000000000000e+00 0.0000000000000000e+00 0.0000000000000000e+00  0.0000000000000000e+00 0.0000000000000000e+00 0.0000000000000000e+00  0.0000000000000000e+00 0.0000000000000000e+00 0.0000000000000000e+00  0.0000000000000000e+00 0.0000000000000000e+00 0.0000000000000000e+00  0.0000000000000000e+00 0.0000000000000000e+00 0.0000000000000000e+00  0.0000000000000000e+00 0.0000000000000000e+00 0.0000000000000000e+00  0.0000000000000000e+00 0.0000000000000000e+00 0.0000000000000000e+00  0.0000000000000000e+00 0.0000000000000000e+00 0.0000000000000000e+00  0.0000000000000000e+00 0.0000000000000000e+00 0.0000000000000000e+00  0.0000000000000000e+00 0.0000000000000000e+00 0.0000000000000000e+00  0.0000000000000000e+00 0.0000000000000000e+00 0.0000000000000000e+00  0.0000000000000000e+00 0.0000000000000000e+00 0.0000000000000000e+00  0.0000000000000000e+00 0.0000000000000000e+00 0.0000000000000000e+00  0.0000000000000000e+00 0.0000000000000000e+00 0.0000000000000000e+00  2.3678347322315169e-01 1.8551360520775398e-02 0.0000000000000000e+00  1.8933579244059101e-01 7.3222024442433364e-04 0.0000000000000000e+00  2.4062758963365896e-01 -2.5899616032975130e-02 0.0000000000000000e+00  0.0000000000000000e+00 0.0000000000000000e+00 0.0000000000000000e+00  0.0000000000000000e+00 0.0000000000000000e+00 0.0000000000000000e+00  0.0000000000000000e+00 0.0000000000000000e+00 0.0000000000000000e+00  0.0000000000000000e+00 0.0000000000000000e+00 0.0000000000000000e+00  0.0000000000000000e+00 0.0000000000000000e+00 0.0000000000000000e+00  0.0000000000000000e+00 0.0000000000000000e+00 0.0000000000000000e+00  0.0000000000000000e+00 0.0000000000000000e+00 0.0000000000000000e+00  0.0000000000000000e+00 0.0000000000000000e+00 0.0000000000000000e+00  0.0000000000000000e+00 0.0000000000000000e+00 0.0000000000000000e+00  0.0000000000000000e+00 0.0000000000000000e+00 0.0000000000000000e+00  0.0000000000000000e+00 0.0000000000000000e+00 0.0000000000000000e+00  0.0000000000000000e+00 0.0000000000000000e+00 0.0000000000000000e+00  0.0000000000000000e+00 0.0000000000000000e+00 0.0000000000000000e+00  0.0000000000000000e+00 0.0000000000000000e+00 0.0000000000000000e+00  0.0000000000000000e+00 0.0000000000000000e+00 0.0000000000000000e+00  0.0000000000000000e+00 0.0000000000000000e+00 0.0000000000000000e+00  0.0000000000000000e+00 0.0000000000000000e+00 0.0000000000000000e+00  0.0000000000000000e+00 0.0000000000000000e+00 0.0000000000000000e+00  0.0000000000000000e+00 0.0000000000000000e+00 0.0000000000000000e+00  0.0000000000000000e+00 0.0000000000000000e+00 0.0000000000000000e+00  0.0000000000000000e+00 0.0000000000000000e+00 0.0000000000000000e+00  0.0000000000000000e+00 0.0000000000000000e+00 0.0000000000000000e+00  0.0000000000000000e+00 0.0000000000000000e+00 0.0000000000000000e+00  0.0000000000000000e+00 0.0000000000000000e+00 0.0000000000000000e+00  0.0000000000000000e+00 0.0000000000000000e+00 0.0000000000000000e+00  0.0000000000000000e+00 0.0000000000000000e+00 0.0000000000000000e+00  0.0000000000000000e+00 0.0000000000000000e+00 0.0000000000000000e+00  0.0000000000000000e+00 0.0000000000000000e+00 0.0000000000000000e+00  0.0000000000000000e+00 0.0000000000000000e+00 0.0000000000000000e+00  0.0000000000000000e+00 0.0000000000000000e+00 0.0000000000000000e+00  0.0000000000000000e+00 0.0000000000000000e+00 0.0000000000000000e+00  0.0000000000000000e+00 0.0000000000000000e+00 0.0000000000000000e+00  0.0000000000000000e+00 0.0000000000000000e+00 0.0000000000000000e+00  0.0000000000000000e+00 0.0000000000000000e+00 0.0000000000000000e+00  0.0000000000000000e+00 0.0000000000000000e+00 0.0000000000000000e+00  0.0000000000000000e+00 0.0000000000000000e+00 0.0000000000000000e+00  0.0000000000000000e+00 0.0000000000000000e+00 0.0000000000000000e+00  0.0000000000000000e+00 0.0000000000000000e+00 0.0000000000000000e+00  0.0000000000000000e+00 0.0000000000000000e+00 0.0000000000000000e+00  0.0000000000000000e+00 0.0000000000000000e+00 0.0000000000000000e+00  -7.5462060809742027e-13 6.1397911817913944e-15 0.0000000000000000e+00  0.0000000000000000e+00 0.0000000000000000e+00 0.0000000000000000e+00  0.0000000000000000e+00 0.0000000000000000e+00 0.0000000000000000e+00  0.0000000000000000e+00 0.0000000000000000e+00 0.0000000000000000e+00  0.0000000000000000e+00 0.0000000000000000e+00 0.0000000000000000e+00  3.6973636086805305e-13 0.0000000000000000e+00 0.0000000000000000e+00  0.0000000000000000e+00 0.0000000000000000e+00 0.0000000000000000e+00  0.0000000000000000e+00 0.0000000000000000e+00 0.0000000000000000e+00  0.0000000000000000e+00 0.0000000000000000e+00 0.0000000000000000e+00  0.0000000000000000e+00 0.0000000000000000e+00 0.0000000000000000e+00  0.0000000000000000e+00 0.0000000000000000e+00 0.0000000000000000e+00  0.0000000000000000e+00 0.0000000000000000e+00 0.0000000000000000e+00  0.0000000000000000e+00 0.0000000000000000e+00 0.0000000000000000e+00  0.0000000000000000e+00 0.0000000000000000e+00 0.0000000000000000e+00  0.0000000000000000e+00 0.0000000000000000e+00 0.0000000000000000e+00  0.0000000000000000e+00 0.0000000000000000e+00 0.0000000000000000e+00  0.0000000000000000e+00 0.0000000000000000e+00 0.0000000000000000e+00  0.0000000000000000e+00 0.0000000000000000e+00 0.0000000000000000e+00  0.0000000000000000e+00 0.0000000000000000e+00 0.0000000000000000e+00  0.0000000000000000e+00 0.0000000000000000e+00 0.0000000000000000e+00  0.0000000000000000e+00 0.0000000000000000e+00 0.0000000000000000e+00  0.0000000000000000e+00 0.0000000000000000e+00 0.0000000000000000e+00  0.0000000000000000e+00 0.0000000000000000e+00 0.0000000000000000e+00  0.0000000000000000e+00 0.0000000000000000e+00 0.0000000000000000e+00  0.0000000000000000e+00 0.0000000000000000e+00 0.0000000000000000e+00  0.0000000000000000e+00 0.0000000000000000e+00 0.0000000000000000e+00  0.0000000000000000e+00 0.0000000000000000e+00 0.0000000000000000e+00  0.0000000000000000e+00 0.0000000000000000e+00 0.0000000000000000e+00  0.0000000000000000e+00 0.0000000000000000e+00 0.0000000000000000e+00  0.0000000000000000e+00 0.0000000000000000e+00 0.0000000000000000e+00  0.0000000000000000e+00 0.0000000000000000e+00 0.0000000000000000e+00  0.0000000000000000e+00 0.0000000000000000e+00 0.0000000000000000e+00  0.0000000000000000e+00 0.0000000000000000e+00 0.0000000000000000e+00  0.0000000000000000e+00 0.0000000000000000e+00 0.0000000000000000e+00  0.0000000000000000e+00 0.0000000000000000e+00 0.0000000000000000e+00  0.0000000000000000e+00 0.0000000000000000e+00 0.0000000000000000e+00  0.0000000000000000e+00 0.0000000000000000e+00 0.0000000000000000e+00  -3.3692114394391971e-16 0.0000000000000000e+00 0.0000000000000000e+00  2.6907215081996868e-06 2.9929082858268325e-06 0.0000000000000000e+00  5.5007953758251767e-06 2.2723701621886880e-06 0.0000000000000000e+00  8.1056186061098211e-06 6.4028959288402412e-07 0.0000000000000000e+00  1.0764755147169279e-05 -1.8347629095269532e-06 0.0000000000000000e+00  1.3287853436882847e-05 -4.9647124176824211e-06 0.0000000000000000e+00  1.6024275242058953e-05 -8.7483339157116145e-06 0.0000000000000000e+00  1.8612387461686790e-05 -1.3058954157217354e-05 0.0000000000000000e+00  2.1244470956890584e-05 -1.8071443049867752e-05 0.0000000000000000e+00  2.4038791100470684e-05 -2.3620609089324188e-05 0.0000000000000000e+00  2.6639965158956154e-05 -2.9744426513701959e-05 0.0000000000000000e+00  2.9434998108824526e-05 -3.6432790081765013e-05 0.0000000000000000e+00  3.2020170709178864e-05 -4.3657066082830504e-05 0.0000000000000000e+00  3.4748227809891516e-05 -5.1401937149766607e-05 0.0000000000000000e+00  3.7310713692288773e-05 -5.9568850362052986e-05 0.0000000000000000e+00  3.9865241054127070e-05 -6.8269108802338781e-05 0.0000000000000000e+00  4.2503353886586122e-05 -7.7369377920061033e-05 0.0000000000000000e+00  4.4971533794799365e-05 -8.6885810287825964e-05 0.0000000000000000e+00  4.7545679541412073e-05 -9.6811895707028139e-05 0.0000000000000000e+00  4.9954509913326437e-05 -1.0709922763407664e-04 0.0000000000000000e+00  5.2445904349899630e-05 -1.1773253883729446e-04 0.0000000000000000e+00  5.4819209581876347e-05 -1.2869331131950328e-04 0.0000000000000000e+00  5.7234575770643715e-05 -1.3997417393329635e-04 0.0000000000000000e+00  5.9547404707460643e-05 -1.5148421671404294e-04 0.0000000000000000e+00  6.1847241379731665e-05 -1.6329595966631605e-04 0.0000000000000000e+00  6.4175235078632682e-05 -1.7530416122343999e-04 0.0000000000000000e+00  6.6432976757250782e-05 -1.8754925081622986e-04 0.0000000000000000e+00  6.8686370246105340e-05 -1.9999169406778849e-04 0.0000000000000000e+00  7.0896981527884923e-05 -2.1260088684459821e-04 0.0000000000000000e+00  7.3101660866017580e-05 -2.2537913862767534e-04 0.0000000000000000e+00  7.5270187499966565e-05 -2.3828407727479576e-04 0.0000000000000000e+00  7.7431237607197140e-05 -2.5132549744713686e-04 0.0000000000000000e+00  7.9563834219627619e-05 -2.6446083564683943e-04 0.0000000000000000e+00  8.1685546996162871e-05 -2.7769915765847743e-04 0.0000000000000000e+00  8.3785764848613858e-05 -2.9100980121099816e-04 0.0000000000000000e+00  8.5879971284714044e-05 -3.0439344587861314e-04 0.0000000000000000e+00  8.7953433125554278e-05 -3.1782374456218346e-04 0.0000000000000000e+00  9.0019019538376037e-05 -3.3130835007558440e-04 0.0000000000000000e+00  9.2069563933249926e-05 -3.4482113415987319e-04 0.0000000000000000e+00  9.4114985655108585e-05 -3.5837134226412374e-04 0.0000000000000000e+00  9.6149430239775722e-05 -3.7193269118983454e-04 0.0000000000000000e+00  9.8176838483768450e-05 -3.8551722345173540e-04 0.0000000000000000e+00  1.0019424398541248e-04 -3.9910778408674085e-04 0.0000000000000000e+00  1.0221297493493864e-04 -4.1270743584222782e-04 0.0000000000000000e+00  1.0422728378601724e-04 -4.2631160882482163e-04 0.0000000000000000e+00  1.0623104715299231e-04 -4.3991265572583977e-04 0.0000000000000000e+00  1.0823974492742414e-04 -4.5352628875405571e-04 0.0000000000000000e+00  1.0104735723213498e-04 -4.6851494555751765e-04 0.0000000000000000e+00  8.2830849496182075e-05 -4.7121979290708660e-04 0.0000000000000000e+00  7.1808754072757064e-05 -4.5899574837851895e-04 0.0000000000000000e+00  6.9814746751167703e-05 -4.4540609298517481e-04 0.0000000000000000e+00  6.7823740550347164e-05 -4.3181246699759799e-04 0.0000000000000000e+00  6.5830757300053909e-05 -4.1823385339183919e-04 0.0000000000000000e+00  6.3835018015002970e-05 -4.0466032625719980e-04 0.0000000000000000e+00  6.1848216890362856e-05 -3.9109671295160130e-04 0.0000000000000000e+00  5.9866978507458551e-05 -3.7754757523527710e-04 0.0000000000000000e+00  5.7885242659683294e-05 -3.6400777291926116e-04 0.0000000000000000e+00  5.5918922245860940e-05 -3.5049821781443861e-04 0.0000000000000000e+00  5.3951909081864324e-05 -3.3701204195840700e-04 0.0000000000000000e+00  5.2010934250260560e-05 -3.2356802461789316e-04 0.0000000000000000e+00  5.0067577711394260e-05 -3.1016389192053398e-04 0.0000000000000000e+00  4.8159178811883083e-05 -2.9681986272963158e-04 0.0000000000000000e+00  4.6243486963587649e-05 -2.8353934582191345e-04 0.0000000000000000e+00  4.4374355984338997e-05 -2.7034146965964972e-04 0.0000000000000000e+00  4.2492292261884005e-05 -2.5723392187382380e-04 0.0000000000000000e+00  4.0671038962239648e-05 -2.4423624197802410e-04 0.0000000000000000e+00  3.8829639441297625e-05 -2.3135884180533852e-04 0.0000000000000000e+00  3.7061929615630862e-05 -2.1862179738504957e-04 0.0000000000000000e+00  3.5263497525964367e-05 -2.0604071380152255e-04 0.0000000000000000e+00  3.3554852881212422e-05 -1.9363778805553134e-04 0.0000000000000000e+00  3.1804662376409983e-05 -1.8143038102334921e-04 0.0000000000000000e+00  3.0153867160875805e-05 -1.6944456617292930e-04 0.0000000000000000e+00  2.8466165826098870e-05 -1.5766999356767224e-04 0.0000000000000000e+00  2.6809440282988443e-05 -1.4619583163430496e-04 0.0000000000000000e+00  2.5241430791681506e-05 -1.3494016963671649e-04 0.0000000000000000e+00  2.3652726510195048e-05 -1.2402077284514091e-04 0.0000000000000000e+00  2.2132148207788375e-05 -1.1340529672785578e-04 0.0000000000000000e+00  2.0605042641845939e-05 -1.0315475367361153e-04 0.0000000000000000e+00  1.9145709105278823e-05 -9.3260819692625189e-05 0.0000000000000000e+00  1.7678032609723457e-05 -8.3759174775652334e-05 0.0000000000000000e+00  1.6325086760179689e-05 -7.4719064190443312e-05 0.0000000000000000e+00  1.4894297438442150e-05 -6.6052800048561468e-05 0.0000000000000000e+00  1.3497824827685932e-05 -5.7932996771324158e-05 0.0000000000000000e+00  1.2240734121813706e-05 -5.0208031636535349e-05 0.0000000000000000e+00  1.0950824110753445e-05 -4.3062898039258248e-05 0.0000000000000000e+00  9.7530039417174168e-06 -3.6436422524504081e-05 0.0000000000000000e+00  8.5492558429109799e-06 -3.0379007554624828e-05 0.0000000000000000e+00  7.5061052938486690e-06 -2.4964308426701585e-05 0.0000000000000000e+00  6.3746081574392465e-06 -2.0065942169208935e-05 0.0000000000000000e+00  5.3092966399113688e-06 -1.5899217357174043e-05 0.0000000000000000e+00  4.4483112934952098e-06 -1.2253083766855893e-05 0.0000000000000000e+00  3.5668173030448581e-06 -9.3608726842641490e-06 0.0000000000000000e+00  2.8256633977611603e-06 -7.1213041160357473e-06 0.0000000000000000e+00  1.9315736722753294e-06 -5.4402320688651204e-06 0.0000000000000000e+00  1.0564795353839845e-06 -4.2023041291246083e-06 0.0000000000000000e+00  3.6306915930228493e-06 -5.8973691162366221e-07 0.0000000000000000e+00  8.9177757835711601e-05 -4.4939081060919157e-04 0.0000000000000000e+00  8.5517224812757021e-05 -4.2337994758524555e-04 0.0000000000000000e+00  7.9093066462180496e-05 -3.8099404962309356e-04 0.0000000000000000e+00  6.3404982485989371e-06 -3.8932661980495600e-06 0.0000000000000000e+00  7.4945454349599646e-05 -3.5440305264445985e-04 0.0000000000000000e+00  9.5614823272235513e-06 -9.6986031203380475e-06 0.0000000000000000e+00  7.0932578447735218e-05 -3.2739424065139096e-04 0.0000000000000000e+00  1.5285799684401723e-05 -2.4067789192450693e-05 0.0000000000000000e+00  1.9167260422272181e-05 -3.5998503094699658e-05 0.0000000000000000e+00  6.6922617339027277e-05 -3.0054660027681703e-04 0.0000000000000000e+00  2.8966439921744507e-05 -7.6114951730760563e-05 0.0000000000000000e+00  5.8916798267080059e-05 -2.4767846751474283e-04 0.0000000000000000e+00  2.2804545625434561e-05 -4.9813986549144066e-05 0.0000000000000000e+00  3.3022535299908468e-05 -9.4732139047222033e-05 0.0000000000000000e+00  5.4922985945359766e-05 -2.2187278540488739e-04 0.0000000000000000e+00  6.2916804915607913e-05 -2.7394199162867347e-04 0.0000000000000000e+00  3.7002253143187804e-05 -1.1530187586339655e-04 0.0000000000000000e+00  5.0933623090352157e-05 -1.9666001579270081e-04 0.0000000000000000e+00  4.0626408559727981e-05 -1.3634548206738710e-04 0.0000000000000000e+00  4.7238687091744568e-05 -1.7264721422297589e-04 0.0000000000000000e+00  4.3793197961230815e-05 -1.5349997201724981e-04 0.0000000000000000e+00  2.5909303111107996e-05 -6.1847222235938642e-05 0.0000000000000000e+00  8.2102566108110416e-05 -4.0307246885907009e-04 0.0000000000000000e+00  1.2342424246982561e-05 -1.5893936866732239e-05 0.0000000000000000e+00  8.0948675564992834e-05 -4.3725783537341620e-04 0.0000000000000000e+00  4.0162774072989381e-06 -3.4202088932657154e-06 0.0000000000000000e+00  6.7692003520381931e-05 -3.4171376106122169e-04 0.0000000000000000e+00  7.1684673386470594e-05 -3.6876764625521627e-04 0.0000000000000000e+00  9.4131460112192281e-06 -5.3156820491271686e-06 0.0000000000000000e+00  1.9590302972943636e-05 -2.8680049020344299e-05 0.0000000000000000e+00  5.5822134164146483e-05 -2.6162749775996986e-04 0.0000000000000000e+00  6.3714559562164270e-05 -3.1478789548663793e-04 0.0000000000000000e+00  3.4722778765401880e-05 -8.4113219643813946e-05 0.0000000000000000e+00  5.1916895253108465e-05 -2.3559036957520948e-04 0.0000000000000000e+00  2.3896271714237084e-05 -4.2021256183437653e-05 0.0000000000000000e+00  3.8992120204596834e-05 -1.0395149757620586e-04 0.0000000000000000e+00  4.8043317169857077e-05 -2.1007595207421482e-04 0.0000000000000000e+00  5.9756481010590843e-05 -2.8806233970208120e-04 0.0000000000000000e+00  4.4139780794923696e-05 -1.2490190571120790e-04 0.0000000000000000e+00  4.4199575406496046e-05 -1.8522841725679258e-04 0.0000000000000000e+00  2.3088630975371323e-06 7.3991093632785625e-07 0.0000000000000000e+00  1.9706074136564297e-06 -8.5230290335243445e-07 0.0000000000000000e+00  9.4928682704067849e-05 -4.5945692091727328e-04 0.0000000000000000e+00  5.6931634399347788e-06 -3.4488320765239503e-07 0.0000000000000000e+00  3.97421