<?xml version="1.0"?>
<VTKFile type="UnstructuredGrid"  version="0.1"  >
<UnstructuredGrid>
<Piece  NumberOfPoints="1419" NumberOfCells="2698">
<Points>
<DataArray  type="Float64"  NumberOfComponents="3"  format="ascii">0 0 0  0 0.41 0  2.5 0 0  2.5 0.41 0  0.6 0.19 0  0.6 0.21 0  0.25 0.2 0  0.15 0.2 0  0.2489897948556636 0.21 0  0.2489897948556636 0.19 0  0.6 0.2 0  0 0.3807142857143437 0  0 0.3514285714286952 0  0 0.3221428571430699 0  0 0.29285714285744 0  0 0.2635714285718054 0  0 0.2342857142861561 0  0 0.2050000000005308 0  0 0.175714285714732 0  0 0.1464285714289574 0  0 0.1171428571431897 0  0 0.08785714285737878 0  0 0.05857142857161107 0  0 0.02928571428580012 0  0.03015443760436003 0 0  0.06140001986583606 0 0  0.09377624077125973 0 0  0.1273239957535082 0 0  0.1620856860351972 0 0  0.1981052433264291 0 0  0.235428184091502 0 0  0.2741016576309132 0 0  0.3141745521465447 0 0  0.3556974926295285 0 0  0.3987229542472677 0 0  0.4433053055141081 0 0  0.4895008759286886 0 0  0.5373680609405097 0 0  0.5869673343216626 0 0  0.6383613676634521 0 0  0.6916151138468254 0 0  0.7467958595648856 0 0  0.8039733463919316 0 0  0.8632198139502143 0 0  0.9246101326867038 0 0  0.9882218810934433 0 0  1.054135445558498 0 0  1.122434100542598 0 0  1.193204177141305 0 0  1.266535089879536 0 0  1.342519516046404 0 0  1.421253448503939 0 0  1.502836389106271 0 0  1.587371439758838 0 0  1.674965418777374 0 0  1.765729001825544 0 0  1.859776908880082 0 0  1.957227977487062 0 0  2.058205329869943 0 0  2.162836591189951 0 0  2.271253957290865 0 0  2.383594446803425 0 0  2.5 0.1024999999997612 0  2.5 0.2049999999994743 0  2.5 0.3074999999997183 0  2.383594446803656 0.41 0  2.271253957291315 0.41 0  2.162836591190598 0.41 0  2.058205329870775 0.41 0  1.957227977488067 0.41 0  1.859776908881246 0.41 0  1.765729001826854 0.41 0  1.674965418778818 0.41 0  1.58737143976041 0.41 0  1.502836389107956 0.41 0  1.421253448505726 0.41 0  1.342519516048286 0.41 0  1.266535089881505 0.41 0  1.193204177143353 0.41 0  1.122434100544716 0.41 0  1.05413544556068 0.41 0  0.9882218810956305 0.41 0  0.9246101326886647 0.41 0  0.8632198139519631 0.41 0  0.8039733463934788 0.41 0  0.7467958595662458 0.41 0  0.6916151138480078 0.41 0  0.6383613676644679 0.41 0  0.5869673343225223 0.41 0  0.5373680609412221 0.41 0  0.4895008759292634 0.41 0  0.4433053055145528 0.41 0  0.3987229542475914 0.41 0  0.3556974926297398 0.41 0  0.3141745521466497 0.41 0  0.2741016576310038 0.41 0  0.2354281840915826 0.41 0  0.1981052433265003 0.41 0  0.1620856860352591 0.41 0  0.1273239957535623 0.41 0  0.09377624077128965 0.41 0  0.06140001986584975 0.41 0  0.03015443760436654 0.41 0  0.2497468076502589 0.2050254481002335 0  0.2497468076502614 0.1949745518997913 0  0.2469965252529372 0.1829317073451959 0  0.2439893735792749 0.1762316384219906 0  0.2400332147834255 0.1700443375285386 0  0.2352133972704371 0.1645032867342007 0  0.2296339016332438 0.1597280261969788 0  0.2234150974217223 0.1558215752574715 0  0.2166911463437691 0.1528682099456123 0  0.2096071079204251 0.1509316448471593 0  0.2023158100364996 0.1500536585536553 0  0.194974551899914 0.1502531923497262 0  0.1877417105387872 0.1515259415822739 0  0.1807733240461124 0.153844448527136 0  0.1742197252835808 0.15715869474974 0  0.1682222986673531 0.1613971801805478 0  0.162910430003803 0.1664684656256651 0  0.1583987151779087 0.1722631454351573 0  0.1547844879126891 0.178656207771761 0  0.1521457199348551 0.1855097315605723 0  0.1505393388476355 0.1926758619366523 0  0.1505393388476328 0.2073241380633295 0  0.1521457199348437 0.2144902684393899 0  0.1547844879126531 0.221343792228163 0  0.1583987151778488 0.2277368545647528 0  0.1629104300036858 0.2335315343742052 0  0.1682222986671726 0.2386028198193036 0  0.1742197252833576 0.2428413052501257 0  0.1807733240458683 0.2461555514727623 0  0.1877417105384929 0.2484740584176516 0  0.1949745518995776 0.2497468076502398 0  0.202315810036185 0.2499463414463592 0  0.2096071079201568 0.2490683551528932 0  0.2166911463435495 0.2471317900544655 0  0.2234150974215506 0.2441784247426195 0  0.2296339016331197 0.2402719738031125 0  0.2352133972703547 0.2354967132658811 0  0.2400332147833751 0.2299556624715287 0  0.2439893735792577 0.2237683615780412 0  0.246996525252926 0.2170682926548348 0  0.25645809709277 0.21 0  0.2639263993298655 0.21 0  0.271394701566961 0.21 0  0.2788630038040554 0.21 0  0.2863313060411479 0.21 0  0.2937996082782405 0.21 0  0.301267910515333 0.21 0  0.3087362127524279 0.21 0  0.3162045149895234 0.21 0  0.3236728172265972 0.21 0  0.3311411194636928 0.21 0  0.3386094217007701 0.21 0  0.3460777239378666 0.21 0  0.3535460261749672 0.21 0  0.3610143284120516 0.21 0  0.3684826306491596 0.21 0  0.3759509328862226 0.21 0  0.383419235123329 0.21 0  0.3908875373604028 0.21 0  0.3983558395975142 0.21 0  0.4058241418345938 0.21 0  0.4132924440716992 0.21 0  0.4207607463087888 0.21 0  0.4282290485459029 0.21 0  0.4356973507830418 0.21 0  0.4431656530201649 0.21 0  0.4506339552573136 0.21 0  0.4581022574944306 0.21 0  0.4655705597315852 0.21 0  0.4730388619686996 0.21 0  0.480507164205851 0.21 0  0.4879754664429498 0.21 0  0.4954437686800938 0.21 0  0.502912070917267 0.21 0  0.5103803731544119 0.21 0  0.5178486753915261 0.21 0  0.5253169776286404 0.21 0  0.5327852798657868 0.21 0  0.5402535821029386 0.21 0  0.54772188434007 0.21 0  0.5551901865771842 0.21 0  0.5626584888143201 0.21 0  0.5701267910514778 0.21 0  0.5775950932886138 0.21 0  0.5850633955257281 0.21 0  0.5925316977628483 0.21 0  0.6 0.2050000000000054 0  0.6 0.1950000000000217 0  0.5925316977628897 0.19 0  0.5850633955257988 0.19 0  0.5775950932887378 0.19 0  0.5701267910515998 0.19 0  0.5626584888145268 0.19 0  0.5551901865773963 0.19 0  0.547721884340339 0.19 0  0.5402535821032429 0.19 0  0.5327852798661811 0.19 0  0.5253169776290537 0.19 0  0.5178486753919799 0.19 0  0.5103803731549078 0.19 0  0.502912070917822 0.19 0  0.4954437686807294 0.19 0  0.4879754664436223 0.19 0  0.4805071642065402 0.19 0  0.4730388619694271 0.19 0  0.4655705597323621 0.19 0  0.4581022574952563 0.19 0  0.4506339552581777 0.19 0  0.4431656530210671 0.19 0  0.4356973507839815 0.19 0  0.4282290485468779 0.19 0  0.4207607463097617 0.19 0  0.4132924440726327 0.19 0  0.4058241418354857 0.19 0  0.3983558395983636 0.19 0  0.3908875373612097 0.19 0  0.3834192351240934 0.19 0  0.3759509328869369 0.19 0  0.3684826306498175 0.19 0  0.361014328412667 0.19 0  0.3535460261755617 0.19 0  0.3460777239384295 0.19 0  0.3386094217012945 0.19 0  0.3311411194641595 0.19 0  0.3236728172270245 0.19 0  0.3162045149898895 0.19 0  0.3087362127527544 0.19 0  0.3012679105156187 0.19 0  0.2937996082784807 0.19 0  0.2863313060413428 0.19 0  0.2788630038042048 0.19 0  0.2713947015670686 0.19 0  0.2639263993299336 0.19 0  0.2564580970927985 0.19 0  0.2607803159922026 0.2000727136295815 0  0.5887803774232762 0.2001272386983733 0  0.5745072403740523 0.2002044435018727 0  0.5511891430099709 0.2001122610077113 0  0.2751288526855082 0.20000000000002 0  0.5365194309847112 0.1999999999999436 0  0.2894621222999649 0.1998691686390484 0  0.5215828265105155 0.1999999999999228 0  0.3127789816668748 0.1998657885438805 0  0.3274069683451451 0.2000000000000796 0  0.5066462220363641 0.199999999999908 0  0.3650630746574081 0.199866017807523 0  0.476773013087985 0.1999999999998713 0  0.3417402379596385 0.1998691686391011 0  0.3796850840047755 0.200000000000134 0  0.4618364086138087 0.1999999999998546 0  0.4917096175621762 0.1999999999998808 0  0.3946216884789568 0.2000000000001512 0  0.446899804139621 0.1999999999998389 0  0.4089549580935208 0.1998691686391595 0  0.4322718174608562 0.200127451265745 0  0.4201487168029707 0.1999966199048527 0  0.3528922713220932 0.2000185703532356 0  0.5633122436674589 0.1999814296467508 0  0.3006558810093873 0.1999966199048318 0  0.5815926498168407 0.1966545283159175 0  0.2677053789419034 0.1964246479135325 0  0.5290511287476175 0.1970915826863981 0  0.5439877332217911 0.197091582686394 0  0.2825131256993216 0.2035478995978015 0  0.3199386661080599 0.202908417313604 0  0.4842413153250809 0.1970915826863873 0  0.5141145242734466 0.1970915826863843 0  0.3722167817676917 0.2029084173136195 0  0.4693047108508938 0.1970915826863783 0  0.3348752705822316 0.202908417313609 0  0.3871533862418661 0.2029084173136212 0  0.4543681063767183 0.1970915826863795 0  0.4991779197992749 0.1970915826863902 0  0.4020059614928624 0.203547899597858 0  0.4394315019025246 0.1970915826863714 0  0.2550657455369551 0.2034088125358657 0  0.2548908499171161 0.1966940311614271 0  0.5946539510196798 0.2024302972968126 0  0.267698176732111 0.2039977513680092 0  0.4261685417851465 0.196409292431739 0  0.3590076176283495 0.196411355804271 0  0.5571672426447437 0.2036011176410121 0  0.3066757059912147 0.1964092924317024 0  0.594380730180568 0.1966558399668133 0  0.4842413153245942 0.2040749161535287 0  0.4693047108503577 0.2040749161535231 0  0.3871533862424271 0.1959250838464788 0  0.372246743208829 0.1959123236376545 0  0.5141145242731028 0.2040749161535395 0  0.4543681063761134 0.2040749161535186 0  0.4019979587101454 0.1959834479682427 0  0.4394608940728603 0.2040870543693135 0  0.5439623148931173 0.2040856076781014 0  0.5290511287473298 0.2040749161535501 0  0.4991779197988497 0.2040749161535382 0  0.3347912413592433 0.1959225448935183 0  0.3199680582793816 0.1959123018030061 0  0.2825051229162361 0.1959834479681729 0  0.3590471196690275 0.2036304442587945 0  0.5571594006495384 0.1963685282145804 0  0.3067669986803285 0.203627750582736 0  0.4262598344738712 0.2036568242185335 0  0.5814408164431408 0.2041285596160068 0  0.5688286748170428 0.1961819304477386 0  0.4145905603063645 0.2038180695522843 0  0.3473758401724931 0.2038180695522752 0  0.2950977245128307 0.2038180695522663 0  0.5688286748170693 0.203818069552238 0  0.2950977245127906 0.1961819304477774 0  0.3473758401723931 0.1961819304478349 0  0.4145905603061963 0.1961819304479011 0  0.2601812407614425 0.2056861609747042
[...]
<PointData  Vectors="f_46-0"> 
<DataArray  type="Float64"  Name="f_46-0"  NumberOfComponents="3" format="ascii">0.0000000000000000e+00 0.0000000000000000e+00 0.0000000000000000e+00  0.0000000000000000e+00 0.0000000000000000e+00 0.0000000000000000e+00  0.0000000000000000e+00 0.0000000000000000e+00 0.0000000000000000e+00  0.0000000000000000e+00 0.0000000000000000e+00 0.0000000000000000e+00  6.3975310559405269e-05 -3.2161109540623746e-04 0.0000000000000000e+00  8.8306769135777045e-05 -3.2204521648329247e-04 0.0000000000000000e+00  0.0000000000000000e+00 0.0000000000000000e+00 0.0000000000000000e+00  0.0000000000000000e+00 0.0000000000000000e+00 0.0000000000000000e+00  0.0000000000000000e+00 0.0000000000000000e+00 0.0000000000000000e+00  0.0000000000000000e+00 0.0000000000000000e+00 0.0000000000000000e+00  7.5544939744493167e-05 -3.2183181259811463e-04 0.0000000000000000e+00  4.4162896053542545e-02 0.0000000000000000e+00 0.0000000000000000e+00  8.1531500406545512e-02 0.0000000000000000e+00 0.0000000000000000e+00  1.1210581305900010e-01 0.0000000000000000e+00 0.0000000000000000e+00  1.3588583401094170e-01 0.0000000000000000e+00 0.0000000000000000e+00  1.5287156326236725e-01 0.0000000000000000e+00 0.0000000000000000e+00  1.6306300081327574e-01 0.0000000000000000e+00 0.0000000000000000e+00  1.6646014666365697e-01 0.0000000000000000e+00 0.0000000000000000e+00  1.6306300081348180e-01 0.0000000000000000e+00 0.0000000000000000e+00  1.5287156326272119e-01 0.0000000000000000e+00 0.0000000000000000e+00  1.3588583401138002e-01 0.0000000000000000e+00 0.0000000000000000e+00  1.1210581305941647e-01 0.0000000000000000e+00 0.0000000000000000e+00  8.1531500406900825e-02 0.0000000000000000e+00 0.0000000000000000e+00  4.4162896053742760e-02 0.0000000000000000e+00 0.0000000000000000e+00  0.0000000000000000e+00 0.0000000000000000e+00 0.0000000000000000e+00  0.0000000000000000e+00 0.0000000000000000e+00 0.0000000000000000e+00  0.0000000000000000e+00 0.0000000000000000e+00 0.0000000000000000e+00  0.0000000000000000e+00 0.0000000000000000e+00 0.0000000000000000e+00  0.0000000000000000e+00 0.0000000000000000e+00 0.0000000000000000e+00  0.0000000000000000e+00 0.0000000000000000e+00 0.0000000000000000e+00  0.0000000000000000e+00 0.0000000000000000e+00 0.0000000000000000e+00  0.0000000000000000e+00 0.0000000000000000e+00 0.0000000000000000e+00  0.0000000000000000e+00 0.0000000000000000e+00 0.0000000000000000e+00  0.0000000000000000e+00 0.0000000000000000e+00 0.0000000000000000e+00  0.0000000000000000e+00 0.0000000000000000e+00 0.0000000000000000e+00  0.0000000000000000e+00 0.0000000000000000e+00 0.0000000000000000e+00  0.0000000000000000e+00 0.0000000000000000e+00 0.0000000000000000e+00  0.0000000000000000e+00 0.0000000000000000e+00 0.0000000000000000e+00  0.0000000000000000e+00 0.0000000000000000e+00 0.0000000000000000e+00  0.0000000000000000e+00 0.0000000000000000e+00 0.0000000000000000e+00  0.0000000000000000e+00 0.0000000000000000e+00 0.0000000000000000e+00  0.0000000000000000e+00 0.0000000000000000e+00 0.0000000000000000e+00  0.0000000000000000e+00 0.0000000000000000e+00 0.0000000000000000e+00  0.0000000000000000e+00 0.0000000000000000e+00 0.0000000000000000e+00  0.0000000000000000e+00 0.0000000000000000e+00 0.0000000000000000e+00  0.0000000000000000e+00 0.0000000000000000e+00 0.0000000000000000e+00  0.0000000000000000e+00 0.0000000000000000e+00 0.0000000000000000e+00  0.0000000000000000e+00 0.0000000000000000e+00 0.0000000000000000e+00  0.0000000000000000e+00 0.0000000000000000e+00 0.0000000000000000e+00  0.0000000000000000e+00 0.0000000000000000e+00 0.0000000000000000e+00  0.0000000000000000e+00 0.0000000000000000e+00 0.0000000000000000e+00  0.0000000000000000e+00 0.0000000000000000e+00 0.0000000000000000e+00  0.0000000000000000e+00 0.0000000000000000e+00 0.0000000000000000e+00  0.0000000000000000e+00 0.0000000000000000e+00 0.0000000000000000e+00  0.0000000000000000e+00 0.0000000000000000e+00 0.0000000000000000e+00  0.0000000000000000e+00 0.0000000000000000e+00 0.0000000000000000e+00  0.0000000000000000e+00 0.0000000000000000e+00 0.0000000000000000e+00  0.0000000000000000e+00 0.0000000000000000e+00 0.0000000000000000e+00  0.0000000000000000e+00 0.0000000000000000e+00 0.0000000000000000e+00  0.0000000000000000e+00 0.0000000000000000e+00 0.0000000000000000e+00  0.0000000000000000e+00 0.0000000000000000e+00 0.0000000000000000e+00  0.0000000000000000e+00 0.0000000000000000e+00 0.0000000000000000e+00  1.5850022183270371e-01 1.6972265388798077e-02 0.0000000000000000e+00  1.2275116645451073e-01 1.5979380565873484e-03 0.0000000000000000e+00  1.6038032353520057e-01 -1.9181817064546434e-02 0.0000000000000000e+00  0.0000000000000000e+00 0.0000000000000000e+00 0.0000000000000000e+00  0.0000000000000000e+00 0.0000000000000000e+00 0.0000000000000000e+00  0.0000000000000000e+00 0.0000000000000000e+00 0.0000000000000000e+00  0.0000000000000000e+00 0.0000000000000000e+00 0.0000000000000000e+00  0.0000000000000000e+00 0.0000000000000000e+00 0.0000000000000000e+00  0.0000000000000000e+00 0.0000000000000000e+00 0.0000000000000000e+00  0.0000000000000000e+00 0.0000000000000000e+00 0.0000000000000000e+00  0.0000000000000000e+00 0.0000000000000000e+00 0.0000000000000000e+00  0.0000000000000000e+00 0.0000000000000000e+00 0.0000000000000000e+00  0.0000000000000000e+00 0.0000000000000000e+00 0.0000000000000000e+00  0.0000000000000000e+00 0.0000000000000000e+00 0.0000000000000000e+00  0.0000000000000000e+00 0.0000000000000000e+00 0.0000000000000000e+00  0.0000000000000000e+00 0.0000000000000000e+00 0.0000000000000000e+00  0.0000000000000000e+00 0.0000000000000000e+00 0.0000000000000000e+00  0.0000000000000000e+00 0.0000000000000000e+00 0.0000000000000000e+00  0.0000000000000000e+00 0.0000000000000000e+00 0.0000000000000000e+00  0.0000000000000000e+00 0.0000000000000000e+00 0.0000000000000000e+00  0.0000000000000000e+00 0.0000000000000000e+00 0.0000000000000000e+00  0.0000000000000000e+00 0.0000000000000000e+00 0.0000000000000000e+00  0.0000000000000000e+00 0.0000000000000000e+00 0.0000000000000000e+00  0.0000000000000000e+00 0.0000000000000000e+00 0.0000000000000000e+00  0.0000000000000000e+00 0.0000000000000000e+00 0.0000000000000000e+00  0.0000000000000000e+00 0.0000000000000000e+00 0.0000000000000000e+00  0.0000000000000000e+00 0.0000000000000000e+00 0.0000000000000000e+00  0.0000000000000000e+00 0.0000000000000000e+00 0.0000000000000000e+00  0.0000000000000000e+00 0.0000000000000000e+00 0.0000000000000000e+00  0.0000000000000000e+00 0.0000000000000000e+00 0.0000000000000000e+00  0.0000000000000000e+00 0.0000000000000000e+00 0.0000000000000000e+00  0.0000000000000000e+00 0.0000000000000000e+00 0.0000000000000000e+00  0.0000000000000000e+00 0.0000000000000000e+00 0.0000000000000000e+00  0.0000000000000000e+00 0.0000000000000000e+00 0.0000000000000000e+00  0.0000000000000000e+00 0.0000000000000000e+00 0.0000000000000000e+00  0.0000000000000000e+00 0.0000000000000000e+00 0.0000000000000000e+00  0.0000000000000000e+00 0.0000000000000000e+00 0.0000000000000000e+00  0.0000000000000000e+00 0.0000000000000000e+00 0.0000000000000000e+00  0.0000000000000000e+00 0.0000000000000000e+00 0.0000000000000000e+00  0.0000000000000000e+00 0.0000000000000000e+00 0.0000000000000000e+00  0.0000000000000000e+00 0.0000000000000000e+00 0.0000000000000000e+00  0.0000000000000000e+00 0.0000000000000000e+00 0.0000000000000000e+00  0.0000000000000000e+00 0.0000000000000000e+00 0.0000000000000000e+00  -6.7473908666221223e-16 0.0000000000000000e+00 0.0000000000000000e+00  0.0000000000000000e+00 0.0000000000000000e+00 0.0000000000000000e+00  0.0000000000000000e+00 0.0000000000000000e+00 0.0000000000000000e+00  0.0000000000000000e+00 0.0000000000000000e+00 0.0000000000000000e+00  0.0000000000000000e+00 0.0000000000000000e+00 0.0000000000000000e+00  0.0000000000000000e+00 0.0000000000000000e+00 0.0000000000000000e+00  0.0000000000000000e+00 0.0000000000000000e+00 0.0000000000000000e+00  0.0000000000000000e+00 0.0000000000000000e+00 0.0000000000000000e+00  0.0000000000000000e+00 0.0000000000000000e+00 0.0000000000000000e+00  0.0000000000000000e+00 0.0000000000000000e+00 0.0000000000000000e+00  0.0000000000000000e+00 0.0000000000000000e+00 0.0000000000000000e+00  0.0000000000000000e+00 0.0000000000000000e+00 0.0000000000000000e+00  0.0000000000000000e+00 0.0000000000000000e+00 0.0000000000000000e+00  0.0000000000000000e+00 0.0000000000000000e+00 0.0000000000000000e+00  0.0000000000000000e+00 0.0000000000000000e+00 0.0000000000000000e+00  0.0000000000000000e+00 0.0000000000000000e+00 0.0000000000000000e+00  0.0000000000000000e+00 0.0000000000000000e+00 0.0000000000000000e+00  0.0000000000000000e+00 0.0000000000000000e+00 0.0000000000000000e+00  0.0000000000000000e+00 0.0000000000000000e+00 0.0000000000000000e+00  0.0000000000000000e+00 0.0000000000000000e+00 0.0000000000000000e+00  0.0000000000000000e+00 0.0000000000000000e+00 0.0000000000000000e+00  0.0000000000000000e+00 0.0000000000000000e+00 0.0000000000000000e+00  0.0000000000000000e+00 0.0000000000000000e+00 0.0000000000000000e+00  0.0000000000000000e+00 0.0000000000000000e+00 0.0000000000000000e+00  0.0000000000000000e+00 0.0000000000000000e+00 0.0000000000000000e+00  0.0000000000000000e+00 0.0000000000000000e+00 0.0000000000000000e+00  0.0000000000000000e+00 0.0000000000000000e+00 0.0000000000000000e+00  0.0000000000000000e+00 0.0000000000000000e+00 0.0000000000000000e+00  0.0000000000000000e+00 0.0000000000000000e+00 0.0000000000000000e+00  0.0000000000000000e+00 0.0000000000000000e+00 0.0000000000000000e+00  0.0000000000000000e+00 0.0000000000000000e+00 0.0000000000000000e+00  0.0000000000000000e+00 0.0000000000000000e+00 0.0000000000000000e+00  0.0000000000000000e+00 0.0000000000000000e+00 0.0000000000000000e+00  0.0000000000000000e+00 0.0000000000000000e+00 0.0000000000000000e+00  0.0000000000000000e+00 0.0000000000000000e+00 0.0000000000000000e+00  0.0000000000000000e+00 0.0000000000000000e+00 0.0000000000000000e+00  0.0000000000000000e+00 0.0000000000000000e+00 0.0000000000000000e+00  -2.1835861105689081e-16 0.0000000000000000e+00 0.0000000000000000e+00  2.8009249140830521e-06 -2.2109910262574963e-06 0.0000000000000000e+00  5.8557922082625129e-06 -3.1416071209351114e-06 0.0000000000000000e+00  8.9743616355459405e-06 -4.4906594917242612e-06 0.0000000000000000e+00  1.2207990843159496e-05 -6.3370446041746278e-06 0.0000000000000000e+00  1.5324248558214563e-05 -8.6372478114215166e-06 0.0000000000000000e+00  1.8511683232801664e-05 -1.1458457286380995e-05 0.0000000000000000e+00  2.1534004934833928e-05 -1.4647202681729458e-05 0.0000000000000000e+00  2.4501509556420795e-05 -1.8329572557980272e-05 0.0000000000000000e+00  2.7522338425504416e-05 -2.2395418221147263e-05 0.0000000000000000e+00  3.0332509163507950e-05 -2.6832359730636707e-05 0.0000000000000000e+00  3.3205275839225842e-05 -3.1688253920698404e-05 0.0000000000000000e+00  3.5874285757054659e-05 -3.6863434773102431e-05 0.0000000000000000e+00  3.8565348006622882e-05 -4.2402082464888811e-05 0.0000000000000000e+00  4.1103328492122646e-05 -4.8213055379539165e-05 0.0000000000000000e+00  4.3570637362482092e-05 -5.4355334145059201e-05 0.0000000000000000e+00  4.6045722998731756e-05 -6.0761597252702091e-05 0.0000000000000000e+00  4.8351962097887108e-05 -6.7396133471355770e-05 0.0000000000000000e+00  5.0667200832489813e-05 -7.4316165215079327e-05 0.0000000000000000e+00  5.2828708240765829e-05 -8.1412782704023054e-05 0.0000000000000000e+00  5.4987824749953737e-05 -8.8752119846641976e-05 0.0000000000000000e+00  5.7022535978130087e-05 -9.6245721419809712e-05 0.0000000000000000e+00  5.9019859988978161e-05 -1.0394653111312598e-04 0.0000000000000000e+00  6.0919456775754689e-05 -1.1177818806809151e-04 0.0000000000000000e+00  6.2754547215555383e-05 -1.1977479770576861e-04 0.0000000000000000e+00  6.4565728563602869e-05 -1.2789770008076053e-04 0.0000000000000000e+00  6.6275680129653495e-05 -1.3612776657771425e-04 0.0000000000000000e+00  6.7928915364568300e-05 -1.4450643570730124e-04 0.0000000000000000e+00  6.9507468687304974e-05 -1.5294158494831895e-04 0.0000000000000000e+00  7.1029214327658676e-05 -1.6150508811624566e-04 0.0000000000000000e+00  7.2480252452189169e-05 -1.7010580313058147e-04 0.0000000000000000e+00  7.3875213388814546e-05 -1.7881321372566057e-04 0.0000000000000000e+00  7.5201758318324544e-05 -1.8753749854429641e-04 0.0000000000000000e+00  7.6472239670106294e-05 -1.9635105765986478e-04 0.0000000000000000e+00  7.7676562449116164e-05 -2.0516670339231551e-04 0.0000000000000000e+00  7.8823416420588483e-05 -2.1405952409700194e-04 0.0000000000000000e+00  7.9908147419609826e-05 -2.2294136334228027e-04 0.0000000000000000e+00  8.0936634318984381e-05 -2.3188621196068565e-04 0.0000000000000000e+00  8.1904561666900212e-05 -2.4081196984500778e-04 0.0000000000000000e+00  8.2815343614750612e-05 -2.4979231736743993e-04 0.0000000000000000e+00  8.3663905619455188e-05 -2.5874527773368040e-04 0.0000000000000000e+00  8.4446239692662946e-05 -2.6773217696605663e-04 0.0000000000000000e+00  8.5179426638332565e-05 -2.7671067647409316e-04 0.0000000000000000e+00  8.5850333309831070e-05 -2.8570054897598387e-04 0.0000000000000000e+00  8.6485431522571578e-05 -2.9469042410569296e-04 0.0000000000000000e+00  8.7048209085021511e-05 -3.0365757900461653e-04 0.0000000000000000e+00  8.7615834220959761e-05 -3.1269582255879499e-04 0.0000000000000000e+00  8.1728001464653852e-05 -3.2192773107046394e-04 0.0000000000000000e+00  6.9581945118852656e-05 -3.2174165380350960e-04 0.0000000000000000e+00  6.3305371270275839e-05 -3.1281437509065278e-04 0.0000000000000000e+00  6.2770826696167248e-05 -3.0369913443718891e-04 0.0000000000000000e+00  6.2228328206487474e-05 -2.9454782182973879e-04 0.0000000000000000e+00  6.1618320190088329e-05 -2.8543496191262604e-04 0.0000000000000000e+00  6.0969528470483098e-05 -2.7632882811819809e-04 0.0000000000000000e+00  6.0257276581516149e-05 -2.6723184540351205e-04 0.0000000000000000e+00  5.9502534437483066e-05 -2.5815502765797258e-04 0.0000000000000000e+00  5.8683410051102306e-05 -2.4906312284328751e-04 0.0000000000000000e+00  5.7817881108494196e-05 -2.4002316556855807e-04 0.0000000000000000e+00  5.6897402221223471e-05 -2.3095978526208253e-04 0.0000000000000000e+00  5.5937631874360110e-05 -2.2195615546517701e-04 0.0000000000000000e+00  5.4922994886378718e-05 -2.1293701262127771e-04 0.0000000000000000e+00  5.3873583493129902e-05 -2.0398696582153968e-04 0.0000000000000000e+00  5.2768805637008671e-05 -1.9503627597645975e-04 0.0000000000000000e+00  5.1637485004262853e-05 -1.8616603940182718e-04 0.0000000000000000e+00  5.0447187412497169e-05 -1.7730922766371785e-04 0.0000000000000000e+00  4.9238959762623555e-05 -1.6854717914277975e-04 0.0000000000000000e+00  4.7968489514812819e-05 -1.5981469512733732e-04 0.0000000000000000e+00  4.6687449020226453e-05 -1.5119579203835522e-04 0.0000000000000000e+00  4.5339632075757356e-05 -1.4263004290034686e-04 0.0000000000000000e+00  4.3991489900962143e-05 -1.3419901697537672e-04 0.0000000000000000e+00  4.2569614236261746e-05 -1.2584515966258908e-04 0.0000000000000000e+00  4.1146704626460609e-05 -1.1763895049781961e-04 0.0000000000000000e+00  3.9663329521701947e-05 -1.0954421255966935e-04 0.0000000000000000e+00  3.8141075397335097e-05 -1.0162414244211725e-04 0.0000000000000000e+00  3.6636224766774386e-05 -9.3835649684095922e-05 0.0000000000000000e+00  3.5060598437307656e-05 -8.6223275480149208e-05 0.0000000000000000e+00  3.3476864198644655e-05 -7.8821087948018371e-05 0.0000000000000000e+00  3.1841217593768465e-05 -7.1599224890595597e-05 0.0000000000000000e+00  3.0198394865293411e-05 -6.4623926706871879e-05 0.0000000000000000e+00  2.8502571282074956e-05 -5.7850869753748471e-05 0.0000000000000000e+00  2.6824067232431200e-05 -5.1385179027065853e-05 0.0000000000000000e+00  2.5064180585770143e-05 -4.5138639226300107e-05 0.0000000000000000e+00  2.3273011584939760e-05 -3.9243613629626492e-05 0.0000000000000000e+00  2.1539848842804353e-05 -3.3600334111706946e-05 0.0000000000000000e+00  1.9725824590447005e-05 -2.8318475352846988e-05 0.0000000000000000e+00  1.7922432565439396e-05 -2.3408901599970175e-05 0.0000000000000000e+00  1.6060520044397369e-05 -1.8846254388006800e-05 0.0000000000000000e+00  1.4248719035616312e-05 -1.4740801312737567e-05 0.0000000000000000e+00  1.2334156927095099e-05 -1.0983507364103938e-05 0.0000000000000000e+00  1.0399634364493013e-05 -7.7451469191728534e-06 0.0000000000000000e+00  8.5738931911135454e-06 -4.8881681321026164e-06 0.0000000000000000e+00  6.6696067096731093e-06 -2.5421783540496878e-06 0.0000000000000000e+00  4.8802789753098279e-06 -7.1331540163978990e-07 0.0000000000000000e+00  3.0622376447748406e-06 5.4677487550875384e-07 0.0000000000000000e+00  1.4917838156537986e-06 1.1825733732050175e-06 0.0000000000000000e+00  3.1321315651095909e-06 -5.4088167552467635e-07 0.0000000000000000e+00  7.5107468997370248e-05 -3.0818564502916825e-04 0.0000000000000000e+00  7.4258786138809940e-05 -2.9086969479314752e-04 0.0000000000000000e+00  7.1992001217093996e-05 -2.6263819267734585e-04 0.0000000000000000e+00  8.1338355959658450e-06 -3.1279978665915784e-06 0.0000000000000000e+00  7.0208297037567749e-05 -2.4491000544577343e-04 0.0000000000000000e+00  1.2913641581839705e-05 -7.5523640847269225e-06 0.0000000000000000e+00  6.8324956096981742e-05 -2.2691719037172518e-04 0.0000000000000000e+00  2.0538749304425086e-05 -1.8403251474354639e-05 0.0000000000000000e+00  2.5214681160849963e-05 -2.7280057381215508e-05 0.0000000000000000e+00  6.6229900471938001e-05 -2.0901111111288343e-04 0.0000000000000000e+00  3.6129053324857956e-05 -5.6129413516959055e-05 0.0000000000000000e+00  6.1417504162406726e-05 -1.7364346940902713e-04 0.0000000000000000e+00  2.9470381412285667e-05 -3.7290800005315381e-05 0.0000000000000000e+00  4.0175676456896202e-05 -6.9304824201567888e-05 0.0000000000000000e+00  5.8705504556398853e-05 -1.5629954789335033e-04 0.0000000000000000e+00  6.3926484972973074e-05 -1.9123522743793304e-04 0.0000000000000000e+00  4.4001464286532256e-05 -8.3646425306257855e-05 0.0000000000000000e+00  5.5790431589201809e-05 -1.3928483530148631e-04 0.0000000000000000e+00  4.7354166368385005e-05 -9.8134112773772626e-05 0.0000000000000000e+00  5.2887602066546111e-05 -1.2303816509339442e-04 0.0000000000000000e+00  5.0046290716189066e-05 -1.0993729232978932e-04 0.0000000000000000e+00  3.2810080567022718e-05 -4.6010425538697692e-05 0.0000000000000000e+00  7.2995957378959247e-05 -2.7730672159753341e-04 0.0000000000000000e+00  1.6651612598032404e-05 -1.2322580923393660e-05 0.0000000000000000e+00  7.0465599999855271e-05 -2.9946863913642288e-04 0.0000000000000000e+00  4.9679280606218434e-06 -9.0443759226190192e-07 0.0000000000000000e+00  6.5797711621047876e-05 -2.3578236502298805e-04 0.0000000000000000e+00  6.7563101617201731e-05 -2.5383338135318489e-04 0.0000000000000000e+00  1.1705419243079952e-05 -5.9179248880107575e-06 0.0000000000000000e+00  2.4627024730549514e-05 -2.3113844651393916e-05 0.0000000000000000e+00  5.9284765710319678e-05 -1.8220914481111743e-04 0.0000000000000000e+00  6.3826807899026834e-05 -2.1780053673201843e-04 0.0000000000000000e+00  4.0789734989842302e-05 -6.2900892889073833e-05 0.0000000000000000e+00  5.6724664648588778e-05 -1.6470633976314094e-04 0.0000000000000000e+00  2.9516818454228392e-05 -3.2863104438253056e-05 0.0000000000000000e+00  4.4888452528342294e-05 -7.6776474970795304e-05 0.0000000000000000e+00  5.3976173568850420e-05 -1.4749054948899306e-04 0.0000000000000000e+00  6.1653868481652873e-05 -1.9992595993477370e-04 0.0000000000000000e+00  4.9393283944198564e-05 -9.1496177181625240e-05 0.0000000000000000e+00  5.1041987081346254e-05 -1.3064943016474583e-04 0.0000000000000000e+00  1.4109848706577383e-06 -5.4052320644142440e-07 0.0000000000000000e+00  1.1427862469292190e-06 3.0232808717003882e-07 0.0000000000000000e+00  7.8223381639375836e-05 -3.1531349809642230e-04 0.0000000000000000e+00  6.2894757568179528e-06 -2.3873063944936293e-06 0.0000000000000000e+00  4.7554