<?xml version="1.0"?>
<VTKFile type="UnstructuredGrid"  version="0.1"  >
<UnstructuredGrid>
<Piece  NumberOfPoints="1419" NumberOfCells="2698">
<Points>
<DataArray  type="Float64"  NumberOfComponents="3"  format="ascii">0 0 0  0 0.41 0  2.5 0 0  2.5 0.41 0  0.6 0.19 0  0.6 0.21 0  0.25 0.2 0  0.15 0.2 0  0.2489897948556636 0.21 0  0.2489897948556636 0.19 0  0.6 0.2 0  0 0.3807142857143437 0  0 0.3514285714286952 0  0 0.3221428571430699 0  0 0.29285714285744 0  0 0.2635714285718054 0  0 0.2342857142861561 0  0 0.2050000000005308 0  0 0.175714285714732 0  0 0.1464285714289574 0  0 0.1171428571431897 0  0 0.08785714285737878 0  0 0.05857142857161107 0  0 0.02928571428580012 0  0.03015443760436003 0 0  0.06140001986583606 0 0  0.09377624077125973 0 0  0.1273239957535082 0 0  0.1620856860351972 0 0  0.1981052433264291 0 0  0.235428184091502 0 0  0.2741016576309132 0 0  0.3141745521465447 0 0  0.3556974926295285 0 0  0.3987229542472677 0 0  0.4433053055141081 0 0  0.4895008759286886 0 0  0.5373680609405097 0 0  0.5869673343216626 0 0  0.6383613676634521 0 0  0.6916151138468254 0 0  0.7467958595648856 0 0  0.8039733463919316 0 0  0.8632198139502143 0 0  0.9246101326867038 0 0  0.9882218810934433 0 0  1.054135445558498 0 0  1.122434100542598 0 0  1.193204177141305 0 0  1.266535089879536 0 0  1.342519516046404 0 0  1.421253448503939 0 0  1.502836389106271 0 0  1.587371439758838 0 0  1.674965418777374 0 0  1.765729001825544 0 0  1.859776908880082 0 0  1.957227977487062 0 0  2.058205329869943 0 0  2.162836591189951 0 0  2.271253957290865 0 0  2.383594446803425 0 0  2.5 0.1024999999997612 0  2.5 0.2049999999994743 0  2.5 0.3074999999997183 0  2.383594446803656 0.41 0  2.271253957291315 0.41 0  2.162836591190598 0.41 0  2.058205329870775 0.41 0  1.957227977488067 0.41 0  1.859776908881246 0.41 0  1.765729001826854 0.41 0  1.674965418778818 0.41 0  1.58737143976041 0.41 0  1.502836389107956 0.41 0  1.421253448505726 0.41 0  1.342519516048286 0.41 0  1.266535089881505 0.41 0  1.193204177143353 0.41 0  1.122434100544716 0.41 0  1.05413544556068 0.41 0  0.9882218810956305 0.41 0  0.9246101326886647 0.41 0  0.8632198139519631 0.41 0  0.8039733463934788 0.41 0  0.7467958595662458 0.41 0  0.6916151138480078 0.41 0  0.6383613676644679 0.41 0  0.5869673343225223 0.41 0  0.5373680609412221 0.41 0  0.4895008759292634 0.41 0  0.4433053055145528 0.41 0  0.3987229542475914 0.41 0  0.3556974926297398 0.41 0  0.3141745521466497 0.41 0  0.2741016576310038 0.41 0  0.2354281840915826 0.41 0  0.1981052433265003 0.41 0  0.1620856860352591 0.41 0  0.1273239957535623 0.41 0  0.09377624077128965 0.41 0  0.06140001986584975 0.41 0  0.03015443760436654 0.41 0  0.2497468076502589 0.2050254481002335 0  0.2497468076502614 0.1949745518997913 0  0.2469965252529372 0.1829317073451959 0  0.2439893735792749 0.1762316384219906 0  0.2400332147834255 0.1700443375285386 0  0.2352133972704371 0.1645032867342007 0  0.2296339016332438 0.1597280261969788 0  0.2234150974217223 0.1558215752574715 0  0.2166911463437691 0.1528682099456123 0  0.2096071079204251 0.1509316448471593 0  0.2023158100364996 0.1500536585536553 0  0.194974551899914 0.1502531923497262 0  0.1877417105387872 0.1515259415822739 0  0.1807733240461124 0.153844448527136 0  0.1742197252835808 0.15715869474974 0  0.1682222986673531 0.1613971801805478 0  0.162910430003803 0.1664684656256651 0  0.1583987151779087 0.1722631454351573 0  0.1547844879126891 0.178656207771761 0  0.1521457199348551 0.1855097315605723 0  0.1505393388476355 0.1926758619366523 0  0.1505393388476328 0.2073241380633295 0  0.1521457199348437 0.2144902684393899 0  0.1547844879126531 0.221343792228163 0  0.1583987151778488 0.2277368545647528 0  0.1629104300036858 0.2335315343742052 0  0.1682222986671726 0.2386028198193036 0  0.1742197252833576 0.2428413052501257 0  0.1807733240458683 0.2461555514727623 0  0.1877417105384929 0.2484740584176516 0  0.1949745518995776 0.2497468076502398 0  0.202315810036185 0.2499463414463592 0  0.2096071079201568 0.2490683551528932 0  0.2166911463435495 0.2471317900544655 0  0.2234150974215506 0.2441784247426195 0  0.2296339016331197 0.2402719738031125 0  0.2352133972703547 0.2354967132658811 0  0.2400332147833751 0.2299556624715287 0  0.2439893735792577 0.2237683615780412 0  0.246996525252926 0.2170682926548348 0  0.25645809709277 0.21 0  0.2639263993298655 0.21 0  0.271394701566961 0.21 0  0.2788630038040554 0.21 0  0.2863313060411479 0.21 0  0.2937996082782405 0.21 0  0.301267910515333 0.21 0  0.3087362127524279 0.21 0  0.3162045149895234 0.21 0  0.3236728172265972 0.21 0  0.3311411194636928 0.21 0  0.3386094217007701 0.21 0  0.3460777239378666 0.21 0  0.3535460261749672 0.21 0  0.3610143284120516 0.21 0  0.3684826306491596 0.21 0  0.3759509328862226 0.21 0  0.383419235123329 0.21 0  0.3908875373604028 0.21 0  0.3983558395975142 0.21 0  0.4058241418345938 0.21 0  0.4132924440716992 0.21 0  0.4207607463087888 0.21 0  0.4282290485459029 0.21 0  0.4356973507830418 0.21 0  0.4431656530201649 0.21 0  0.4506339552573136 0.21 0  0.4581022574944306 0.21 0  0.4655705597315852 0.21 0  0.4730388619686996 0.21 0  0.480507164205851 0.21 0  0.4879754664429498 0.21 0  0.4954437686800938 0.21 0  0.502912070917267 0.21 0  0.5103803731544119 0.21 0  0.5178486753915261 0.21 0  0.5253169776286404 0.21 0  0.5327852798657868 0.21 0  0.5402535821029386 0.21 0  0.54772188434007 0.21 0  0.5551901865771842 0.21 0  0.5626584888143201 0.21 0  0.5701267910514778 0.21 0  0.5775950932886138 0.21 0  0.5850633955257281 0.21 0  0.5925316977628483 0.21 0  0.6 0.2050000000000054 0  0.6 0.1950000000000217 0  0.5925316977628897 0.19 0  0.5850633955257988 0.19 0  0.5775950932887378 0.19 0  0.5701267910515998 0.19 0  0.5626584888145268 0.19 0  0.5551901865773963 0.19 0  0.547721884340339 0.19 0  0.5402535821032429 0.19 0  0.5327852798661811 0.19 0  0.5253169776290537 0.19 0  0.5178486753919799 0.19 0  0.5103803731549078 0.19 0  0.502912070917822 0.19 0  0.4954437686807294 0.19 0  0.4879754664436223 0.19 0  0.4805071642065402 0.19 0  0.4730388619694271 0.19 0  0.4655705597323621 0.19 0  0.4581022574952563 0.19 0  0.4506339552581777 0.19 0  0.4431656530210671 0.19 0  0.4356973507839815 0.19 0  0.4282290485468779 0.19 0  0.4207607463097617 0.19 0  0.4132924440726327 0.19 0  0.4058241418354857 0.19 0  0.3983558395983636 0.19 0  0.3908875373612097 0.19 0  0.3834192351240934 0.19 0  0.3759509328869369 0.19 0  0.3684826306498175 0.19 0  0.361014328412667 0.19 0  0.3535460261755617 0.19 0  0.3460777239384295 0.19 0  0.3386094217012945 0.19 0  0.3311411194641595 0.19 0  0.3236728172270245 0.19 0  0.3162045149898895 0.19 0  0.3087362127527544 0.19 0  0.3012679105156187 0.19 0  0.2937996082784807 0.19 0  0.2863313060413428 0.19 0  0.2788630038042048 0.19 0  0.2713947015670686 0.19 0  0.2639263993299336 0.19 0  0.2564580970927985 0.19 0  0.2607803159922026 0.2000727136295815 0  0.5887803774232762 0.2001272386983733 0  0.5745072403740523 0.2002044435018727 0  0.5511891430099709 0.2001122610077113 0  0.2751288526855082 0.20000000000002 0  0.5365194309847112 0.1999999999999436 0  0.2894621222999649 0.1998691686390484 0  0.5215828265105155 0.1999999999999228 0  0.3127789816668748 0.1998657885438805 0  0.3274069683451451 0.2000000000000796 0  0.5066462220363641 0.199999999999908 0  0.3650630746574081 0.199866017807523 0  0.476773013087985 0.1999999999998713 0  0.3417402379596385 0.1998691686391011 0  0.3796850840047755 0.200000000000134 0  0.4618364086138087 0.1999999999998546 0  0.4917096175621762 0.1999999999998808 0  0.3946216884789568 0.2000000000001512 0  0.446899804139621 0.1999999999998389 0  0.4089549580935208 0.1998691686391595 0  0.4322718174608562 0.200127451265745 0  0.4201487168029707 0.1999966199048527 0  0.3528922713220932 0.2000185703532356 0  0.5633122436674589 0.1999814296467508 0  0.3006558810093873 0.1999966199048318 0  0.5815926498168407 0.1966545283159175 0  0.2677053789419034 0.1964246479135325 0  0.5290511287476175 0.1970915826863981 0  0.5439877332217911 0.197091582686394 0  0.2825131256993216 0.2035478995978015 0  0.3199386661080599 0.202908417313604 0  0.4842413153250809 0.1970915826863873 0  0.5141145242734466 0.1970915826863843 0  0.3722167817676917 0.2029084173136195 0  0.4693047108508938 0.1970915826863783 0  0.3348752705822316 0.202908417313609 0  0.3871533862418661 0.2029084173136212 0  0.4543681063767183 0.1970915826863795 0  0.4991779197992749 0.1970915826863902 0  0.4020059614928624 0.203547899597858 0  0.4394315019025246 0.1970915826863714 0  0.2550657455369551 0.2034088125358657 0  0.2548908499171161 0.1966940311614271 0  0.5946539510196798 0.2024302972968126 0  0.267698176732111 0.2039977513680092 0  0.4261685417851465 0.196409292431739 0  0.3590076176283495 0.196411355804271 0  0.5571672426447437 0.2036011176410121 0  0.3066757059912147 0.1964092924317024 0  0.594380730180568 0.1966558399668133 0  0.4842413153245942 0.2040749161535287 0  0.4693047108503577 0.2040749161535231 0  0.3871533862424271 0.1959250838464788 0  0.372246743208829 0.1959123236376545 0  0.5141145242731028 0.2040749161535395 0  0.4543681063761134 0.2040749161535186 0  0.4019979587101454 0.1959834479682427 0  0.4394608940728603 0.2040870543693135 0  0.5439623148931173 0.2040856076781014 0  0.5290511287473298 0.2040749161535501 0  0.4991779197988497 0.2040749161535382 0  0.3347912413592433 0.1959225448935183 0  0.3199680582793816 0.1959123018030061 0  0.2825051229162361 0.1959834479681729 0  0.3590471196690275 0.2036304442587945 0  0.5571594006495384 0.1963685282145804 0  0.3067669986803285 0.203627750582736 0  0.4262598344738712 0.2036568242185335 0  0.5814408164431408 0.2041285596160068 0  0.5688286748170428 0.1961819304477386 0  0.4145905603063645 0.2038180695522843 0  0.3473758401724931 0.2038180695522752 0  0.2950977245128307 0.2038180695522663 0  0.5688286748170693 0.203818069552238 0  0.2950977245127906 0.1961819304477774 0  0.3473758401723931 0.1961819304478349 0  0.4145905603061963 0.1961819304479011 0  0.2601812407614425 0.2056861609747042
[...]
<PointData  Vectors="f_46-0"> 
<DataArray  type="Float64"  Name="f_46-0"  NumberOfComponents="3" format="ascii">0.0000000000000000e+00 0.0000000000000000e+00 0.0000000000000000e+00  0.0000000000000000e+00 0.0000000000000000e+00 0.0000000000000000e+00  0.0000000000000000e+00 0.0000000000000000e+00 0.0000000000000000e+00  0.0000000000000000e+00 0.0000000000000000e+00 0.0000000000000000e+00  -8.0060094630001645e-05 -4.1114234059248529e-04 0.0000000000000000e+00  -4.6272224686479817e-05 -4.3202996611487393e-04 0.0000000000000000e+00  0.0000000000000000e+00 0.0000000000000000e+00 0.0000000000000000e+00  0.0000000000000000e+00 0.0000000000000000e+00 0.0000000000000000e+00  0.0000000000000000e+00 0.0000000000000000e+00 0.0000000000000000e+00  0.0000000000000000e+00 0.0000000000000000e+00 0.0000000000000000e+00  -6.4588560751518772e-05 -4.2158480102346145e-04 0.0000000000000000e+00  6.3297564187347680e-02 0.0000000000000000e+00 0.0000000000000000e+00  1.1685704157664965e-01 0.0000000000000000e+00 0.0000000000000000e+00  1.6067843216789329e-01 0.0000000000000000e+00 0.0000000000000000e+00  1.9476173596112936e-01 0.0000000000000000e+00 0.0000000000000000e+00  2.1910695295635343e-01 0.0000000000000000e+00 0.0000000000000000e+00  2.3371408315356407e-01 0.0000000000000000e+00 0.0000000000000000e+00  2.3858312655274660e-01 0.0000000000000000e+00 0.0000000000000000e+00  2.3371408315385939e-01 0.0000000000000000e+00 0.0000000000000000e+00  2.1910695295686072e-01 0.0000000000000000e+00 0.0000000000000000e+00  1.9476173596175758e-01 0.0000000000000000e+00 0.0000000000000000e+00  1.6067843216849009e-01 0.0000000000000000e+00 0.0000000000000000e+00  1.1685704157715893e-01 0.0000000000000000e+00 0.0000000000000000e+00  6.3297564187634645e-02 0.0000000000000000e+00 0.0000000000000000e+00  0.0000000000000000e+00 0.0000000000000000e+00 0.0000000000000000e+00  0.0000000000000000e+00 0.0000000000000000e+00 0.0000000000000000e+00  0.0000000000000000e+00 0.0000000000000000e+00 0.0000000000000000e+00  0.0000000000000000e+00 0.0000000000000000e+00 0.0000000000000000e+00  0.0000000000000000e+00 0.0000000000000000e+00 0.0000000000000000e+00  0.0000000000000000e+00 0.0000000000000000e+00 0.0000000000000000e+00  0.0000000000000000e+00 0.0000000000000000e+00 0.0000000000000000e+00  0.0000000000000000e+00 0.0000000000000000e+00 0.0000000000000000e+00  0.0000000000000000e+00 0.0000000000000000e+00 0.0000000000000000e+00  0.0000000000000000e+00 0.0000000000000000e+00 0.0000000000000000e+00  0.0000000000000000e+00 0.0000000000000000e+00 0.0000000000000000e+00  0.0000000000000000e+00 0.0000000000000000e+00 0.0000000000000000e+00  0.0000000000000000e+00 0.0000000000000000e+00 0.0000000000000000e+00  0.0000000000000000e+00 0.0000000000000000e+00 0.0000000000000000e+00  0.0000000000000000e+00 0.0000000000000000e+00 0.0000000000000000e+00  0.0000000000000000e+00 0.0000000000000000e+00 0.0000000000000000e+00  0.0000000000000000e+00 0.0000000000000000e+00 0.0000000000000000e+00  0.0000000000000000e+00 0.0000000000000000e+00 0.0000000000000000e+00  0.0000000000000000e+00 0.0000000000000000e+00 0.0000000000000000e+00  0.0000000000000000e+00 0.0000000000000000e+00 0.0000000000000000e+00  0.0000000000000000e+00 0.0000000000000000e+00 0.0000000000000000e+00  0.0000000000000000e+00 0.0000000000000000e+00 0.0000000000000000e+00  0.0000000000000000e+00 0.0000000000000000e+00 0.0000000000000000e+00  0.0000000000000000e+00 0.0000000000000000e+00 0.0000000000000000e+00  0.0000000000000000e+00 0.0000000000000000e+00 0.0000000000000000e+00  0.0000000000000000e+00 0.0000000000000000e+00 0.0000000000000000e+00  0.0000000000000000e+00 0.0000000000000000e+00 0.0000000000000000e+00  0.0000000000000000e+00 0.0000000000000000e+00 0.0000000000000000e+00  0.0000000000000000e+00 0.0000000000000000e+00 0.0000000000000000e+00  0.0000000000000000e+00 0.0000000000000000e+00 0.0000000000000000e+00  0.0000000000000000e+00 0.0000000000000000e+00 0.0000000000000000e+00  0.0000000000000000e+00 0.0000000000000000e+00 0.0000000000000000e+00  0.0000000000000000e+00 0.0000000000000000e+00 0.0000000000000000e+00  0.0000000000000000e+00 0.0000000000000000e+00 0.0000000000000000e+00  0.0000000000000000e+00 0.0000000000000000e+00 0.0000000000000000e+00  0.0000000000000000e+00 0.0000000000000000e+00 0.0000000000000000e+00  0.0000000000000000e+00 0.0000000000000000e+00 0.0000000000000000e+00  0.0000000000000000e+00 0.0000000000000000e+00 0.0000000000000000e+00  2.3153254852684615e-01 2.9600300454230139e-02 0.0000000000000000e+00  1.6860075852596634e-01 -1.1158169730110226e-04 0.0000000000000000e+00  2.3272557542655856e-01 -2.7578653342681142e-02 0.0000000000000000e+00  0.0000000000000000e+00 0.0000000000000000e+00 0.0000000000000000e+00  0.0000000000000000e+00 0.0000000000000000e+00 0.0000000000000000e+00  0.0000000000000000e+00 0.0000000000000000e+00 0.0000000000000000e+00  0.0000000000000000e+00 0.0000000000000000e+00 0.0000000000000000e+00  0.0000000000000000e+00 0.0000000000000000e+00 0.0000000000000000e+00  0.0000000000000000e+00 0.0000000000000000e+00 0.0000000000000000e+00  0.0000000000000000e+00 0.0000000000000000e+00 0.0000000000000000e+00  0.0000000000000000e+00 0.0000000000000000e+00 0.0000000000000000e+00  0.0000000000000000e+00 0.0000000000000000e+00 0.0000000000000000e+00  0.0000000000000000e+00 0.0000000000000000e+00 0.0000000000000000e+00  0.0000000000000000e+00 0.0000000000000000e+00 0.0000000000000000e+00  0.0000000000000000e+00 0.0000000000000000e+00 0.0000000000000000e+00  0.0000000000000000e+00 0.0000000000000000e+00 0.0000000000000000e+00  0.0000000000000000e+00 0.0000000000000000e+00 0.0000000000000000e+00  0.0000000000000000e+00 0.0000000000000000e+00 0.0000000000000000e+00  0.0000000000000000e+00 0.0000000000000000e+00 0.0000000000000000e+00  0.0000000000000000e+00 0.0000000000000000e+00 0.0000000000000000e+00  0.0000000000000000e+00 0.0000000000000000e+00 0.0000000000000000e+00  0.0000000000000000e+00 0.0000000000000000e+00 0.0000000000000000e+00  0.0000000000000000e+00 0.0000000000000000e+00 0.0000000000000000e+00  0.0000000000000000e+00 0.0000000000000000e+00 0.0000000000000000e+00  0.0000000000000000e+00 0.0000000000000000e+00 0.0000000000000000e+00  0.0000000000000000e+00 0.0000000000000000e+00 0.0000000000000000e+00  0.0000000000000000e+00 0.0000000000000000e+00 0.0000000000000000e+00  0.0000000000000000e+00 0.0000000000000000e+00 0.0000000000000000e+00  0.0000000000000000e+00 0.0000000000000000e+00 0.0000000000000000e+00  0.0000000000000000e+00 0.0000000000000000e+00 0.0000000000000000e+00  0.0000000000000000e+00 0.0000000000000000e+00 0.0000000000000000e+00  0.0000000000000000e+00 0.0000000000000000e+00 0.0000000000000000e+00  0.0000000000000000e+00 0.0000000000000000e+00 0.0000000000000000e+00  0.0000000000000000e+00 0.0000000000000000e+00 0.0000000000000000e+00  0.0000000000000000e+00 0.0000000000000000e+00 0.0000000000000000e+00  0.0000000000000000e+00 0.0000000000000000e+00 0.0000000000000000e+00  0.0000000000000000e+00 0.0000000000000000e+00 0.0000000000000000e+00  0.0000000000000000e+00 0.0000000000000000e+00 0.0000000000000000e+00  0.0000000000000000e+00 0.0000000000000000e+00 0.0000000000000000e+00  0.0000000000000000e+00 0.0000000000000000e+00 0.0000000000000000e+00  0.0000000000000000e+00 0.0000000000000000e+00 0.0000000000000000e+00  0.0000000000000000e+00 0.0000000000000000e+00 0.0000000000000000e+00  0.0000000000000000e+00 0.0000000000000000e+00 0.0000000000000000e+00  4.7748668499346599e-11 0.0000000000000000e+00 0.0000000000000000e+00  0.0000000000000000e+00 0.0000000000000000e+00 0.0000000000000000e+00  0.0000000000000000e+00 0.0000000000000000e+00 0.0000000000000000e+00  0.0000000000000000e+00 0.0000000000000000e+00 0.0000000000000000e+00  0.0000000000000000e+00 0.0000000000000000e+00 0.0000000000000000e+00  0.0000000000000000e+00 0.0000000000000000e+00 0.0000000000000000e+00  0.0000000000000000e+00 0.0000000000000000e+00 0.0000000000000000e+00  0.0000000000000000e+00 0.0000000000000000e+00 0.0000000000000000e+00  0.0000000000000000e+00 0.0000000000000000e+00 0.0000000000000000e+00  0.0000000000000000e+00 0.0000000000000000e+00 0.0000000000000000e+00  0.0000000000000000e+00 0.0000000000000000e+00 0.0000000000000000e+00  0.0000000000000000e+00 0.0000000000000000e+00 0.0000000000000000e+00  0.0000000000000000e+00 0.0000000000000000e+00 0.0000000000000000e+00  0.0000000000000000e+00 0.0000000000000000e+00 0.0000000000000000e+00  0.0000000000000000e+00 0.0000000000000000e+00 0.0000000000000000e+00  0.0000000000000000e+00 0.0000000000000000e+00 0.0000000000000000e+00  0.0000000000000000e+00 0.0000000000000000e+00 0.0000000000000000e+00  0.0000000000000000e+00 0.0000000000000000e+00 0.0000000000000000e+00  0.0000000000000000e+00 0.0000000000000000e+00 0.0000000000000000e+00  0.0000000000000000e+00 0.0000000000000000e+00 0.0000000000000000e+00  0.0000000000000000e+00 0.0000000000000000e+00 0.0000000000000000e+00  0.0000000000000000e+00 0.0000000000000000e+00 0.0000000000000000e+00  0.0000000000000000e+00 0.0000000000000000e+00 0.0000000000000000e+00  0.0000000000000000e+00 0.0000000000000000e+00 0.0000000000000000e+00  0.0000000000000000e+00 0.0000000000000000e+00 0.0000000000000000e+00  0.0000000000000000e+00 0.0000000000000000e+00 0.0000000000000000e+00  0.0000000000000000e+00 0.0000000000000000e+00 0.0000000000000000e+00  0.0000000000000000e+00 0.0000000000000000e+00 0.0000000000000000e+00  0.0000000000000000e+00 0.0000000000000000e+00 0.0000000000000000e+00  0.0000000000000000e+00 0.0000000000000000e+00 0.0000000000000000e+00  0.0000000000000000e+00 0.0000000000000000e+00 0.0000000000000000e+00  0.0000000000000000e+00 0.0000000000000000e+00 0.0000000000000000e+00  0.0000000000000000e+00 0.0000000000000000e+00 0.0000000000000000e+00  0.0000000000000000e+00 0.0000000000000000e+00 0.0000000000000000e+00  0.0000000000000000e+00 0.0000000000000000e+00 0.0000000000000000e+00  0.0000000000000000e+00 0.0000000000000000e+00 0.0000000000000000e+00  0.0000000000000000e+00 0.0000000000000000e+00 0.0000000000000000e+00  0.0000000000000000e+00 0.0000000000000000e+00 0.0000000000000000e+00  1.1477912603647416e-06 -1.9557162993704728e-05 0.0000000000000000e+00  3.0302059939236495e-06 -2.1889954601688000e-05 0.0000000000000000e+00  5.8039053842340831e-06 -2.3738789718398340e-05 0.0000000000000000e+00  9.0855329078196455e-06 -2.5617576457251717e-05 0.0000000000000000e+00  1.2307298555912371e-05 -2.8027329795685008e-05 0.0000000000000000e+00  1.5443275599056561e-05 -3.1230709854302743e-05 0.0000000000000000e+00  1.8278448747096282e-05 -3.4883019497067106e-05 0.0000000000000000e+00  2.0876723101220596e-05 -3.9160033677051834e-05 0.0000000000000000e+00  2.3444681574654423e-05 -4.3939731292456360e-05 0.0000000000000000e+00  2.5604445539700376e-05 -4.9160435273975836e-05 0.0000000000000000e+00  2.7721434795269146e-05 -5.4981708750196195e-05 0.0000000000000000e+00  2.9448011194837199e-05 -6.1155115548894407e-05 0.0000000000000000e+00  3.1059541532683159e-05 -6.7837805119889372e-05 0.0000000000000000e+00  3.2377047837993094e-05 -7.4889909719941353e-05 0.0000000000000000e+00  3.3440372154790239e-05 -8.2361811666448591e-05 0.0000000000000000e+00  3.4424540696826838e-05 -9.0221801040195847e-05 0.0000000000000000e+00  3.5038344677669448e-05 -9.8328318097446818e-05 0.0000000000000000e+00  3.5537778826089092e-05 -1.0690176383115611e-04 0.0000000000000000e+00  3.5703217184164913e-05 -1.1563413633516493e-04 0.0000000000000000e+00  3.5747890715460375e-05 -1.2478232340244177e-04 0.0000000000000000e+00  3.5492967149759447e-05 -1.3407027007414650e-04 0.0000000000000000e+00  3.5044082002627716e-05 -1.4370015175008000e-04 0.0000000000000000e+00  3.4374652467568445e-05 -1.5353023820242860e-04 0.0000000000000000e+00  3.3458015600856982e-05 -1.6358553981007435e-04 0.0000000000000000e+00  3.2425893047212551e-05 -1.7387659858965565e-04 0.0000000000000000e+00  3.1099411351119774e-05 -1.8427843186736076e-04 0.0000000000000000e+00  2.9567851643238356e-05 -1.9501300455244234e-04 0.0000000000000000e+00  2.7810122938442944e-05 -2.0577538598153978e-04 0.0000000000000000e+00  2.5844074016648576e-05 -2.1683714274910369e-04 0.0000000000000000e+00  2.3655688482127032e-05 -2.2792579892769461e-04 0.0000000000000000e+00  2.1261714878170656e-05 -2.3927841234293028e-04 0.0000000000000000e+00  1.8637756694598187e-05 -2.5063487246816918e-04 0.0000000000000000e+00  1.5821235816098643e-05 -2.6224096944136059e-04 0.0000000000000000e+00  1.2763219840928003e-05 -2.7381351604610220e-04 0.0000000000000000e+00  9.4877509147210517e-06 -2.8564456185348143e-04 0.0000000000000000e+00  5.9952247133476562e-06 -2.9742782571699685e-04 0.0000000000000000e+00  2.2942240411156406e-06 -3.0942042277640322e-04 0.0000000000000000e+00  -1.6303713261339600e-06 -3.2134971665290322e-04 0.0000000000000000e+00  -5.7764045077634213e-06 -3.3347100595252597e-04 0.0000000000000000e+00  -1.0156431154594045e-05 -3.4552241988419351e-04 0.0000000000000000e+00  -1.4780514028914313e-05 -3.5770126836346170e-04 0.0000000000000000e+00  -1.9590075833271154e-05 -3.6986357194154112e-04 0.0000000000000000e+00  -2.4667063648045499e-05 -3.8208478935310294e-04 0.0000000000000000e+00  -2.9877436665633074e-05 -3.9431135999740943e-04 0.0000000000000000e+00  -3.5361058891455069e-05 -4.0646993158185627e-04 0.0000000000000000e+00  -4.0926420800079868e-05 -4.1881985844066037e-04 0.0000000000000000e+00  -5.5922766827565670e-05 -4.2679037389809865e-04 0.0000000000000000e+00  -7.2762433152324114e-05 -4.1639449459407576e-04 0.0000000000000000e+00  -7.4651253462584472e-05 -3.9915472739095414e-04 0.0000000000000000e+00  -6.8993154678828023e-05 -3.8632088438976384e-04 0.0000000000000000e+00  -6.3436179463119245e-05 -3.7339179666175798e-04 0.0000000000000000e+00  -5.8126104144008940e-05 -3.6058192349684855e-04 0.0000000000000000e+00  -5.2957853895228825e-05 -3.4780260708565364e-04 0.0000000000000000e+00  -4.8055082470271213e-05 -3.3507062523238884e-04 0.0000000000000000e+00  -4.3303197462041051e-05 -3.2240879550267913e-04 0.0000000000000000e+00  -3.8800654600391614e-05 -3.0973064282122879e-04 0.0000000000000000e+00  -3.4477157095812028e-05 -2.9722370101455218e-04 0.0000000000000000e+00  -3.0375600963654613e-05 -2.8465627866541067e-04 0.0000000000000000e+00  -2.6443386315940535e-05 -2.7228079562106644e-04 0.0000000000000000e+00  -2.2738810887608614e-05 -2.5986325342931994e-04 0.0000000000000000e+00  -1.9196208117287520e-05 -2.4766395091979941e-04 0.0000000000000000e+00  -1.5876536586899935e-05 -2.3545226159062525e-04 0.0000000000000000e+00  -1.2706089728039924e-05 -2.2347526882280806e-04 0.0000000000000000e+00  -9.7693935918330833e-06 -2.1150097778993847e-04 0.0000000000000000e+00  -6.9744535814777951e-06 -1.9977337898050517e-04 0.0000000000000000e+00  -4.4213834922392330e-06 -1.8806403434993158e-04 0.0000000000000000e+00  -2.0041875053389874e-06 -1.7663342360626225e-04 0.0000000000000000e+00  1.7278062936540980e-07 -1.6525365679319532e-04 0.0000000000000000e+00  2.2278006883492961e-06 -1.5416988447826020e-04 0.0000000000000000e+00  4.0329009390401071e-06 -1.4316180717115033e-04 0.0000000000000000e+00  5.6929441000995251e-06 -1.3242402417898704e-04 0.0000000000000000e+00  7.1538834226635635e-06 -1.2185129160542336e-04 0.0000000000000000e+00  8.3880927779638157e-06 -1.1154439038481527e-04 0.0000000000000000e+00  9.5606811006241204e-06 -1.0145562786482198e-04 0.0000000000000000e+00  1.0473675863011210e-05 -9.1575579320768511e-05 0.0000000000000000e+00  1.1244268221498307e-05 -8.2074536382786427e-05 0.0000000000000000e+00  1.1806152362150400e-05 -7.2729022181385703e-05 0.0000000000000000e+00  1.2219378091223770e-05 -6.3811702583453753e-05 0.0000000000000000e+00  1.2427383915444093e-05 -5.5083329177633577e-05 0.0000000000000000e+00  1.2507624937286736e-05 -4.6833969671531489e-05 0.0000000000000000e+00  1.2387238574898589e-05 -3.8844812449862055e-05 0.0000000000000000e+00  1.2060915487416757e-05 -3.1341143858665808e-05 0.0000000000000000e+00  1.1719470521654747e-05 -2.4167494552807412e-05 0.0000000000000000e+00  1.1111513727705572e-05 -1.7442496884282245e-05 0.0000000000000000e+00  1.0381114913240386e-05 -1.1271103101949849e-05 0.0000000000000000e+00  9.4374255873880692e-06 -5.4786922487857802e-06 0.0000000000000000e+00  8.4048008565948697e-06 -3.1105154026903280e-07 0.0000000000000000e+00  7.1370196737875290e-06 4.4320670317188225e-06 0.0000000000000000e+00  5.6671468883112568e-06 8.5238619600965515e-06 0.0000000000000000e+00  4.2332948792401486e-06 1.2126528585890363e-05 0.0000000000000000e+00  2.5056550882734380e-06 1.5251381821575295e-05 0.0000000000000000e+00  1.0013736724062114e-06 1.7674301720368329e-05 0.0000000000000000e+00  -2.3619420213633752e-07 1.8854143570823442e-05 0.0000000000000000e+00  -4.3294124190224871e-07 1.8258957335713585e-05 0.0000000000000000e+00  -2.6968669049115355e-06 -7.4240674934490854e-07 0.0000000000000000e+00  -5.5277567400240012e-05 -4.0275966966847593e-04 0.0000000000000000e+00  -4.4277346542321392e-05 -3.7885870590073368e-04 0.0000000000000000e+00  -2.8853870527297410e-05 -3.3982390958978316e-04 0.0000000000000000e+00  4.3993033493539765e-06 -3.6380151068728616e-06 0.0000000000000000e+00  -2.0346274880299327e-05 -3.1539500698322926e-04 0.0000000000000000e+00  9.1048114706824900e-06 -8.6441199865884298e-06 0.0000000000000000e+00  -1.2302526071662859e-05 -2.9088375581556327e-04 0.0000000000000000e+00  1.5405681702428779e-05 -2.1761545129051841e-05 0.0000000000000000e+00  1.8549599735611641e-05 -3.2848539191864180e-05 0.0000000000000000e+00  -5.0905562705663584e-06 -2.6667438086619270e-04 0.0000000000000000e+00  2.2947973260031099e-05 -6.8446229375391566e-05 0.0000000000000000e+00  6.8747545243914347e-06 -2.1951152686351634e-04 0.0000000000000000e+00  2.0760385969584233e-05 -4.4975800607506833e-05 0.0000000000000000e+00  2.3487026674281860e-05 -8.5198929432489569e-05 0.0000000000000000e+00  1.1640028007862845e-05 -1.9670616492381950e-04 0.0000000000000000e+00  1.2999863768672457e-06 -2.4285659379055233e-04 0.0000000000000000e+00  2.3135593938267960e-05 -1.0329527182034764e-04 0.0000000000000000e+00  1.5596910950944371e-05 -1.7454006905416578e-04 0.0000000000000000e+00  2.1897252512119267e-05 -1.2148160802869017e-04 0.0000000000000000e+00  1.8897777028876476e-05 -1.5372955115015060e-04 0.0000000000000000e+00  2.0623719940708329e-05 -1.3674198567757638e-04 0.0000000000000000e+00  2.2119500807350599e-05 -5.6056829052628028e-05 0.0000000000000000e+00  -3.6985667757476557e-05 -3.5988842986754775e-04 0.0000000000000000e+00  1.2342211188583987e-05 -1.4614841175721242e-05 0.0000000000000000e+00  -5.5490999271865197e-05 -3.8715411767594875e-04 0.0000000000000000e+00  5.4921462265961724e-07 5.8753366584059101e-06 0.0000000000000000e+00  -2.0983063546937561e-05 -2.9955890777111989e-04 0.0000000000000000e+00  -2.9489155620043051e-05 -3.2433842845802646e-04 0.0000000000000000e+00  8.2103230758545850e-06 -1.3315598953481039e-05 0.0000000000000000e+00  1.9204335368429467e-05 -3.2673643148317166e-05 0.0000000000000000e+00  -3.4648062486052857e-07 -2.2713966569649048e-04 0.0000000000000000e+00  -1.3294515721107570e-05 -2.7504176608770452e-04 0.0000000000000000e+00  2.6633597582933448e-05 -8.1694486586920192e-05 0.0000000000000000e+00  4.9321570112007824e-06 -2.0390950768974130e-04 0.0000000000000000e+00  2.2328959647259410e-05 -4.4548178126186531e-05 0.0000000000000000e+00  2.6906612702887964e-05 -9.9057265156866214e-05 0.0000000000000000e+00  9.4145520700468143e-06 -1.8126931358493600e-04 0.0000000000000000e+00  -6.4206993328376088e-06 -2.5087033319420908e-04 0.0000000000000000e+00  2.7207417966621642e-05 -1.1853141948193356e-04 0.0000000000000000e+00  1.3113854506020595e-05 -1.5931954572453519e-04 0.0000000000000000e+00  -3.4041232061653157e-06 -4.6922164965347830e-06 0.0000000000000000e+00  -3.6087693507576215e-06 4.0118976448540269e-06 0.0000000000000000e+00  -5.6134658028593923e-05 -4.1494286579514159e-04 0.0000000000000000e+00  2.1730751433277248e-06 -1.046121