<?xml version="1.0"?>
<VTKFile type="UnstructuredGrid"  version="0.1"  >
<UnstructuredGrid>
<Piece  NumberOfPoints="1419" NumberOfCells="2698">
<Points>
<DataArray  type="Float64"  NumberOfComponents="3"  format="ascii">0 0 0  0 0.41 0  2.5 0 0  2.5 0.41 0  0.6 0.19 0  0.6 0.21 0  0.25 0.2 0  0.15 0.2 0  0.2489897948556636 0.21 0  0.2489897948556636 0.19 0  0.6 0.2 0  0 0.3807142857143437 0  0 0.3514285714286952 0  0 0.3221428571430699 0  0 0.29285714285744 0  0 0.2635714285718054 0  0 0.2342857142861561 0  0 0.2050000000005308 0  0 0.175714285714732 0  0 0.1464285714289574 0  0 0.1171428571431897 0  0 0.08785714285737878 0  0 0.05857142857161107 0  0 0.02928571428580012 0  0.03015443760436003 0 0  0.06140001986583606 0 0  0.09377624077125973 0 0  0.1273239957535082 0 0  0.1620856860351972 0 0  0.1981052433264291 0 0  0.235428184091502 0 0  0.2741016576309132 0 0  0.3141745521465447 0 0  0.3556974926295285 0 0  0.3987229542472677 0 0  0.4433053055141081 0 0  0.4895008759286886 0 0  0.5373680609405097 0 0  0.5869673343216626 0 0  0.6383613676634521 0 0  0.6916151138468254 0 0  0.7467958595648856 0 0  0.8039733463919316 0 0  0.8632198139502143 0 0  0.9246101326867038 0 0  0.9882218810934433 0 0  1.054135445558498 0 0  1.122434100542598 0 0  1.193204177141305 0 0  1.266535089879536 0 0  1.342519516046404 0 0  1.421253448503939 0 0  1.502836389106271 0 0  1.587371439758838 0 0  1.674965418777374 0 0  1.765729001825544 0 0  1.859776908880082 0 0  1.957227977487062 0 0  2.058205329869943 0 0  2.162836591189951 0 0  2.271253957290865 0 0  2.383594446803425 0 0  2.5 0.1024999999997612 0  2.5 0.2049999999994743 0  2.5 0.3074999999997183 0  2.383594446803656 0.41 0  2.271253957291315 0.41 0  2.162836591190598 0.41 0  2.058205329870775 0.41 0  1.957227977488067 0.41 0  1.859776908881246 0.41 0  1.765729001826854 0.41 0  1.674965418778818 0.41 0  1.58737143976041 0.41 0  1.502836389107956 0.41 0  1.421253448505726 0.41 0  1.342519516048286 0.41 0  1.266535089881505 0.41 0  1.193204177143353 0.41 0  1.122434100544716 0.41 0  1.05413544556068 0.41 0  0.9882218810956305 0.41 0  0.9246101326886647 0.41 0  0.8632198139519631 0.41 0  0.8039733463934788 0.41 0  0.7467958595662458 0.41 0  0.6916151138480078 0.41 0  0.6383613676644679 0.41 0  0.5869673343225223 0.41 0  0.5373680609412221 0.41 0  0.4895008759292634 0.41 0  0.4433053055145528 0.41 0  0.3987229542475914 0.41 0  0.3556974926297398 0.41 0  0.3141745521466497 0.41 0  0.2741016576310038 0.41 0  0.2354281840915826 0.41 0  0.1981052433265003 0.41 0  0.1620856860352591 0.41 0  0.1273239957535623 0.41 0  0.09377624077128965 0.41 0  0.06140001986584975 0.41 0  0.03015443760436654 0.41 0  0.2497468076502589 0.2050254481002335 0  0.2497468076502614 0.1949745518997913 0  0.2469965252529372 0.1829317073451959 0  0.2439893735792749 0.1762316384219906 0  0.2400332147834255 0.1700443375285386 0  0.2352133972704371 0.1645032867342007 0  0.2296339016332438 0.1597280261969788 0  0.2234150974217223 0.1558215752574715 0  0.2166911463437691 0.1528682099456123 0  0.2096071079204251 0.1509316448471593 0  0.2023158100364996 0.1500536585536553 0  0.194974551899914 0.1502531923497262 0  0.1877417105387872 0.1515259415822739 0  0.1807733240461124 0.153844448527136 0  0.1742197252835808 0.15715869474974 0  0.1682222986673531 0.1613971801805478 0  0.162910430003803 0.1664684656256651 0  0.1583987151779087 0.1722631454351573 0  0.1547844879126891 0.178656207771761 0  0.1521457199348551 0.1855097315605723 0  0.1505393388476355 0.1926758619366523 0  0.1505393388476328 0.2073241380633295 0  0.1521457199348437 0.2144902684393899 0  0.1547844879126531 0.221343792228163 0  0.1583987151778488 0.2277368545647528 0  0.1629104300036858 0.2335315343742052 0  0.1682222986671726 0.2386028198193036 0  0.1742197252833576 0.2428413052501257 0  0.1807733240458683 0.2461555514727623 0  0.1877417105384929 0.2484740584176516 0  0.1949745518995776 0.2497468076502398 0  0.202315810036185 0.2499463414463592 0  0.2096071079201568 0.2490683551528932 0  0.2166911463435495 0.2471317900544655 0  0.2234150974215506 0.2441784247426195 0  0.2296339016331197 0.2402719738031125 0  0.2352133972703547 0.2354967132658811 0  0.2400332147833751 0.2299556624715287 0  0.2439893735792577 0.2237683615780412 0  0.246996525252926 0.2170682926548348 0  0.25645809709277 0.21 0  0.2639263993298655 0.21 0  0.271394701566961 0.21 0  0.2788630038040554 0.21 0  0.2863313060411479 0.21 0  0.2937996082782405 0.21 0  0.301267910515333 0.21 0  0.3087362127524279 0.21 0  0.3162045149895234 0.21 0  0.3236728172265972 0.21 0  0.3311411194636928 0.21 0  0.3386094217007701 0.21 0  0.3460777239378666 0.21 0  0.3535460261749672 0.21 0  0.3610143284120516 0.21 0  0.3684826306491596 0.21 0  0.3759509328862226 0.21 0  0.383419235123329 0.21 0  0.3908875373604028 0.21 0  0.3983558395975142 0.21 0  0.4058241418345938 0.21 0  0.4132924440716992 0.21 0  0.4207607463087888 0.21 0  0.4282290485459029 0.21 0  0.4356973507830418 0.21 0  0.4431656530201649 0.21 0  0.4506339552573136 0.21 0  0.4581022574944306 0.21 0  0.4655705597315852 0.21 0  0.4730388619686996 0.21 0  0.480507164205851 0.21 0  0.4879754664429498 0.21 0  0.4954437686800938 0.21 0  0.502912070917267 0.21 0  0.5103803731544119 0.21 0  0.5178486753915261 0.21 0  0.5253169776286404 0.21 0  0.5327852798657868 0.21 0  0.5402535821029386 0.21 0  0.54772188434007 0.21 0  0.5551901865771842 0.21 0  0.5626584888143201 0.21 0  0.5701267910514778 0.21 0  0.5775950932886138 0.21 0  0.5850633955257281 0.21 0  0.5925316977628483 0.21 0  0.6 0.2050000000000054 0  0.6 0.1950000000000217 0  0.5925316977628897 0.19 0  0.5850633955257988 0.19 0  0.5775950932887378 0.19 0  0.5701267910515998 0.19 0  0.5626584888145268 0.19 0  0.5551901865773963 0.19 0  0.547721884340339 0.19 0  0.5402535821032429 0.19 0  0.5327852798661811 0.19 0  0.5253169776290537 0.19 0  0.5178486753919799 0.19 0  0.5103803731549078 0.19 0  0.502912070917822 0.19 0  0.4954437686807294 0.19 0  0.4879754664436223 0.19 0  0.4805071642065402 0.19 0  0.4730388619694271 0.19 0  0.4655705597323621 0.19 0  0.4581022574952563 0.19 0  0.4506339552581777 0.19 0  0.4431656530210671 0.19 0  0.4356973507839815 0.19 0  0.4282290485468779 0.19 0  0.4207607463097617 0.19 0  0.4132924440726327 0.19 0  0.4058241418354857 0.19 0  0.3983558395983636 0.19 0  0.3908875373612097 0.19 0  0.3834192351240934 0.19 0  0.3759509328869369 0.19 0  0.3684826306498175 0.19 0  0.361014328412667 0.19 0  0.3535460261755617 0.19 0  0.3460777239384295 0.19 0  0.3386094217012945 0.19 0  0.3311411194641595 0.19 0  0.3236728172270245 0.19 0  0.3162045149898895 0.19 0  0.3087362127527544 0.19 0  0.3012679105156187 0.19 0  0.2937996082784807 0.19 0  0.2863313060413428 0.19 0  0.2788630038042048 0.19 0  0.2713947015670686 0.19 0  0.2639263993299336 0.19 0  0.2564580970927985 0.19 0  0.2607803159922026 0.2000727136295815 0  0.5887803774232762 0.2001272386983733 0  0.5745072403740523 0.2002044435018727 0  0.5511891430099709 0.2001122610077113 0  0.2751288526855082 0.20000000000002 0  0.5365194309847112 0.1999999999999436 0  0.2894621222999649 0.1998691686390484 0  0.5215828265105155 0.1999999999999228 0  0.3127789816668748 0.1998657885438805 0  0.3274069683451451 0.2000000000000796 0  0.5066462220363641 0.199999999999908 0  0.3650630746574081 0.199866017807523 0  0.476773013087985 0.1999999999998713 0  0.3417402379596385 0.1998691686391011 0  0.3796850840047755 0.200000000000134 0  0.4618364086138087 0.1999999999998546 0  0.4917096175621762 0.1999999999998808 0  0.3946216884789568 0.2000000000001512 0  0.446899804139621 0.1999999999998389 0  0.4089549580935208 0.1998691686391595 0  0.4322718174608562 0.200127451265745 0  0.4201487168029707 0.1999966199048527 0  0.3528922713220932 0.2000185703532356 0  0.5633122436674589 0.1999814296467508 0  0.3006558810093873 0.1999966199048318 0  0.5815926498168407 0.1966545283159175 0  0.2677053789419034 0.1964246479135325 0  0.5290511287476175 0.1970915826863981 0  0.5439877332217911 0.197091582686394 0  0.2825131256993216 0.2035478995978015 0  0.3199386661080599 0.202908417313604 0  0.4842413153250809 0.1970915826863873 0  0.5141145242734466 0.1970915826863843 0  0.3722167817676917 0.2029084173136195 0  0.4693047108508938 0.1970915826863783 0  0.3348752705822316 0.202908417313609 0  0.3871533862418661 0.2029084173136212 0  0.4543681063767183 0.1970915826863795 0  0.4991779197992749 0.1970915826863902 0  0.4020059614928624 0.203547899597858 0  0.4394315019025246 0.1970915826863714 0  0.2550657455369551 0.2034088125358657 0  0.2548908499171161 0.1966940311614271 0  0.5946539510196798 0.2024302972968126 0  0.267698176732111 0.2039977513680092 0  0.4261685417851465 0.196409292431739 0  0.3590076176283495 0.196411355804271 0  0.5571672426447437 0.2036011176410121 0  0.3066757059912147 0.1964092924317024 0  0.594380730180568 0.1966558399668133 0  0.4842413153245942 0.2040749161535287 0  0.4693047108503577 0.2040749161535231 0  0.3871533862424271 0.1959250838464788 0  0.372246743208829 0.1959123236376545 0  0.5141145242731028 0.2040749161535395 0  0.4543681063761134 0.2040749161535186 0  0.4019979587101454 0.1959834479682427 0  0.4394608940728603 0.2040870543693135 0  0.5439623148931173 0.2040856076781014 0  0.5290511287473298 0.2040749161535501 0  0.4991779197988497 0.2040749161535382 0  0.3347912413592433 0.1959225448935183 0  0.3199680582793816 0.1959123018030061 0  0.2825051229162361 0.1959834479681729 0  0.3590471196690275 0.2036304442587945 0  0.5571594006495384 0.1963685282145804 0  0.3067669986803285 0.203627750582736 0  0.4262598344738712 0.2036568242185335 0  0.5814408164431408 0.2041285596160068 0  0.5688286748170428 0.1961819304477386 0  0.4145905603063645 0.2038180695522843 0  0.3473758401724931 0.2038180695522752 0  0.2950977245128307 0.2038180695522663 0  0.5688286748170693 0.203818069552238 0  0.2950977245127906 0.1961819304477774 0  0.3473758401723931 0.1961819304478349 0  0.4145905603061963 0.1961819304479011 0  0.2601812407614425 0.2056861609747042
[...]
<PointData  Vectors="f_46-0"> 
<DataArray  type="Float64"  Name="f_46-0"  NumberOfComponents="3" format="ascii">0.0000000000000000e+00 0.0000000000000000e+00 0.0000000000000000e+00  0.0000000000000000e+00 0.0000000000000000e+00 0.0000000000000000e+00  0.0000000000000000e+00 0.0000000000000000e+00 0.0000000000000000e+00  0.0000000000000000e+00 0.0000000000000000e+00 0.0000000000000000e+00  7.2708525648435555e-05 -4.0892188602003699e-04 0.0000000000000000e+00  1.0432609291241928e-04 -4.0641766581914169e-04 0.0000000000000000e+00  0.0000000000000000e+00 0.0000000000000000e+00 0.0000000000000000e+00  0.0000000000000000e+00 0.0000000000000000e+00 0.0000000000000000e+00  0.0000000000000000e+00 0.0000000000000000e+00 0.0000000000000000e+00  0.0000000000000000e+00 0.0000000000000000e+00 0.0000000000000000e+00  8.8117068464987094e-05 -4.0766928143718827e-04 0.0000000000000000e+00  5.5715445257299566e-02 0.0000000000000000e+00 0.0000000000000000e+00  1.0285928355194450e-01 0.0000000000000000e+00 0.0000000000000000e+00  1.4143151488392369e-01 0.0000000000000000e+00 0.0000000000000000e+00  1.7143213925328185e-01 0.0000000000000000e+00 0.0000000000000000e+00  1.9286115666001508e-01 0.0000000000000000e+00 0.0000000000000000e+00  2.0571856710412201e-01 0.0000000000000000e+00 0.0000000000000000e+00  2.1000437058558993e-01 0.0000000000000000e+00 0.0000000000000000e+00  2.0571856710438202e-01 0.0000000000000000e+00 0.0000000000000000e+00  1.9286115666046158e-01 0.0000000000000000e+00 0.0000000000000000e+00  1.7143213925383483e-01 0.0000000000000000e+00 0.0000000000000000e+00  1.4143151488444902e-01 0.0000000000000000e+00 0.0000000000000000e+00  1.0285928355239277e-01 0.0000000000000000e+00 0.0000000000000000e+00  5.5715445257552142e-02 0.0000000000000000e+00 0.0000000000000000e+00  0.0000000000000000e+00 0.0000000000000000e+00 0.0000000000000000e+00  0.0000000000000000e+00 0.0000000000000000e+00 0.0000000000000000e+00  0.0000000000000000e+00 0.0000000000000000e+00 0.0000000000000000e+00  0.0000000000000000e+00 0.0000000000000000e+00 0.0000000000000000e+00  0.0000000000000000e+00 0.0000000000000000e+00 0.0000000000000000e+00  0.0000000000000000e+00 0.0000000000000000e+00 0.0000000000000000e+00  0.0000000000000000e+00 0.0000000000000000e+00 0.0000000000000000e+00  0.0000000000000000e+00 0.0000000000000000e+00 0.0000000000000000e+00  0.0000000000000000e+00 0.0000000000000000e+00 0.0000000000000000e+00  0.0000000000000000e+00 0.0000000000000000e+00 0.0000000000000000e+00  0.0000000000000000e+00 0.0000000000000000e+00 0.0000000000000000e+00  0.0000000000000000e+00 0.0000000000000000e+00 0.0000000000000000e+00  0.0000000000000000e+00 0.0000000000000000e+00 0.0000000000000000e+00  0.0000000000000000e+00 0.0000000000000000e+00 0.0000000000000000e+00  0.0000000000000000e+00 0.0000000000000000e+00 0.0000000000000000e+00  0.0000000000000000e+00 0.0000000000000000e+00 0.0000000000000000e+00  0.0000000000000000e+00 0.0000000000000000e+00 0.0000000000000000e+00  0.0000000000000000e+00 0.0000000000000000e+00 0.0000000000000000e+00  0.0000000000000000e+00 0.0000000000000000e+00 0.0000000000000000e+00  0.0000000000000000e+00 0.0000000000000000e+00 0.0000000000000000e+00  0.0000000000000000e+00 0.0000000000000000e+00 0.0000000000000000e+00  0.0000000000000000e+00 0.0000000000000000e+00 0.0000000000000000e+00  0.0000000000000000e+00 0.0000000000000000e+00 0.0000000000000000e+00  0.0000000000000000e+00 0.0000000000000000e+00 0.0000000000000000e+00  0.0000000000000000e+00 0.0000000000000000e+00 0.0000000000000000e+00  0.0000000000000000e+00 0.0000000000000000e+00 0.0000000000000000e+00  0.0000000000000000e+00 0.0000000000000000e+00 0.0000000000000000e+00  0.0000000000000000e+00 0.0000000000000000e+00 0.0000000000000000e+00  0.0000000000000000e+00 0.0000000000000000e+00 0.0000000000000000e+00  0.0000000000000000e+00 0.0000000000000000e+00 0.0000000000000000e+00  0.0000000000000000e+00 0.0000000000000000e+00 0.0000000000000000e+00  0.0000000000000000e+00 0.0000000000000000e+00 0.0000000000000000e+00  0.0000000000000000e+00 0.0000000000000000e+00 0.0000000000000000e+00  0.0000000000000000e+00 0.0000000000000000e+00 0.0000000000000000e+00  0.0000000000000000e+00 0.0000000000000000e+00 0.0000000000000000e+00  0.0000000000000000e+00 0.0000000000000000e+00 0.0000000000000000e+00  0.0000000000000000e+00 0.0000000000000000e+00 0.0000000000000000e+00  0.0000000000000000e+00 0.0000000000000000e+00 0.0000000000000000e+00  1.9916276730452753e-01 1.8666336415332305e-02 0.0000000000000000e+00  1.5619890486767465e-01 1.1944653737137635e-03 0.0000000000000000e+00  2.0181048233787227e-01 -2.3176344958515404e-02 0.0000000000000000e+00  0.0000000000000000e+00 0.0000000000000000e+00 0.0000000000000000e+00  0.0000000000000000e+00 0.0000000000000000e+00 0.0000000000000000e+00  0.0000000000000000e+00 0.0000000000000000e+00 0.0000000000000000e+00  0.0000000000000000e+00 0.0000000000000000e+00 0.0000000000000000e+00  0.0000000000000000e+00 0.0000000000000000e+00 0.0000000000000000e+00  0.0000000000000000e+00 0.0000000000000000e+00 0.0000000000000000e+00  0.0000000000000000e+00 0.0000000000000000e+00 0.0000000000000000e+00  0.0000000000000000e+00 0.0000000000000000e+00 0.0000000000000000e+00  0.0000000000000000e+00 0.0000000000000000e+00 0.0000000000000000e+00  0.0000000000000000e+00 0.0000000000000000e+00 0.0000000000000000e+00  0.0000000000000000e+00 0.0000000000000000e+00 0.0000000000000000e+00  0.0000000000000000e+00 0.0000000000000000e+00 0.0000000000000000e+00  0.0000000000000000e+00 0.0000000000000000e+00 0.0000000000000000e+00  0.0000000000000000e+00 0.0000000000000000e+00 0.0000000000000000e+00  0.0000000000000000e+00 0.0000000000000000e+00 0.0000000000000000e+00  0.0000000000000000e+00 0.0000000000000000e+00 0.0000000000000000e+00  0.0000000000000000e+00 0.0000000000000000e+00 0.0000000000000000e+00  0.0000000000000000e+00 0.0000000000000000e+00 0.0000000000000000e+00  0.0000000000000000e+00 0.0000000000000000e+00 0.0000000000000000e+00  0.0000000000000000e+00 0.0000000000000000e+00 0.0000000000000000e+00  0.0000000000000000e+00 0.0000000000000000e+00 0.0000000000000000e+00  0.0000000000000000e+00 0.0000000000000000e+00 0.0000000000000000e+00  0.0000000000000000e+00 0.0000000000000000e+00 0.0000000000000000e+00  0.0000000000000000e+00 0.0000000000000000e+00 0.0000000000000000e+00  0.0000000000000000e+00 0.0000000000000000e+00 0.0000000000000000e+00  0.0000000000000000e+00 0.0000000000000000e+00 0.0000000000000000e+00  0.0000000000000000e+00 0.0000000000000000e+00 0.0000000000000000e+00  0.0000000000000000e+00 0.0000000000000000e+00 0.0000000000000000e+00  0.0000000000000000e+00 0.0000000000000000e+00 0.0000000000000000e+00  0.0000000000000000e+00 0.0000000000000000e+00 0.0000000000000000e+00  0.0000000000000000e+00 0.0000000000000000e+00 0.0000000000000000e+00  0.0000000000000000e+00 0.0000000000000000e+00 0.0000000000000000e+00  0.0000000000000000e+00 0.0000000000000000e+00 0.0000000000000000e+00  0.0000000000000000e+00 0.0000000000000000e+00 0.0000000000000000e+00  0.0000000000000000e+00 0.0000000000000000e+00 0.0000000000000000e+00  0.0000000000000000e+00 0.0000000000000000e+00 0.0000000000000000e+00  0.0000000000000000e+00 0.0000000000000000e+00 0.0000000000000000e+00  0.0000000000000000e+00 0.0000000000000000e+00 0.0000000000000000e+00  0.0000000000000000e+00 0.0000000000000000e+00 0.0000000000000000e+00  0.0000000000000000e+00 0.0000000000000000e+00 0.0000000000000000e+00  -1.4766537666189893e-15 0.0000000000000000e+00 0.0000000000000000e+00  0.0000000000000000e+00 0.0000000000000000e+00 0.0000000000000000e+00  0.0000000000000000e+00 0.0000000000000000e+00 0.0000000000000000e+00  0.0000000000000000e+00 0.0000000000000000e+00 0.0000000000000000e+00  0.0000000000000000e+00 0.0000000000000000e+00 0.0000000000000000e+00  1.0990765389231653e-23 0.0000000000000000e+00 0.0000000000000000e+00  0.0000000000000000e+00 0.0000000000000000e+00 0.0000000000000000e+00  0.0000000000000000e+00 0.0000000000000000e+00 0.0000000000000000e+00  0.0000000000000000e+00 0.0000000000000000e+00 0.0000000000000000e+00  0.0000000000000000e+00 0.0000000000000000e+00 0.0000000000000000e+00  0.0000000000000000e+00 0.0000000000000000e+00 0.0000000000000000e+00  0.0000000000000000e+00 0.0000000000000000e+00 0.0000000000000000e+00  0.0000000000000000e+00 0.0000000000000000e+00 0.0000000000000000e+00  0.0000000000000000e+00 0.0000000000000000e+00 0.0000000000000000e+00  0.0000000000000000e+00 0.0000000000000000e+00 0.0000000000000000e+00  0.0000000000000000e+00 0.0000000000000000e+00 0.0000000000000000e+00  0.0000000000000000e+00 0.0000000000000000e+00 0.0000000000000000e+00  0.0000000000000000e+00 0.0000000000000000e+00 0.0000000000000000e+00  0.0000000000000000e+00 0.0000000000000000e+00 0.0000000000000000e+00  0.0000000000000000e+00 0.0000000000000000e+00 0.0000000000000000e+00  0.0000000000000000e+00 0.0000000000000000e+00 0.0000000000000000e+00  0.0000000000000000e+00 0.0000000000000000e+00 0.0000000000000000e+00  0.0000000000000000e+00 0.0000000000000000e+00 0.0000000000000000e+00  0.0000000000000000e+00 0.0000000000000000e+00 0.0000000000000000e+00  0.0000000000000000e+00 0.0000000000000000e+00 0.0000000000000000e+00  0.0000000000000000e+00 0.0000000000000000e+00 0.0000000000000000e+00  0.0000000000000000e+00 0.0000000000000000e+00 0.0000000000000000e+00  0.0000000000000000e+00 0.0000000000000000e+00 0.0000000000000000e+00  0.0000000000000000e+00 0.0000000000000000e+00 0.0000000000000000e+00  0.0000000000000000e+00 0.0000000000000000e+00 0.0000000000000000e+00  0.0000000000000000e+00 0.0000000000000000e+00 0.0000000000000000e+00  0.0000000000000000e+00 0.0000000000000000e+00 0.0000000000000000e+00  0.0000000000000000e+00 0.0000000000000000e+00 0.0000000000000000e+00  0.0000000000000000e+00 0.0000000000000000e+00 0.0000000000000000e+00  0.0000000000000000e+00 0.0000000000000000e+00 0.0000000000000000e+00  0.0000000000000000e+00 0.0000000000000000e+00 0.0000000000000000e+00  0.0000000000000000e+00 0.0000000000000000e+00 0.0000000000000000e+00  -5.2021111005789068e-16 0.0000000000000000e+00 0.0000000000000000e+00  2.8890674864817843e-06 2.7864455130672090e-07 0.0000000000000000e+00  5.9770694019061272e-06 -5.5984206926035914e-07 0.0000000000000000e+00  9.0068067480971066e-06 -2.0610201728409764e-06 0.0000000000000000e+00  1.2128132869003895e-05 -4.2317718637428191e-06 0.0000000000000000e+00  1.5122202891384034e-05 -6.9598746261810856e-06 0.0000000000000000e+00  1.8259099898689540e-05 -1.0281547501938716e-05 0.0000000000000000e+00  2.1234754735031224e-05 -1.4054427993212038e-05 0.0000000000000000e+00  2.4199630620760723e-05 -1.8433483337124343e-05 0.0000000000000000e+00  2.7270886522586384e-05 -2.3281710986246510e-05 0.0000000000000000e+00  3.0130833366804616e-05 -2.8610973930304862e-05 0.0000000000000000e+00  3.3117635766032500e-05 -3.4447288958128798e-05 0.0000000000000000e+00  3.5888992732060571e-05 -4.0720511937428074e-05 0.0000000000000000e+00  3.8741483634834946e-05 -4.7451656668277348e-05 0.0000000000000000e+00  4.1428645456740997e-05 -5.4542425537967684e-05 0.0000000000000000e+00  4.4073033875605849e-05 -6.2081537701987255e-05 0.0000000000000000e+00  4.6764774726157150e-05 -6.9967373413309798e-05 0.0000000000000000e+00  4.9279226472146687e-05 -7.8189437158781186e-05 0.0000000000000000e+00  5.1854002717916924e-05 -8.6777362650374709e-05 0.0000000000000000e+00  5.4261362206411133e-05 -9.5648442654901330e-05 0.0000000000000000e+00  5.6711827696164414e-05 -1.0483174982034134e-04 0.0000000000000000e+00  5.9034303773257014e-05 -1.1427153739338330e-04 0.0000000000000000e+00  6.1360446005073757e-05 -1.2399385308560899e-04 0.0000000000000000e+00  6.3580081921559635e-05 -1.3391046300588057e-04 0.0000000000000000e+00  6.5758665425826097e-05 -1.4407978683705886e-04 0.0000000000000000e+00  6.7940917372395920e-05 -1.5442523838776875e-04 0.0000000000000000e+00  7.0030967063592785e-05 -1.6495973186513333e-04 0.0000000000000000e+00  7.2088854143156884e-05 -1.7568511152844845e-04 0.0000000000000000e+00  7.4083198203250445e-05 -1.8653573083691279e-04 0.0000000000000000e+00  7.6044076297255181e-05 -1.9755235849570400e-04 0.0000000000000000e+00  7.7946536769719278e-05 -2.0866302751702123e-04 0.0000000000000000e+00  7.9814689905445047e-05 -2.1991105446548411e-04 0.0000000000000000e+00  8.1629259208507049e-05 -2.3122448048067376e-04 0.0000000000000000e+00  8.3407398905909250e-05 -2.4264791790005135e-04 0.0000000000000000e+00  8.5136481071497463e-05 -2.5411646880864352e-04 0.0000000000000000e+00  8.6830423918522797e-05 -2.6567214537232654e-04 0.0000000000000000e+00  8.8477893535180918e-05 -2.7725122182494438e-04 0.0000000000000000e+00  9.0089712642123831e-05 -2.8889858754119489e-04 0.0000000000000000e+00  9.1658876112896717e-05 -3.0055391226484527e-04 0.0000000000000000e+00  9.3193159626794042e-05 -3.1226278814939883e-04 0.0000000000000000e+00  9.4686021123411161e-05 -3.2396493158108781e-04 0.0000000000000000e+00  9.6137954398963104e-05 -3.3570067484006618e-04 0.0000000000000000e+00  9.7556209104787141e-05 -3.4743616517019692e-04 0.0000000000000000e+00  9.8939509657112827e-05 -3.5918426866121743e-04 0.0000000000000000e+00  1.0030007382940899e-04 -3.7093535683448457e-04 0.0000000000000000e+00  1.0161363328206069e-04 -3.8267233649588646e-04 0.0000000000000000e+00  1.0292911622112394e-04 -3.9445362131133703e-04 0.0000000000000000e+00  9.6091592078897898e-05 -4.0703462243963799e-04 0.0000000000000000e+00  8.0295276406284623e-05 -4.0830866672250730e-04 0.0000000000000000e+00  7.1328397614635450e-05 -3.9728388997738753e-04 0.0000000000000000e+00  7.0038794038376374e-05 -3.8546806529862808e-04 0.0000000000000000e+00  6.8743937201295427e-05 -3.7363085357087941e-04 0.0000000000000000e+00  6.7410583577795293e-05 -3.6182340793293656e-04 0.0000000000000000e+00  6.6054229284105524e-05 -3.5002307126222819e-04 0.0000000000000000e+00  6.4667496799803548e-05 -3.3823454549269710e-04 0.0000000000000000e+00  6.3261127978096046e-05 -3.2646636510202958e-04 0.0000000000000000e+00  6.1818715501492917e-05 -3.1469745124412758e-04 0.0000000000000000e+00  6.0360337787359524e-05 -3.0297577152364557e-04 0.0000000000000000e+00  5.8870623358516264e-05 -2.9125725776597957e-04 0.0000000000000000e+00  5.7374925332811612e-05 -2.7959757819120859e-04 0.0000000000000000e+00  5.5846573806794743e-05 -2.6795528016139322e-04 0.0000000000000000e+00  5.4319684465280508e-05 -2.5638774588635237e-04 0.0000000000000000e+00  5.2756920955283159e-05 -2.4485937726009691e-04 0.0000000000000000e+00  5.1206403120294962e-05 -2.3342485901669931e-04 0.0000000000000000e+00  4.9614575036219314e-05 -2.2205203152755130e-04 0.0000000000000000e+00  4.8047118346935932e-05 -2.1079579656492207e-04 0.0000000000000000e+00  4.6432342492562006e-05 -1.9962610553870717e-04 0.0000000000000000e+00  4.4852395085064392e-05 -1.8859963284650265e-04 0.0000000000000000e+00  4.3216898924505973e-05 -1.7769112772543773e-04 0.0000000000000000e+00  4.1629802622117556e-05 -1.6695680417080146e-04 0.0000000000000000e+00  3.9977571055071028e-05 -1.5637342470549811e-04 0.0000000000000000e+00  3.8377313245553447e-05 -1.4599275671833541e-04 0.0000000000000000e+00  3.6722125269327909e-05 -1.3578820036969731e-04 0.0000000000000000e+00  3.5060175062125081e-05 -1.2584102483599883e-04 0.0000000000000000e+00  3.3453401676336608e-05 -1.1608287853612658e-04 0.0000000000000000e+00  3.1794501865865896e-05 -1.0659848537377395e-04 0.0000000000000000e+00  3.0164697552418758e-05 -9.7389193477811082e-05 0.0000000000000000e+00  2.8500788272618124e-05 -8.8466939451237306e-05 0.0000000000000000e+00  2.6865381731766864e-05 -7.9864234688691840e-05 0.0000000000000000e+00  2.5193993573206607e-05 -7.1571290188041981e-05 0.0000000000000000e+00  2.3586791559427722e-05 -6.3681140346636753e-05 0.0000000000000000e+00  2.1893254322759550e-05 -5.6098114221023092e-05 0.0000000000000000e+00  2.0195926146367549e-05 -4.8980565412985809e-05 0.0000000000000000e+00  1.8596886512192861e-05 -4.2196556526581987e-05 0.0000000000000000e+00  1.6931186191885119e-05 -3.5894844347629343e-05 0.0000000000000000e+00  1.5311466119952521e-05 -3.0053642069740737e-05 0.0000000000000000e+00  1.3650614326076491e-05 -2.4676920399902715e-05 0.0000000000000000e+00  1.2088142407502881e-05 -1.9864105134202639e-05 0.0000000000000000e+00  1.0422032559858619e-05 -1.5490721587119903e-05 0.0000000000000000e+00  8.7711103535705618e-06 -1.1753993896391501e-05 0.0000000000000000e+00  7.2738564001138990e-06 -8.4769899230079760e-06 0.0000000000000000e+00  5.7215034789290752e-06 -5.8403062534352669e-06 0.0000000000000000e+00  4.2959266029628363e-06 -3.7971593836301984e-06 0.0000000000000000e+00  2.7819284381033414e-06 -2.3265365761555989e-06 0.0000000000000000e+00  1.4117737608184611e-06 -1.3994701556331418e-06 0.0000000000000000e+00  3.5858349060879392e-06 -5.6510419914510467e-07 0.0000000000000000e+00  8.6513836674763099e-05 -3.8991746156926131e-04 0.0000000000000000e+00  8.4212449405954764e-05 -3.6737673398989424e-04 0.0000000000000000e+00  7.9742317361812011e-05 -3.3064436510712005e-04 0.0000000000000000e+00  7.7719097528284557e-06 -3.5192571284913302e-06 0.0000000000000000e+00  7.6678055205678801e-05 -3.0760167584119547e-04 0.0000000000000000e+00  1.2091328200333260e-05 -8.6601247274717625e-06 0.0000000000000000e+00  7.3624929467593574e-05 -2.8421968342782263e-04 0.0000000000000000e+00  1.9254557021019210e-05 -2.1373824771019229e-05 0.0000000000000000e+00  2.3810760978772689e-05 -3.1891461979697285e-05 0.0000000000000000e+00  7.0455734454480620e-05 -2.6098779299871450e-04 0.0000000000000000e+00  3.4785594163203094e-05 -6.6881838488754976e-05 0.0000000000000000e+00  6.3779521430587849e-05 -2.1527451913824151e-04 0.0000000000000000e+00  2.8006406494977485e-05 -4.3956717929604835e-05 0.0000000000000000e+00  3.9052961525789014e-05 -8.3074673045784657e-05 0.0000000000000000e+00  6.0276876687774707e-05 -1.9297612919217473e-04 0.0000000000000000e+00  6.7173071464654414e-05 -2.3797780407962038e-04 0.0000000000000000e+00  4.3162790444481236e-05 -1.0089486313853334e-04 0.0000000000000000e+00  5.6664374321410699e-05 -1.7119810877205875e-04 0.0000000000000000e+00  4.6836045444051581e-05 -1.1907202890056440e-04 0.0000000000000000e+00  5.3203941874585045e-05 -1.5048070645252659e-04 0.0000000000000000e+00  4.9908639257957208e-05 -1.3391977675733071e-04 0.0000000000000000e+00  3.1410380214686835e-05 -5.4489385876240798e-05 0.0000000000000000e+00  8.1805515993775072e-05 -3.4975626462393274e-04 0.0000000000000000e+00  1.5589996019516388e-05 -1.4185225424901423e-05 0.0000000000000000e+00  7.9841835343454724e-05 -3.7905507199858423e-04 0.0000000000000000e+00  4.8550371526150520e-06 -2.1177705106218444e-06 0.0000000000000000e+00  7.0624737289491388e-05 -2.9624663912756685e-04 0.0000000000000000e+00  7.3599226201677911e-05 -3.1969164294768737e-04 0.0000000000000000e+00  1.1267671944227492e-05 -5.6827385219992474e-06 0.0000000000000000e+00  2.3613307359394801e-05 -2.6116556174703974e-05 0.0000000000000000e+00  6.1087025041931304e-05 -2.2690637319376474e-04 0.0000000000000000e+00  6.7544931107459434e-05 -2.7292218029279040e-04 0.0000000000000000e+00  4.0161793585695209e-05 -7.4425214087687702e-05 0.0000000000000000e+00  5.7719964304232162e-05 -2.0438453991406208e-04 0.0000000000000000e+00  2.8491237251891099e-05 -3.7795235620750998e-05 0.0000000000000000e+00  4.4570363124764865e-05 -9.1613287476464676e-05 0.0000000000000000e+00  5.4265168883511305e-05 -1.8232340809739675e-04 0.0000000000000000e+00  6.4363848660134063e-05 -2.4978218752818394e-04 0.0000000000000000e+00  4.9628274473946216e-05 -1.0984580933462806e-04 0.0000000000000000e+00  5.0722889784809445e-05 -1.6084533184001343e-04 0.0000000000000000e+00  1.9450570509167756e-06 7.2005682755444784e-08 0.0000000000000000e+00  1.6375477876259595e-06 -2.4794911382240309e-07 0.0000000000000000e+00  9.1105086621168926e-05 -3.9887147511388088e-04 0.0000000000000000e+00  6.3622177552375571e-06 -1.4206795818853065e-06 0.0000000000000000e+00  4.658