<?xml version="1.0"?>
<VTKFile type="UnstructuredGrid"  version="0.1"  >
<UnstructuredGrid>
<Piece  NumberOfPoints="1419" NumberOfCells="2698">
<Points>
<DataArray  type="Float64"  NumberOfComponents="3"  format="ascii">0 0 0  0 0.41 0  2.5 0 0  2.5 0.41 0  0.6 0.19 0  0.6 0.21 0  0.25 0.2 0  0.15 0.2 0  0.2489897948556636 0.21 0  0.2489897948556636 0.19 0  0.6 0.2 0  0 0.3807142857143437 0  0 0.3514285714286952 0  0 0.3221428571430699 0  0 0.29285714285744 0  0 0.2635714285718054 0  0 0.2342857142861561 0  0 0.2050000000005308 0  0 0.175714285714732 0  0 0.1464285714289574 0  0 0.1171428571431897 0  0 0.08785714285737878 0  0 0.05857142857161107 0  0 0.02928571428580012 0  0.03015443760436003 0 0  0.06140001986583606 0 0  0.09377624077125973 0 0  0.1273239957535082 0 0  0.1620856860351972 0 0  0.1981052433264291 0 0  0.235428184091502 0 0  0.2741016576309132 0 0  0.3141745521465447 0 0  0.3556974926295285 0 0  0.3987229542472677 0 0  0.4433053055141081 0 0  0.4895008759286886 0 0  0.5373680609405097 0 0  0.5869673343216626 0 0  0.6383613676634521 0 0  0.6916151138468254 0 0  0.7467958595648856 0 0  0.8039733463919316 0 0  0.8632198139502143 0 0  0.9246101326867038 0 0  0.9882218810934433 0 0  1.054135445558498 0 0  1.122434100542598 0 0  1.193204177141305 0 0  1.266535089879536 0 0  1.342519516046404 0 0  1.421253448503939 0 0  1.502836389106271 0 0  1.587371439758838 0 0  1.674965418777374 0 0  1.765729001825544 0 0  1.859776908880082 0 0  1.957227977487062 0 0  2.058205329869943 0 0  2.162836591189951 0 0  2.271253957290865 0 0  2.383594446803425 0 0  2.5 0.1024999999997612 0  2.5 0.2049999999994743 0  2.5 0.3074999999997183 0  2.383594446803656 0.41 0  2.271253957291315 0.41 0  2.162836591190598 0.41 0  2.058205329870775 0.41 0  1.957227977488067 0.41 0  1.859776908881246 0.41 0  1.765729001826854 0.41 0  1.674965418778818 0.41 0  1.58737143976041 0.41 0  1.502836389107956 0.41 0  1.421253448505726 0.41 0  1.342519516048286 0.41 0  1.266535089881505 0.41 0  1.193204177143353 0.41 0  1.122434100544716 0.41 0  1.05413544556068 0.41 0  0.9882218810956305 0.41 0  0.9246101326886647 0.41 0  0.8632198139519631 0.41 0  0.8039733463934788 0.41 0  0.7467958595662458 0.41 0  0.6916151138480078 0.41 0  0.6383613676644679 0.41 0  0.5869673343225223 0.41 0  0.5373680609412221 0.41 0  0.4895008759292634 0.41 0  0.4433053055145528 0.41 0  0.3987229542475914 0.41 0  0.3556974926297398 0.41 0  0.3141745521466497 0.41 0  0.2741016576310038 0.41 0  0.2354281840915826 0.41 0  0.1981052433265003 0.41 0  0.1620856860352591 0.41 0  0.1273239957535623 0.41 0  0.09377624077128965 0.41 0  0.06140001986584975 0.41 0  0.03015443760436654 0.41 0  0.2497468076502589 0.2050254481002335 0  0.2497468076502614 0.1949745518997913 0  0.2469965252529372 0.1829317073451959 0  0.2439893735792749 0.1762316384219906 0  0.2400332147834255 0.1700443375285386 0  0.2352133972704371 0.1645032867342007 0  0.2296339016332438 0.1597280261969788 0  0.2234150974217223 0.1558215752574715 0  0.2166911463437691 0.1528682099456123 0  0.2096071079204251 0.1509316448471593 0  0.2023158100364996 0.1500536585536553 0  0.194974551899914 0.1502531923497262 0  0.1877417105387872 0.1515259415822739 0  0.1807733240461124 0.153844448527136 0  0.1742197252835808 0.15715869474974 0  0.1682222986673531 0.1613971801805478 0  0.162910430003803 0.1664684656256651 0  0.1583987151779087 0.1722631454351573 0  0.1547844879126891 0.178656207771761 0  0.1521457199348551 0.1855097315605723 0  0.1505393388476355 0.1926758619366523 0  0.1505393388476328 0.2073241380633295 0  0.1521457199348437 0.2144902684393899 0  0.1547844879126531 0.221343792228163 0  0.1583987151778488 0.2277368545647528 0  0.1629104300036858 0.2335315343742052 0  0.1682222986671726 0.2386028198193036 0  0.1742197252833576 0.2428413052501257 0  0.1807733240458683 0.2461555514727623 0  0.1877417105384929 0.2484740584176516 0  0.1949745518995776 0.2497468076502398 0  0.202315810036185 0.2499463414463592 0  0.2096071079201568 0.2490683551528932 0  0.2166911463435495 0.2471317900544655 0  0.2234150974215506 0.2441784247426195 0  0.2296339016331197 0.2402719738031125 0  0.2352133972703547 0.2354967132658811 0  0.2400332147833751 0.2299556624715287 0  0.2439893735792577 0.2237683615780412 0  0.246996525252926 0.2170682926548348 0  0.25645809709277 0.21 0  0.2639263993298655 0.21 0  0.271394701566961 0.21 0  0.2788630038040554 0.21 0  0.2863313060411479 0.21 0  0.2937996082782405 0.21 0  0.301267910515333 0.21 0  0.3087362127524279 0.21 0  0.3162045149895234 0.21 0  0.3236728172265972 0.21 0  0.3311411194636928 0.21 0  0.3386094217007701 0.21 0  0.3460777239378666 0.21 0  0.3535460261749672 0.21 0  0.3610143284120516 0.21 0  0.3684826306491596 0.21 0  0.3759509328862226 0.21 0  0.383419235123329 0.21 0  0.3908875373604028 0.21 0  0.3983558395975142 0.21 0  0.4058241418345938 0.21 0  0.4132924440716992 0.21 0  0.4207607463087888 0.21 0  0.4282290485459029 0.21 0  0.4356973507830418 0.21 0  0.4431656530201649 0.21 0  0.4506339552573136 0.21 0  0.4581022574944306 0.21 0  0.4655705597315852 0.21 0  0.4730388619686996 0.21 0  0.480507164205851 0.21 0  0.4879754664429498 0.21 0  0.4954437686800938 0.21 0  0.502912070917267 0.21 0  0.5103803731544119 0.21 0  0.5178486753915261 0.21 0  0.5253169776286404 0.21 0  0.5327852798657868 0.21 0  0.5402535821029386 0.21 0  0.54772188434007 0.21 0  0.5551901865771842 0.21 0  0.5626584888143201 0.21 0  0.5701267910514778 0.21 0  0.5775950932886138 0.21 0  0.5850633955257281 0.21 0  0.5925316977628483 0.21 0  0.6 0.2050000000000054 0  0.6 0.1950000000000217 0  0.5925316977628897 0.19 0  0.5850633955257988 0.19 0  0.5775950932887378 0.19 0  0.5701267910515998 0.19 0  0.5626584888145268 0.19 0  0.5551901865773963 0.19 0  0.547721884340339 0.19 0  0.5402535821032429 0.19 0  0.5327852798661811 0.19 0  0.5253169776290537 0.19 0  0.5178486753919799 0.19 0  0.5103803731549078 0.19 0  0.502912070917822 0.19 0  0.4954437686807294 0.19 0  0.4879754664436223 0.19 0  0.4805071642065402 0.19 0  0.4730388619694271 0.19 0  0.4655705597323621 0.19 0  0.4581022574952563 0.19 0  0.4506339552581777 0.19 0  0.4431656530210671 0.19 0  0.4356973507839815 0.19 0  0.4282290485468779 0.19 0  0.4207607463097617 0.19 0  0.4132924440726327 0.19 0  0.4058241418354857 0.19 0  0.3983558395983636 0.19 0  0.3908875373612097 0.19 0  0.3834192351240934 0.19 0  0.3759509328869369 0.19 0  0.3684826306498175 0.19 0  0.361014328412667 0.19 0  0.3535460261755617 0.19 0  0.3460777239384295 0.19 0  0.3386094217012945 0.19 0  0.3311411194641595 0.19 0  0.3236728172270245 0.19 0  0.3162045149898895 0.19 0  0.3087362127527544 0.19 0  0.3012679105156187 0.19 0  0.2937996082784807 0.19 0  0.2863313060413428 0.19 0  0.2788630038042048 0.19 0  0.2713947015670686 0.19 0  0.2639263993299336 0.19 0  0.2564580970927985 0.19 0  0.2607803159922026 0.2000727136295815 0  0.5887803774232762 0.2001272386983733 0  0.5745072403740523 0.2002044435018727 0  0.5511891430099709 0.2001122610077113 0  0.2751288526855082 0.20000000000002 0  0.5365194309847112 0.1999999999999436 0  0.2894621222999649 0.1998691686390484 0  0.5215828265105155 0.1999999999999228 0  0.3127789816668748 0.1998657885438805 0  0.3274069683451451 0.2000000000000796 0  0.5066462220363641 0.199999999999908 0  0.3650630746574081 0.199866017807523 0  0.476773013087985 0.1999999999998713 0  0.3417402379596385 0.1998691686391011 0  0.3796850840047755 0.200000000000134 0  0.4618364086138087 0.1999999999998546 0  0.4917096175621762 0.1999999999998808 0  0.3946216884789568 0.2000000000001512 0  0.446899804139621 0.1999999999998389 0  0.4089549580935208 0.1998691686391595 0  0.4322718174608562 0.200127451265745 0  0.4201487168029707 0.1999966199048527 0  0.3528922713220932 0.2000185703532356 0  0.5633122436674589 0.1999814296467508 0  0.3006558810093873 0.1999966199048318 0  0.5815926498168407 0.1966545283159175 0  0.2677053789419034 0.1964246479135325 0  0.5290511287476175 0.1970915826863981 0  0.5439877332217911 0.197091582686394 0  0.2825131256993216 0.2035478995978015 0  0.3199386661080599 0.202908417313604 0  0.4842413153250809 0.1970915826863873 0  0.5141145242734466 0.1970915826863843 0  0.3722167817676917 0.2029084173136195 0  0.4693047108508938 0.1970915826863783 0  0.3348752705822316 0.202908417313609 0  0.3871533862418661 0.2029084173136212 0  0.4543681063767183 0.1970915826863795 0  0.4991779197992749 0.1970915826863902 0  0.4020059614928624 0.203547899597858 0  0.4394315019025246 0.1970915826863714 0  0.2550657455369551 0.2034088125358657 0  0.2548908499171161 0.1966940311614271 0  0.5946539510196798 0.2024302972968126 0  0.267698176732111 0.2039977513680092 0  0.4261685417851465 0.196409292431739 0  0.3590076176283495 0.196411355804271 0  0.5571672426447437 0.2036011176410121 0  0.3066757059912147 0.1964092924317024 0  0.594380730180568 0.1966558399668133 0  0.4842413153245942 0.2040749161535287 0  0.4693047108503577 0.2040749161535231 0  0.3871533862424271 0.1959250838464788 0  0.372246743208829 0.1959123236376545 0  0.5141145242731028 0.2040749161535395 0  0.4543681063761134 0.2040749161535186 0  0.4019979587101454 0.1959834479682427 0  0.4394608940728603 0.2040870543693135 0  0.5439623148931173 0.2040856076781014 0  0.5290511287473298 0.2040749161535501 0  0.4991779197988497 0.2040749161535382 0  0.3347912413592433 0.1959225448935183 0  0.3199680582793816 0.1959123018030061 0  0.2825051229162361 0.1959834479681729 0  0.3590471196690275 0.2036304442587945 0  0.5571594006495384 0.1963685282145804 0  0.3067669986803285 0.203627750582736 0  0.4262598344738712 0.2036568242185335 0  0.5814408164431408 0.2041285596160068 0  0.5688286748170428 0.1961819304477386 0  0.4145905603063645 0.2038180695522843 0  0.3473758401724931 0.2038180695522752 0  0.2950977245128307 0.2038180695522663 0  0.5688286748170693 0.203818069552238 0  0.2950977245127906 0.1961819304477774 0  0.3473758401723931 0.1961819304478349 0  0.4145905603061963 0.1961819304479011 0  0.2601812407614425 0.2056861609747042
[...]
<PointData  Vectors="f_46-0"> 
<DataArray  type="Float64"  Name="f_46-0"  NumberOfComponents="3" format="ascii">0.0000000000000000e+00 0.0000000000000000e+00 0.0000000000000000e+00  0.0000000000000000e+00 0.0000000000000000e+00 0.0000000000000000e+00  0.0000000000000000e+00 0.0000000000000000e+00 0.0000000000000000e+00  0.0000000000000000e+00 0.0000000000000000e+00 0.0000000000000000e+00  7.4448581879389889e-05 -4.5148521316814167e-04 0.0000000000000000e+00  1.0938348429958888e-04 -4.4721713765394637e-04 0.0000000000000000e+00  0.0000000000000000e+00 0.0000000000000000e+00 0.0000000000000000e+00  0.0000000000000000e+00 0.0000000000000000e+00 0.0000000000000000e+00  0.0000000000000000e+00 0.0000000000000000e+00 0.0000000000000000e+00  0.0000000000000000e+00 0.0000000000000000e+00 0.0000000000000000e+00  9.1657223438534500e-05 -4.4934859765839952e-04 0.0000000000000000e+00  6.2473755744176705e-02 0.0000000000000000e+00 0.0000000000000000e+00  1.1533616445079542e-01 0.0000000000000000e+00 0.0000000000000000e+00  1.5858722611984369e-01 0.0000000000000000e+00 0.0000000000000000e+00  1.9222694075137167e-01 0.0000000000000000e+00 0.0000000000000000e+00  2.1625530834537499e-01 0.0000000000000000e+00 0.0000000000000000e+00  2.3067232890185213e-01 0.0000000000000000e+00 0.0000000000000000e+00  2.3547800242078873e-01 0.0000000000000000e+00 0.0000000000000000e+00  2.3067232890214359e-01 0.0000000000000000e+00 0.0000000000000000e+00  2.1625530834587564e-01 0.0000000000000000e+00 0.0000000000000000e+00  1.9222694075199176e-01 0.0000000000000000e+00 0.0000000000000000e+00  1.5858722612043274e-01 0.0000000000000000e+00 0.0000000000000000e+00  1.1533616445129806e-01 0.0000000000000000e+00 0.0000000000000000e+00  6.2473755744459909e-02 0.0000000000000000e+00 0.0000000000000000e+00  0.0000000000000000e+00 0.0000000000000000e+00 0.0000000000000000e+00  0.0000000000000000e+00 0.0000000000000000e+00 0.0000000000000000e+00  0.0000000000000000e+00 0.0000000000000000e+00 0.0000000000000000e+00  0.0000000000000000e+00 0.0000000000000000e+00 0.0000000000000000e+00  0.0000000000000000e+00 0.0000000000000000e+00 0.0000000000000000e+00  0.0000000000000000e+00 0.0000000000000000e+00 0.0000000000000000e+00  0.0000000000000000e+00 0.0000000000000000e+00 0.0000000000000000e+00  0.0000000000000000e+00 0.0000000000000000e+00 0.0000000000000000e+00  0.0000000000000000e+00 0.0000000000000000e+00 0.0000000000000000e+00  0.0000000000000000e+00 0.0000000000000000e+00 0.0000000000000000e+00  0.0000000000000000e+00 0.0000000000000000e+00 0.0000000000000000e+00  0.0000000000000000e+00 0.0000000000000000e+00 0.0000000000000000e+00  0.0000000000000000e+00 0.0000000000000000e+00 0.0000000000000000e+00  0.0000000000000000e+00 0.0000000000000000e+00 0.0000000000000000e+00  0.0000000000000000e+00 0.0000000000000000e+00 0.0000000000000000e+00  0.0000000000000000e+00 0.0000000000000000e+00 0.0000000000000000e+00  0.0000000000000000e+00 0.0000000000000000e+00 0.0000000000000000e+00  0.0000000000000000e+00 0.0000000000000000e+00 0.0000000000000000e+00  0.0000000000000000e+00 0.0000000000000000e+00 0.0000000000000000e+00  0.0000000000000000e+00 0.0000000000000000e+00 0.0000000000000000e+00  0.0000000000000000e+00 0.0000000000000000e+00 0.0000000000000000e+00  0.0000000000000000e+00 0.0000000000000000e+00 0.0000000000000000e+00  0.0000000000000000e+00 0.0000000000000000e+00 0.0000000000000000e+00  0.0000000000000000e+00 0.0000000000000000e+00 0.0000000000000000e+00  0.0000000000000000e+00 0.0000000000000000e+00 0.0000000000000000e+00  0.0000000000000000e+00 0.0000000000000000e+00 0.0000000000000000e+00  0.0000000000000000e+00 0.0000000000000000e+00 0.0000000000000000e+00  0.0000000000000000e+00 0.0000000000000000e+00 0.0000000000000000e+00  0.0000000000000000e+00 0.0000000000000000e+00 0.0000000000000000e+00  0.0000000000000000e+00 0.0000000000000000e+00 0.0000000000000000e+00  0.0000000000000000e+00 0.0000000000000000e+00 0.0000000000000000e+00  0.0000000000000000e+00 0.0000000000000000e+00 0.0000000000000000e+00  0.0000000000000000e+00 0.0000000000000000e+00 0.0000000000000000e+00  0.0000000000000000e+00 0.0000000000000000e+00 0.0000000000000000e+00  0.0000000000000000e+00 0.0000000000000000e+00 0.0000000000000000e+00  0.0000000000000000e+00 0.0000000000000000e+00 0.0000000000000000e+00  0.0000000000000000e+00 0.0000000000000000e+00 0.0000000000000000e+00  0.0000000000000000e+00 0.0000000000000000e+00 0.0000000000000000e+00  2.2253971810198672e-01 1.8839878020376899e-02 0.0000000000000000e+00  1.7637978747916072e-01 8.8029559464055252e-04 0.0000000000000000e+00  2.2584489306568459e-01 -2.5032211302539950e-02 0.0000000000000000e+00  0.0000000000000000e+00 0.0000000000000000e+00 0.0000000000000000e+00  0.0000000000000000e+00 0.0000000000000000e+00 0.0000000000000000e+00  0.0000000000000000e+00 0.0000000000000000e+00 0.0000000000000000e+00  0.0000000000000000e+00 0.0000000000000000e+00 0.0000000000000000e+00  0.0000000000000000e+00 0.0000000000000000e+00 0.0000000000000000e+00  0.0000000000000000e+00 0.0000000000000000e+00 0.0000000000000000e+00  0.0000000000000000e+00 0.0000000000000000e+00 0.0000000000000000e+00  0.0000000000000000e+00 0.0000000000000000e+00 0.0000000000000000e+00  0.0000000000000000e+00 0.0000000000000000e+00 0.0000000000000000e+00  0.0000000000000000e+00 0.0000000000000000e+00 0.0000000000000000e+00  0.0000000000000000e+00 0.0000000000000000e+00 0.0000000000000000e+00  0.0000000000000000e+00 0.0000000000000000e+00 0.0000000000000000e+00  0.0000000000000000e+00 0.0000000000000000e+00 0.0000000000000000e+00  0.0000000000000000e+00 0.0000000000000000e+00 0.0000000000000000e+00  0.0000000000000000e+00 0.0000000000000000e+00 0.0000000000000000e+00  0.0000000000000000e+00 0.0000000000000000e+00 0.0000000000000000e+00  0.0000000000000000e+00 0.0000000000000000e+00 0.0000000000000000e+00  0.0000000000000000e+00 0.0000000000000000e+00 0.0000000000000000e+00  0.0000000000000000e+00 0.0000000000000000e+00 0.0000000000000000e+00  0.0000000000000000e+00 0.0000000000000000e+00 0.0000000000000000e+00  0.0000000000000000e+00 0.0000000000000000e+00 0.0000000000000000e+00  0.0000000000000000e+00 0.0000000000000000e+00 0.0000000000000000e+00  0.0000000000000000e+00 0.0000000000000000e+00 0.0000000000000000e+00  0.0000000000000000e+00 0.0000000000000000e+00 0.0000000000000000e+00  0.0000000000000000e+00 0.0000000000000000e+00 0.0000000000000000e+00  0.0000000000000000e+00 0.0000000000000000e+00 0.0000000000000000e+00  0.0000000000000000e+00 0.0000000000000000e+00 0.0000000000000000e+00  0.0000000000000000e+00 0.0000000000000000e+00 0.0000000000000000e+00  0.0000000000000000e+00 0.0000000000000000e+00 0.0000000000000000e+00  0.0000000000000000e+00 0.0000000000000000e+00 0.0000000000000000e+00  0.0000000000000000e+00 0.0000000000000000e+00 0.0000000000000000e+00  0.0000000000000000e+00 0.0000000000000000e+00 0.0000000000000000e+00  0.0000000000000000e+00 0.0000000000000000e+00 0.0000000000000000e+00  0.0000000000000000e+00 0.0000000000000000e+00 0.0000000000000000e+00  0.0000000000000000e+00 0.0000000000000000e+00 0.0000000000000000e+00  0.0000000000000000e+00 0.0000000000000000e+00 0.0000000000000000e+00  0.0000000000000000e+00 0.0000000000000000e+00 0.0000000000000000e+00  0.0000000000000000e+00 0.0000000000000000e+00 0.0000000000000000e+00  0.0000000000000000e+00 0.0000000000000000e+00 0.0000000000000000e+00  0.0000000000000000e+00 0.0000000000000000e+00 0.0000000000000000e+00  1.7544998043811316e-16 0.0000000000000000e+00 0.0000000000000000e+00  0.0000000000000000e+00 0.0000000000000000e+00 0.0000000000000000e+00  0.0000000000000000e+00 0.0000000000000000e+00 0.0000000000000000e+00  0.0000000000000000e+00 0.0000000000000000e+00 0.0000000000000000e+00  0.0000000000000000e+00 0.0000000000000000e+00 0.0000000000000000e+00  -4.7656774556913398e-17 0.0000000000000000e+00 0.0000000000000000e+00  0.0000000000000000e+00 0.0000000000000000e+00 0.0000000000000000e+00  0.0000000000000000e+00 0.0000000000000000e+00 0.0000000000000000e+00  0.0000000000000000e+00 0.0000000000000000e+00 0.0000000000000000e+00  0.0000000000000000e+00 0.0000000000000000e+00 0.0000000000000000e+00  0.0000000000000000e+00 0.0000000000000000e+00 0.0000000000000000e+00  0.0000000000000000e+00 0.0000000000000000e+00 0.0000000000000000e+00  0.0000000000000000e+00 0.0000000000000000e+00 0.0000000000000000e+00  0.0000000000000000e+00 0.0000000000000000e+00 0.0000000000000000e+00  0.0000000000000000e+00 0.0000000000000000e+00 0.0000000000000000e+00  0.0000000000000000e+00 0.0000000000000000e+00 0.0000000000000000e+00  0.0000000000000000e+00 0.0000000000000000e+00 0.0000000000000000e+00  0.0000000000000000e+00 0.0000000000000000e+00 0.0000000000000000e+00  0.0000000000000000e+00 0.0000000000000000e+00 0.0000000000000000e+00  0.0000000000000000e+00 0.0000000000000000e+00 0.0000000000000000e+00  0.0000000000000000e+00 0.0000000000000000e+00 0.0000000000000000e+00  0.0000000000000000e+00 0.0000000000000000e+00 0.0000000000000000e+00  0.0000000000000000e+00 0.0000000000000000e+00 0.0000000000000000e+00  0.0000000000000000e+00 0.0000000000000000e+00 0.0000000000000000e+00  0.0000000000000000e+00 0.0000000000000000e+00 0.0000000000000000e+00  0.0000000000000000e+00 0.0000000000000000e+00 0.0000000000000000e+00  0.0000000000000000e+00 0.0000000000000000e+00 0.0000000000000000e+00  0.0000000000000000e+00 0.0000000000000000e+00 0.0000000000000000e+00  0.0000000000000000e+00 0.0000000000000000e+00 0.0000000000000000e+00  0.0000000000000000e+00 0.0000000000000000e+00 0.0000000000000000e+00  0.0000000000000000e+00 0.0000000000000000e+00 0.0000000000000000e+00  0.0000000000000000e+00 0.0000000000000000e+00 0.0000000000000000e+00  0.0000000000000000e+00 0.0000000000000000e+00 0.0000000000000000e+00  0.0000000000000000e+00 0.0000000000000000e+00 0.0000000000000000e+00  0.0000000000000000e+00 0.0000000000000000e+00 0.0000000000000000e+00  0.0000000000000000e+00 0.0000000000000000e+00 0.0000000000000000e+00  0.0000000000000000e+00 0.0000000000000000e+00 0.0000000000000000e+00  -4.0453523530536306e-16 0.0000000000000000e+00 0.0000000000000000e+00  2.8088848460114788e-06 1.9012003325461451e-06 0.0000000000000000e+00  5.7715435776199118e-06 1.1286588213148711e-06 0.0000000000000000e+00  8.5897325951680571e-06 -4.5915939214303491e-07 0.0000000000000000e+00  1.1479092899159461e-05 -2.8232422556442007e-06 0.0000000000000000e+00  1.4235897579166613e-05 -5.8060929999898231e-06 0.0000000000000000e+00  1.7179352450220054e-05 -9.4215645264739683e-06 0.0000000000000000e+00  1.9968239170559699e-05 -1.3535974312541637e-05 0.0000000000000000e+00  2.2778490080052465e-05 -1.8317808940199051e-05 0.0000000000000000e+00  2.5729009770267190e-05 -2.3612836629672696e-05 0.0000000000000000e+00  2.8476314414224426e-05 -2.9448565976603566e-05 0.0000000000000000e+00  3.1390960853061405e-05 -3.5831108799943897e-05 0.0000000000000000e+00  3.4090713765194099e-05 -4.2713725961681011e-05 0.0000000000000000e+00  3.6908644406707845e-05 -5.0097271985613121e-05 0.0000000000000000e+00  3.9559098626705237e-05 -5.7882217617112921e-05 0.0000000000000000e+00  4.2186736600525867e-05 -6.6172047505083596e-05 0.0000000000000000e+00  4.4884139310602597e-05 -7.4845432605909868e-05 0.0000000000000000e+00  4.7406277635730859e-05 -8.3907791038195445e-05 0.0000000000000000e+00  5.0017231450359223e-05 -9.3368030482975903e-05 0.0000000000000000e+00  5.2459727165866360e-05 -1.0316304478194587e-04 0.0000000000000000e+00  5.4970157464982016e-05 -1.1329596722882136e-04 0.0000000000000000e+00  5.7356691874356666e-05 -1.2373302503163025e-04 0.0000000000000000e+00  5.9770634493469645e-05 -1.3448083187086389e-04 0.0000000000000000e+00  6.2078696480079052e-05 -1.4544820397172081e-04 0.0000000000000000e+00  6.4362157110563279e-05 -1.5670358632800582e-04 0.0000000000000000e+00  6.6664647052673849e-05 -1.6815162588859706e-04 0.0000000000000000e+00  6.8886512385006308e-05 -1.7982264820613157e-04 0.0000000000000000e+00  7.1092722859313629e-05 -1.9169352087262495e-04 0.0000000000000000e+00  7.3246710548684665e-05 -2.0371877932823354e-04 0.0000000000000000e+00  7.5383446900609041e-05 -2.1591677527653858e-04 0.0000000000000000e+00  7.7473952567837673e-05 -2.2823215661810616e-04 0.0000000000000000e+00  7.9545819607955654e-05 -2.4068883197058370e-04 0.0000000000000000e+00  8.1577983524431909e-05 -2.5323117235342659e-04 0.0000000000000000e+00  8.3588478577302746e-05 -2.6588320758133132e-04 0.0000000000000000e+00  8.5565250391696728e-05 -2.7859924115354611e-04 0.0000000000000000e+00  8.7523688158424039e-05 -2.9139724923984907e-04 0.0000000000000000e+00  8.9449906761732354e-05 -3.0423448065796532e-04 0.0000000000000000e+00  9.1356394767989183e-05 -3.1713427550336540e-04 0.0000000000000000e+00  9.3235677804575891e-05 -3.3005539319953147e-04 0.0000000000000000e+00  9.5097164983263570e-05 -3.4302242566296967e-04 0.0000000000000000e+00  9.6934419579532052e-05 -3.5599406831176672e-04 0.0000000000000000e+00  9.8750208052708933e-05 -3.6899444216178297e-04 0.0000000000000000e+00  1.0054558373710015e-04 -3.8199869907270303e-04 0.0000000000000000e+00  1.0232686644186697e-04 -3.9501416106103512e-04 0.0000000000000000e+00  1.0409585523214250e-04 -4.0803380842183872e-04 0.0000000000000000e+00  1.0583849960043304e-04 -4.2104580092312767e-04 0.0000000000000000e+00  1.0758407931135545e-04 -4.3408350934494023e-04 0.0000000000000000e+00  1.0043879962864122e-04 -4.4827562071883260e-04 0.0000000000000000e+00  8.2978973433197958e-05 -4.5042530937513164e-04 0.0000000000000000e+00  7.2662540573160470e-05 -4.3853140047733931e-04 0.0000000000000000e+00  7.0936710455370830e-05 -4.2549261860508846e-04 0.0000000000000000e+00  6.9209892247082473e-05 -4.1244275748191119e-04 0.0000000000000000e+00  6.7465822199589979e-05 -3.9941457432394019e-04 0.0000000000000000e+00  6.5710455910998521e-05 -3.8639265615070608e-04 0.0000000000000000e+00  6.3947814806964226e-05 -3.7338209228393918e-04 0.0000000000000000e+00  6.2180589785291004e-05 -3.6038919001119257e-04 0.0000000000000000e+00  6.0397960735701536e-05 -3.4740234609709707e-04 0.0000000000000000e+00  5.8618394527299583e-05 -3.3445415707687254e-04 0.0000000000000000e+00  5.6825157523292843e-05 -3.2152241659643549e-04 0.0000000000000000e+00  5.5045659345547933e-05 -3.0864163827698743e-04 0.0000000000000000e+00  5.3250798747066156e-05 -2.9579350888979611e-04 0.0000000000000000e+00  5.1478222496244049e-05 -2.8301415297906735e-04 0.0000000000000000e+00  4.9685886011808960e-05 -2.7029106048847299e-04 0.0000000000000000e+00  4.7927354834137683e-05 -2.5765852318844436e-04 0.0000000000000000e+00  4.6143274704963138e-05 -2.4510796242086170e-04 0.0000000000000000e+00  4.4406603516989410e-05 -2.3267397537509344e-04 0.0000000000000000e+00  4.2637432505653028e-05 -2.2035041606523263e-04 0.0000000000000000e+00  4.0927696294518221e-05 -2.0817293051278554e-04 0.0000000000000000e+00  3.9175615020244656e-05 -1.9614035660103099e-04 0.0000000000000000e+00  3.7498186935601045e-05 -1.8428937608676459e-04 0.0000000000000000e+00  3.5767885961666015e-05 -1.7262060745424016e-04 0.0000000000000000e+00  3.4119242587595956e-05 -1.6117113348508889e-04 0.0000000000000000e+00  3.2424901071783479e-05 -1.4992331842309542e-04 0.0000000000000000e+00  3.0746010087652380e-05 -1.3896466662644870e-04 0.0000000000000000e+00  2.9143335325553832e-05 -1.2821691914747653e-04 0.0000000000000000e+00  2.7505892872438937e-05 -1.1778593639048986e-04 0.0000000000000000e+00  2.5921080986897633e-05 -1.0765269391199379e-04 0.0000000000000000e+00  2.4317581927836293e-05 -9.7857991811529669e-05 0.0000000000000000e+00  2.2765992690835427e-05 -8.8410522763613013e-05 0.0000000000000000e+00  2.1193698531285422e-05 -7.9326606977495818e-05 0.0000000000000000e+00  1.9715817545523904e-05 -7.0686581350259904e-05 0.0000000000000000e+00  1.8154779864122976e-05 -6.2397379889021288e-05 0.0000000000000000e+00  1.6611516268245047e-05 -5.4627887877045063e-05 0.0000000000000000e+00  1.5191435627249365e-05 -4.7232359394829507e-05 0.0000000000000000e+00  1.3722350465345843e-05 -4.0382214904918690e-05 0.0000000000000000e+00  1.2325742130236094e-05 -3.4032746194050128e-05 0.0000000000000000e+00  1.0906948783893123e-05 -2.8213841576266634e-05 0.0000000000000000e+00  9.6226121969283479e-06 -2.3011507530526985e-05 0.0000000000000000e+00  8.2418106042349394e-06 -1.8298203488397526e-05 0.0000000000000000e+00  6.9054945052612936e-06 -1.4283569573829575e-05 0.0000000000000000e+00  5.7535149194982151e-06 -1.0768926148299198e-05 0.0000000000000000e+00  4.5666099164203160e-06 -7.9670901091278604e-06 0.0000000000000000e+00  3.5153931186842231e-06 -5.7977913199103056e-06 0.0000000000000000e+00  2.3374369337853477e-06 -4.1959678595195977e-06 0.0000000000000000e+00  1.2308475694517371e-06 -3.0798690377404349e-06 0.0000000000000000e+00  3.6689319618825913e-06 -5.8199926068526306e-07 0.0000000000000000e+00  8.9363302733998519e-05 -4.2972517787307092e-04 0.0000000000000000e+00  8.6220796924442355e-05 -4.0480076309184354e-04 0.0000000000000000e+00  8.0525152282366031e-05 -3.6418689062822217e-04 0.0000000000000000e+00  7.0456006233284499e-06 -3.7584666547074945e-06 0.0000000000000000e+00  7.6773142829666217e-05 -3.3871121493864046e-04 0.0000000000000000e+00  1.0784430719339585e-05 -9.3219458604216830e-06 0.0000000000000000e+00  7.3105976476870403e-05 -3.1284877864203920e-04 0.0000000000000000e+00  1.7210361209326677e-05 -2.3096090448887685e-05 0.0000000000000000e+00  2.1435677327813856e-05 -3.4523788576558648e-05 0.0000000000000000e+00  6.9391967790924982e-05 -2.8715087398062508e-04 0.0000000000000000e+00  3.1870573245783752e-05 -7.2830358351910882e-05 0.0000000000000000e+00  6.1831136559527790e-05 -2.3658550919062959e-04 0.0000000000000000e+00  2.5362637922008947e-05 -4.7716482632079499e-05 0.0000000000000000e+00  3.6070101424525258e-05 -9.0604517262701464e-05 0.0000000000000000e+00  5.7987485084217849e-05 -2.1192503306187327e-04 0.0000000000000000e+00  6.5632977129098823e-05 -2.6169801220804039e-04 0.0000000000000000e+00  4.0158547114752162e-05 -1.1022399582893147e-04 0.0000000000000000e+00  5.4100704216927170e-05 -1.8784591748936827e-04 0.0000000000000000e+00  4.3853219660377305e-05 -1.3028410122107854e-04 0.0000000000000000e+00  5.0452587860281589e-05 -1.6493432545839045e-04 0.0000000000000000e+00  4.7023269646977937e-05 -1.4665723816489489e-04 0.0000000000000000e+00  2.8636306084695938e-05 -5.9222441108008589e-05 0.0000000000000000e+00  8.3180450679678472e-05 -3.8533283402591805e-04 0.0000000000000000e+00  1.3913866807214983e-05 -1.5277487831391202e-05 0.0000000000000000e+00  8.1670565631738993e-05 -4.1795410524551858e-04 0.0000000000000000e+00  4.4412311773233555e-06 -2.9044685175521439e-06 0.0000000000000000e+00  6.9922053832843279e-05 -3.2640615906696138e-04 0.0000000000000000e+00  7.3543451342365619e-05 -3.5232400840117396e-04 0.0000000000000000e+00  1.0334143882890009e-05 -5.4914070381559726e-06 0.0000000000000000e+00  2.1586202463481059e-05 -2.7790796181303148e-05 0.0000000000000000e+00  5.8867017848378338e-05 -2.4974540331641369e-04 0.0000000000000000e+00  6.6265944106590923e-05 -3.0061987234136382e-04 0.0000000000000000e+00  3.7529843179105339e-05 -8.0705673661695472e-05 0.0000000000000000e+00  5.5134639736809775e-05 -2.2484855932201732e-04 0.0000000000000000e+00  2.6196647689678056e-05 -4.0538181462574449e-05 0.0000000000000000e+00  4.1916577055807431e-05 -9.9622955058938377e-05 0.0000000000000000e+00  5.1384670564858877e-05 -2.0046607829475832e-04 0.0000000000000000e+00  6.2579284215286788e-05 -2.7503668450327420e-04 0.0000000000000000e+00  4.7094845611925541e-05 -1.1964464792035776e-04 0.0000000000000000e+00  4.7616043125557805e-05 -1.7673529439337510e-04 0.0000000000000000e+00  2.1903626180759017e-06 4.7111514668049020e-07 0.0000000000000000e+00  1.8623878920008067e-06 -6.0953427878604243e-07 0.0000000000000000e+00  9.4709208957127945e-05 -4.3946665316290257e-04 0.0000000000000000e+00  6.0572711227737626e-06 -7.8475532192411444e-07 0.0000000000000000e+00  4.3234