<?xml version="1.0"?>
<VTKFile type="UnstructuredGrid"  version="0.1"  >
<UnstructuredGrid>
<Piece  NumberOfPoints="1419" NumberOfCells="2698">
<Points>
<DataArray  type="Float64"  NumberOfComponents="3"  format="ascii">0 0 0  0 0.41 0  2.5 0 0  2.5 0.41 0  0.6 0.19 0  0.6 0.21 0  0.25 0.2 0  0.15 0.2 0  0.2489897948556636 0.21 0  0.2489897948556636 0.19 0  0.6 0.2 0  0 0.3807142857143437 0  0 0.3514285714286952 0  0 0.3221428571430699 0  0 0.29285714285744 0  0 0.2635714285718054 0  0 0.2342857142861561 0  0 0.2050000000005308 0  0 0.175714285714732 0  0 0.1464285714289574 0  0 0.1171428571431897 0  0 0.08785714285737878 0  0 0.05857142857161107 0  0 0.02928571428580012 0  0.03015443760436003 0 0  0.06140001986583606 0 0  0.09377624077125973 0 0  0.1273239957535082 0 0  0.1620856860351972 0 0  0.1981052433264291 0 0  0.235428184091502 0 0  0.2741016576309132 0 0  0.3141745521465447 0 0  0.3556974926295285 0 0  0.3987229542472677 0 0  0.4433053055141081 0 0  0.4895008759286886 0 0  0.5373680609405097 0 0  0.5869673343216626 0 0  0.6383613676634521 0 0  0.6916151138468254 0 0  0.7467958595648856 0 0  0.8039733463919316 0 0  0.8632198139502143 0 0  0.9246101326867038 0 0  0.9882218810934433 0 0  1.054135445558498 0 0  1.122434100542598 0 0  1.193204177141305 0 0  1.266535089879536 0 0  1.342519516046404 0 0  1.421253448503939 0 0  1.502836389106271 0 0  1.587371439758838 0 0  1.674965418777374 0 0  1.765729001825544 0 0  1.859776908880082 0 0  1.957227977487062 0 0  2.058205329869943 0 0  2.162836591189951 0 0  2.271253957290865 0 0  2.383594446803425 0 0  2.5 0.1024999999997612 0  2.5 0.2049999999994743 0  2.5 0.3074999999997183 0  2.383594446803656 0.41 0  2.271253957291315 0.41 0  2.162836591190598 0.41 0  2.058205329870775 0.41 0  1.957227977488067 0.41 0  1.859776908881246 0.41 0  1.765729001826854 0.41 0  1.674965418778818 0.41 0  1.58737143976041 0.41 0  1.502836389107956 0.41 0  1.421253448505726 0.41 0  1.342519516048286 0.41 0  1.266535089881505 0.41 0  1.193204177143353 0.41 0  1.122434100544716 0.41 0  1.05413544556068 0.41 0  0.9882218810956305 0.41 0  0.9246101326886647 0.41 0  0.8632198139519631 0.41 0  0.8039733463934788 0.41 0  0.7467958595662458 0.41 0  0.6916151138480078 0.41 0  0.6383613676644679 0.41 0  0.5869673343225223 0.41 0  0.5373680609412221 0.41 0  0.4895008759292634 0.41 0  0.4433053055145528 0.41 0  0.3987229542475914 0.41 0  0.3556974926297398 0.41 0  0.3141745521466497 0.41 0  0.2741016576310038 0.41 0  0.2354281840915826 0.41 0  0.1981052433265003 0.41 0  0.1620856860352591 0.41 0  0.1273239957535623 0.41 0  0.09377624077128965 0.41 0  0.06140001986584975 0.41 0  0.03015443760436654 0.41 0  0.2497468076502589 0.2050254481002335 0  0.2497468076502614 0.1949745518997913 0  0.2469965252529372 0.1829317073451959 0  0.2439893735792749 0.1762316384219906 0  0.2400332147834255 0.1700443375285386 0  0.2352133972704371 0.1645032867342007 0  0.2296339016332438 0.1597280261969788 0  0.2234150974217223 0.1558215752574715 0  0.2166911463437691 0.1528682099456123 0  0.2096071079204251 0.1509316448471593 0  0.2023158100364996 0.1500536585536553 0  0.194974551899914 0.1502531923497262 0  0.1877417105387872 0.1515259415822739 0  0.1807733240461124 0.153844448527136 0  0.1742197252835808 0.15715869474974 0  0.1682222986673531 0.1613971801805478 0  0.162910430003803 0.1664684656256651 0  0.1583987151779087 0.1722631454351573 0  0.1547844879126891 0.178656207771761 0  0.1521457199348551 0.1855097315605723 0  0.1505393388476355 0.1926758619366523 0  0.1505393388476328 0.2073241380633295 0  0.1521457199348437 0.2144902684393899 0  0.1547844879126531 0.221343792228163 0  0.1583987151778488 0.2277368545647528 0  0.1629104300036858 0.2335315343742052 0  0.1682222986671726 0.2386028198193036 0  0.1742197252833576 0.2428413052501257 0  0.1807733240458683 0.2461555514727623 0  0.1877417105384929 0.2484740584176516 0  0.1949745518995776 0.2497468076502398 0  0.202315810036185 0.2499463414463592 0  0.2096071079201568 0.2490683551528932 0  0.2166911463435495 0.2471317900544655 0  0.2234150974215506 0.2441784247426195 0  0.2296339016331197 0.2402719738031125 0  0.2352133972703547 0.2354967132658811 0  0.2400332147833751 0.2299556624715287 0  0.2439893735792577 0.2237683615780412 0  0.246996525252926 0.2170682926548348 0  0.25645809709277 0.21 0  0.2639263993298655 0.21 0  0.271394701566961 0.21 0  0.2788630038040554 0.21 0  0.2863313060411479 0.21 0  0.2937996082782405 0.21 0  0.301267910515333 0.21 0  0.3087362127524279 0.21 0  0.3162045149895234 0.21 0  0.3236728172265972 0.21 0  0.3311411194636928 0.21 0  0.3386094217007701 0.21 0  0.3460777239378666 0.21 0  0.3535460261749672 0.21 0  0.3610143284120516 0.21 0  0.3684826306491596 0.21 0  0.3759509328862226 0.21 0  0.383419235123329 0.21 0  0.3908875373604028 0.21 0  0.3983558395975142 0.21 0  0.4058241418345938 0.21 0  0.4132924440716992 0.21 0  0.4207607463087888 0.21 0  0.4282290485459029 0.21 0  0.4356973507830418 0.21 0  0.4431656530201649 0.21 0  0.4506339552573136 0.21 0  0.4581022574944306 0.21 0  0.4655705597315852 0.21 0  0.4730388619686996 0.21 0  0.480507164205851 0.21 0  0.4879754664429498 0.21 0  0.4954437686800938 0.21 0  0.502912070917267 0.21 0  0.5103803731544119 0.21 0  0.5178486753915261 0.21 0  0.5253169776286404 0.21 0  0.5327852798657868 0.21 0  0.5402535821029386 0.21 0  0.54772188434007 0.21 0  0.5551901865771842 0.21 0  0.5626584888143201 0.21 0  0.5701267910514778 0.21 0  0.5775950932886138 0.21 0  0.5850633955257281 0.21 0  0.5925316977628483 0.21 0  0.6 0.2050000000000054 0  0.6 0.1950000000000217 0  0.5925316977628897 0.19 0  0.5850633955257988 0.19 0  0.5775950932887378 0.19 0  0.5701267910515998 0.19 0  0.5626584888145268 0.19 0  0.5551901865773963 0.19 0  0.547721884340339 0.19 0  0.5402535821032429 0.19 0  0.5327852798661811 0.19 0  0.5253169776290537 0.19 0  0.5178486753919799 0.19 0  0.5103803731549078 0.19 0  0.502912070917822 0.19 0  0.4954437686807294 0.19 0  0.4879754664436223 0.19 0  0.4805071642065402 0.19 0  0.4730388619694271 0.19 0  0.4655705597323621 0.19 0  0.4581022574952563 0.19 0  0.4506339552581777 0.19 0  0.4431656530210671 0.19 0  0.4356973507839815 0.19 0  0.4282290485468779 0.19 0  0.4207607463097617 0.19 0  0.4132924440726327 0.19 0  0.4058241418354857 0.19 0  0.3983558395983636 0.19 0  0.3908875373612097 0.19 0  0.3834192351240934 0.19 0  0.3759509328869369 0.19 0  0.3684826306498175 0.19 0  0.361014328412667 0.19 0  0.3535460261755617 0.19 0  0.3460777239384295 0.19 0  0.3386094217012945 0.19 0  0.3311411194641595 0.19 0  0.3236728172270245 0.19 0  0.3162045149898895 0.19 0  0.3087362127527544 0.19 0  0.3012679105156187 0.19 0  0.2937996082784807 0.19 0  0.2863313060413428 0.19 0  0.2788630038042048 0.19 0  0.2713947015670686 0.19 0  0.2639263993299336 0.19 0  0.2564580970927985 0.19 0  0.2607803159922026 0.2000727136295815 0  0.5887803774232762 0.2001272386983733 0  0.5745072403740523 0.2002044435018727 0  0.5511891430099709 0.2001122610077113 0  0.2751288526855082 0.20000000000002 0  0.5365194309847112 0.1999999999999436 0  0.2894621222999649 0.1998691686390484 0  0.5215828265105155 0.1999999999999228 0  0.3127789816668748 0.1998657885438805 0  0.3274069683451451 0.2000000000000796 0  0.5066462220363641 0.199999999999908 0  0.3650630746574081 0.199866017807523 0  0.476773013087985 0.1999999999998713 0  0.3417402379596385 0.1998691686391011 0  0.3796850840047755 0.200000000000134 0  0.4618364086138087 0.1999999999998546 0  0.4917096175621762 0.1999999999998808 0  0.3946216884789568 0.2000000000001512 0  0.446899804139621 0.1999999999998389 0  0.4089549580935208 0.1998691686391595 0  0.4322718174608562 0.200127451265745 0  0.4201487168029707 0.1999966199048527 0  0.3528922713220932 0.2000185703532356 0  0.5633122436674589 0.1999814296467508 0  0.3006558810093873 0.1999966199048318 0  0.5815926498168407 0.1966545283159175 0  0.2677053789419034 0.1964246479135325 0  0.5290511287476175 0.1970915826863981 0  0.5439877332217911 0.197091582686394 0  0.2825131256993216 0.2035478995978015 0  0.3199386661080599 0.202908417313604 0  0.4842413153250809 0.1970915826863873 0  0.5141145242734466 0.1970915826863843 0  0.3722167817676917 0.2029084173136195 0  0.4693047108508938 0.1970915826863783 0  0.3348752705822316 0.202908417313609 0  0.3871533862418661 0.2029084173136212 0  0.4543681063767183 0.1970915826863795 0  0.4991779197992749 0.1970915826863902 0  0.4020059614928624 0.203547899597858 0  0.4394315019025246 0.1970915826863714 0  0.2550657455369551 0.2034088125358657 0  0.2548908499171161 0.1966940311614271 0  0.5946539510196798 0.2024302972968126 0  0.267698176732111 0.2039977513680092 0  0.4261685417851465 0.196409292431739 0  0.3590076176283495 0.196411355804271 0  0.5571672426447437 0.2036011176410121 0  0.3066757059912147 0.1964092924317024 0  0.594380730180568 0.1966558399668133 0  0.4842413153245942 0.2040749161535287 0  0.4693047108503577 0.2040749161535231 0  0.3871533862424271 0.1959250838464788 0  0.372246743208829 0.1959123236376545 0  0.5141145242731028 0.2040749161535395 0  0.4543681063761134 0.2040749161535186 0  0.4019979587101454 0.1959834479682427 0  0.4394608940728603 0.2040870543693135 0  0.5439623148931173 0.2040856076781014 0  0.5290511287473298 0.2040749161535501 0  0.4991779197988497 0.2040749161535382 0  0.3347912413592433 0.1959225448935183 0  0.3199680582793816 0.1959123018030061 0  0.2825051229162361 0.1959834479681729 0  0.3590471196690275 0.2036304442587945 0  0.5571594006495384 0.1963685282145804 0  0.3067669986803285 0.203627750582736 0  0.4262598344738712 0.2036568242185335 0  0.5814408164431408 0.2041285596160068 0  0.5688286748170428 0.1961819304477386 0  0.4145905603063645 0.2038180695522843 0  0.3473758401724931 0.2038180695522752 0  0.2950977245128307 0.2038180695522663 0  0.5688286748170693 0.203818069552238 0  0.2950977245127906 0.1961819304477774 0  0.3473758401723931 0.1961819304478349 0  0.4145905603061963 0.1961819304479011 0  0.2601812407614425 0.2056861609747042
[...]
<PointData  Vectors="f_46-0"> 
<DataArray  type="Float64"  Name="f_46-0"  NumberOfComponents="3" format="ascii">0.0000000000000000e+00 0.0000000000000000e+00 0.0000000000000000e+00  0.0000000000000000e+00 0.0000000000000000e+00 0.0000000000000000e+00  0.0000000000000000e+00 0.0000000000000000e+00 0.0000000000000000e+00  0.0000000000000000e+00 0.0000000000000000e+00 0.0000000000000000e+00  5.7541320798778855e-05 -4.8301819737746061e-04 0.0000000000000000e+00  9.4772364383972966e-05 -4.7444405818993852e-04 0.0000000000000000e+00  0.0000000000000000e+00 0.0000000000000000e+00 0.0000000000000000e+00  0.0000000000000000e+00 0.0000000000000000e+00 0.0000000000000000e+00  0.0000000000000000e+00 0.0000000000000000e+00 0.0000000000000000e+00  0.0000000000000000e+00 0.0000000000000000e+00 0.0000000000000000e+00  7.6384673281678571e-05 -4.7872611045269919e-04 0.0000000000000000e+00  7.7720606447992183e-02 0.0000000000000000e+00 0.0000000000000000e+00  1.4348419651937974e-01 0.0000000000000000e+00 0.0000000000000000e+00  1.9729077021414718e-01 0.0000000000000000e+00 0.0000000000000000e+00  2.3914032753235676e-01 0.0000000000000000e+00 0.0000000000000000e+00  2.6903286847400321e-01 0.0000000000000000e+00 0.0000000000000000e+00  2.8696839303908456e-01 0.0000000000000000e+00 0.0000000000000000e+00  2.9294690122758293e-01 0.0000000000000000e+00 0.0000000000000000e+00  2.8696839303944710e-01 0.0000000000000000e+00 0.0000000000000000e+00  2.6903286847462604e-01 0.0000000000000000e+00 0.0000000000000000e+00  2.3914032753312811e-01 0.0000000000000000e+00 0.0000000000000000e+00  1.9729077021487992e-01 0.0000000000000000e+00 0.0000000000000000e+00  1.4348419652000505e-01 0.0000000000000000e+00 0.0000000000000000e+00  7.7720606448344526e-02 0.0000000000000000e+00 0.0000000000000000e+00  0.0000000000000000e+00 0.0000000000000000e+00 0.0000000000000000e+00  0.0000000000000000e+00 0.0000000000000000e+00 0.0000000000000000e+00  0.0000000000000000e+00 0.0000000000000000e+00 0.0000000000000000e+00  0.0000000000000000e+00 0.0000000000000000e+00 0.0000000000000000e+00  0.0000000000000000e+00 0.0000000000000000e+00 0.0000000000000000e+00  0.0000000000000000e+00 0.0000000000000000e+00 0.0000000000000000e+00  0.0000000000000000e+00 0.0000000000000000e+00 0.0000000000000000e+00  0.0000000000000000e+00 0.0000000000000000e+00 0.0000000000000000e+00  0.0000000000000000e+00 0.0000000000000000e+00 0.0000000000000000e+00  0.0000000000000000e+00 0.0000000000000000e+00 0.0000000000000000e+00  0.0000000000000000e+00 0.0000000000000000e+00 0.0000000000000000e+00  0.0000000000000000e+00 0.0000000000000000e+00 0.0000000000000000e+00  0.0000000000000000e+00 0.0000000000000000e+00 0.0000000000000000e+00  0.0000000000000000e+00 0.0000000000000000e+00 0.0000000000000000e+00  0.0000000000000000e+00 0.0000000000000000e+00 0.0000000000000000e+00  0.0000000000000000e+00 0.0000000000000000e+00 0.0000000000000000e+00  0.0000000000000000e+00 0.0000000000000000e+00 0.0000000000000000e+00  0.0000000000000000e+00 0.0000000000000000e+00 0.0000000000000000e+00  0.0000000000000000e+00 0.0000000000000000e+00 0.0000000000000000e+00  0.0000000000000000e+00 0.0000000000000000e+00 0.0000000000000000e+00  0.0000000000000000e+00 0.0000000000000000e+00 0.0000000000000000e+00  0.0000000000000000e+00 0.0000000000000000e+00 0.0000000000000000e+00  0.0000000000000000e+00 0.0000000000000000e+00 0.0000000000000000e+00  0.0000000000000000e+00 0.0000000000000000e+00 0.0000000000000000e+00  0.0000000000000000e+00 0.0000000000000000e+00 0.0000000000000000e+00  0.0000000000000000e+00 0.0000000000000000e+00 0.0000000000000000e+00  0.0000000000000000e+00 0.0000000000000000e+00 0.0000000000000000e+00  0.0000000000000000e+00 0.0000000000000000e+00 0.0000000000000000e+00  0.0000000000000000e+00 0.0000000000000000e+00 0.0000000000000000e+00  0.0000000000000000e+00 0.0000000000000000e+00 0.0000000000000000e+00  0.0000000000000000e+00 0.0000000000000000e+00 0.0000000000000000e+00  0.0000000000000000e+00 0.0000000000000000e+00 0.0000000000000000e+00  0.0000000000000000e+00 0.0000000000000000e+00 0.0000000000000000e+00  0.0000000000000000e+00 0.0000000000000000e+00 0.0000000000000000e+00  0.0000000000000000e+00 0.0000000000000000e+00 0.0000000000000000e+00  0.0000000000000000e+00 0.0000000000000000e+00 0.0000000000000000e+00  0.0000000000000000e+00 0.0000000000000000e+00 0.0000000000000000e+00  0.0000000000000000e+00 0.0000000000000000e+00 0.0000000000000000e+00  2.7148539678272299e-01 1.4972275866916367e-02 0.0000000000000000e+00  2.2805822946232762e-01 1.5085374605403358e-03 0.0000000000000000e+00  2.7771314360617394e-01 -2.5634969329610780e-02 0.0000000000000000e+00  0.0000000000000000e+00 0.0000000000000000e+00 0.0000000000000000e+00  0.0000000000000000e+00 0.0000000000000000e+00 0.0000000000000000e+00  0.0000000000000000e+00 0.0000000000000000e+00 0.0000000000000000e+00  0.0000000000000000e+00 0.0000000000000000e+00 0.0000000000000000e+00  0.0000000000000000e+00 0.0000000000000000e+00 0.0000000000000000e+00  0.0000000000000000e+00 0.0000000000000000e+00 0.0000000000000000e+00  0.0000000000000000e+00 0.0000000000000000e+00 0.0000000000000000e+00  0.0000000000000000e+00 0.0000000000000000e+00 0.0000000000000000e+00  0.0000000000000000e+00 0.0000000000000000e+00 0.0000000000000000e+00  0.0000000000000000e+00 0.0000000000000000e+00 0.0000000000000000e+00  0.0000000000000000e+00 0.0000000000000000e+00 0.0000000000000000e+00  0.0000000000000000e+00 0.0000000000000000e+00 0.0000000000000000e+00  0.0000000000000000e+00 0.0000000000000000e+00 0.0000000000000000e+00  0.0000000000000000e+00 0.0000000000000000e+00 0.0000000000000000e+00  0.0000000000000000e+00 0.0000000000000000e+00 0.0000000000000000e+00  0.0000000000000000e+00 0.0000000000000000e+00 0.0000000000000000e+00  0.0000000000000000e+00 0.0000000000000000e+00 0.0000000000000000e+00  0.0000000000000000e+00 0.0000000000000000e+00 0.0000000000000000e+00  0.0000000000000000e+00 0.0000000000000000e+00 0.0000000000000000e+00  0.0000000000000000e+00 0.0000000000000000e+00 0.0000000000000000e+00  0.0000000000000000e+00 0.0000000000000000e+00 0.0000000000000000e+00  0.0000000000000000e+00 0.0000000000000000e+00 0.0000000000000000e+00  0.0000000000000000e+00 0.0000000000000000e+00 0.0000000000000000e+00  0.0000000000000000e+00 0.0000000000000000e+00 0.0000000000000000e+00  0.0000000000000000e+00 0.0000000000000000e+00 0.0000000000000000e+00  0.0000000000000000e+00 0.0000000000000000e+00 0.0000000000000000e+00  0.0000000000000000e+00 0.0000000000000000e+00 0.0000000000000000e+00  0.0000000000000000e+00 0.0000000000000000e+00 0.0000000000000000e+00  0.0000000000000000e+00 0.0000000000000000e+00 0.0000000000000000e+00  0.0000000000000000e+00 0.0000000000000000e+00 0.0000000000000000e+00  0.0000000000000000e+00 0.0000000000000000e+00 0.0000000000000000e+00  0.0000000000000000e+00 0.0000000000000000e+00 0.0000000000000000e+00  0.0000000000000000e+00 0.0000000000000000e+00 0.0000000000000000e+00  0.0000000000000000e+00 0.0000000000000000e+00 0.0000000000000000e+00  0.0000000000000000e+00 0.0000000000000000e+00 0.0000000000000000e+00  0.0000000000000000e+00 0.0000000000000000e+00 0.0000000000000000e+00  0.0000000000000000e+00 0.0000000000000000e+00 0.0000000000000000e+00  0.0000000000000000e+00 0.0000000000000000e+00 0.0000000000000000e+00  0.0000000000000000e+00 0.0000000000000000e+00 0.0000000000000000e+00  0.0000000000000000e+00 0.0000000000000000e+00 0.0000000000000000e+00  5.7910255412042346e-16 0.0000000000000000e+00 0.0000000000000000e+00  0.0000000000000000e+00 0.0000000000000000e+00 0.0000000000000000e+00  0.0000000000000000e+00 0.0000000000000000e+00 0.0000000000000000e+00  0.0000000000000000e+00 0.0000000000000000e+00 0.0000000000000000e+00  0.0000000000000000e+00 0.0000000000000000e+00 0.0000000000000000e+00  1.6136595124761534e-13 0.0000000000000000e+00 0.0000000000000000e+00  0.0000000000000000e+00 0.0000000000000000e+00 0.0000000000000000e+00  0.0000000000000000e+00 0.0000000000000000e+00 0.0000000000000000e+00  0.0000000000000000e+00 0.0000000000000000e+00 0.0000000000000000e+00  0.0000000000000000e+00 0.0000000000000000e+00 0.0000000000000000e+00  0.0000000000000000e+00 0.0000000000000000e+00 0.0000000000000000e+00  0.0000000000000000e+00 0.0000000000000000e+00 0.0000000000000000e+00  0.0000000000000000e+00 0.0000000000000000e+00 0.0000000000000000e+00  0.0000000000000000e+00 0.0000000000000000e+00 0.0000000000000000e+00  0.0000000000000000e+00 0.0000000000000000e+00 0.0000000000000000e+00  0.0000000000000000e+00 0.0000000000000000e+00 0.0000000000000000e+00  0.0000000000000000e+00 0.0000000000000000e+00 0.0000000000000000e+00  0.0000000000000000e+00 0.0000000000000000e+00 0.0000000000000000e+00  0.0000000000000000e+00 0.0000000000000000e+00 0.0000000000000000e+00  0.0000000000000000e+00 0.0000000000000000e+00 0.0000000000000000e+00  0.0000000000000000e+00 0.0000000000000000e+00 0.0000000000000000e+00  0.0000000000000000e+00 0.0000000000000000e+00 0.0000000000000000e+00  0.0000000000000000e+00 0.0000000000000000e+00 0.0000000000000000e+00  0.0000000000000000e+00 0.0000000000000000e+00 0.0000000000000000e+00  0.0000000000000000e+00 0.0000000000000000e+00 0.0000000000000000e+00  0.0000000000000000e+00 0.0000000000000000e+00 0.0000000000000000e+00  0.0000000000000000e+00 0.0000000000000000e+00 0.0000000000000000e+00  0.0000000000000000e+00 0.0000000000000000e+00 0.0000000000000000e+00  0.0000000000000000e+00 0.0000000000000000e+00 0.0000000000000000e+00  0.0000000000000000e+00 0.0000000000000000e+00 0.0000000000000000e+00  0.0000000000000000e+00 0.0000000000000000e+00 0.0000000000000000e+00  0.0000000000000000e+00 0.0000000000000000e+00 0.0000000000000000e+00  0.0000000000000000e+00 0.0000000000000000e+00 0.0000000000000000e+00  0.0000000000000000e+00 0.0000000000000000e+00 0.0000000000000000e+00  0.0000000000000000e+00 0.0000000000000000e+00 0.0000000000000000e+00  0.0000000000000000e+00 0.0000000000000000e+00 0.0000000000000000e+00  0.0000000000000000e+00 0.0000000000000000e+00 0.0000000000000000e+00  0.0000000000000000e+00 0.0000000000000000e+00 0.0000000000000000e+00  1.7404268344895830e-06 6.6000023667422090e-06 0.0000000000000000e+00  3.4587455812963740e-06 6.2570598943821586e-06 0.0000000000000000e+00  4.7811323159332908e-06 4.8210918520865794e-06 0.0000000000000000e+00  6.0811236559966444e-06 2.4458245038326889e-06 0.0000000000000000e+00  7.2499618840038492e-06 -6.0310944780764196e-07 0.0000000000000000e+00  8.6878695499238392e-06 -4.2821525040124251e-06 0.0000000000000000e+00  1.0021907001498073e-05 -8.5166974507785825e-06 0.0000000000000000e+00  1.1475515545181703e-05 -1.3480938558934161e-05 0.0000000000000000e+00  1.3151095587401960e-05 -1.8996637789491660e-05 0.0000000000000000e+00  1.4708948733291324e-05 -2.5140083758033603e-05 0.0000000000000000e+00  1.6540817401652746e-05 -3.1835648257923750e-05 0.0000000000000000e+00  1.8222488248561152e-05 -3.9138270933355758e-05 0.0000000000000000e+00  2.0135220408604345e-05 -4.6966419514663917e-05 0.0000000000000000e+00  2.1920681287906969e-05 -5.5241679365766492e-05 0.0000000000000000e+00  2.3767747935139629e-05 -6.4093920503139882e-05 0.0000000000000000e+00  2.5749561030807196e-05 -7.3358976385657802e-05 0.0000000000000000e+00  2.7610581134736075e-05 -8.3098706134106181e-05 0.0000000000000000e+00  2.9639143094400856e-05 -9.3243262592073277e-05 0.0000000000000000e+00  3.1536395347893018e-05 -1.0381469303337784e-04 0.0000000000000000e+00  3.3568327175079056e-05 -1.1472511395753565e-04 0.0000000000000000e+00  3.5518419722894767e-05 -1.2602168100521937e-04 0.0000000000000000e+00  3.7565017589594823e-05 -1.3764298164774323e-04 0.0000000000000000e+00  3.9531654847249016e-05 -1.4951011966526280e-04 0.0000000000000000e+00  4.1530456409859373e-05 -1.6170499767543013e-04 0.0000000000000000e+00  4.3590316451410467e-05 -1.7409513819204581e-04 0.0000000000000000e+00  4.5624704000481414e-05 -1.8675590709918798e-04 0.0000000000000000e+00  4.7697527102934902e-05 -1.9959045946485958e-04 0.0000000000000000e+00  4.9766170229538952e-05 -2.1262640293513049e-04 0.0000000000000000e+00  5.1871445325013490e-05 -2.2580623591590565e-04 0.0000000000000000e+00  5.3980742055801349e-05 -2.3913991355186719e-04 0.0000000000000000e+00  5.6124520975632426e-05 -2.5258341614581298e-04 0.0000000000000000e+00  5.8283517168221717e-05 -2.6614697673807007e-04 0.0000000000000000e+00  6.0472759888469836e-05 -2.7978263747651549e-04 0.0000000000000000e+00  6.2687109428656001e-05 -2.9351819531601601e-04 0.0000000000000000e+00  6.4941792342823284e-05 -3.0728975384459203e-04 0.0000000000000000e+00  6.7220186617719118e-05 -3.2113426622261561e-04 0.0000000000000000e+00  6.9535810390960654e-05 -3.3499935852455173e-04 0.0000000000000000e+00  7.1882991441757672e-05 -3.4891810989175161e-04 0.0000000000000000e+00  7.4272817575144531e-05 -3.6284084004462117e-04 0.0000000000000000e+00  7.6702173713580099e-05 -3.7680064977012925e-04 0.0000000000000000e+00  7.9179385054414415e-05 -3.9076237498130497e-04 0.0000000000000000e+00  8.1686381551590727e-05 -4.0473905124974050e-04 0.0000000000000000e+00  8.4251969174358989e-05 -4.1871702377229889e-04 0.0000000000000000e+00  8.6843646614462246e-05 -4.3270043762886777e-04 0.0000000000000000e+00  8.9486281655564326e-05 -4.4669862071914930e-04 0.0000000000000000e+00  9.2145279546881282e-05 -4.6066090920364889e-04 0.0000000000000000e+00  8.5662258583859668e-05 -4.7658412292103186e-04 0.0000000000000000e+00  6.7037360506816675e-05 -4.8086720003402049e-04 0.0000000000000000e+00  5.4910239157685905e-05 -4.6898205773681761e-04 0.0000000000000000e+00  5.2244751970251437e-05 -4.5513938359697642e-04 0.0000000000000000e+00  4.9601666786847838e-05 -4.4131869171974540e-04 0.0000000000000000e+00  4.7016105573425895e-05 -4.2748502004667202e-04 0.0000000000000000e+00  4.4461413434393959e-05 -4.1365174355851512e-04 0.0000000000000000e+00  4.1976135371377295e-05 -3.9982304730435899e-04 0.0000000000000000e+00  3.9535285944533066e-05 -3.8599618297868927e-04 0.0000000000000000e+00  3.7150236498696361e-05 -3.7219242087374246e-04 0.0000000000000000e+00  3.4826735252825808e-05 -3.5838552814693978e-04 0.0000000000000000e+00  3.2551001271748678e-05 -3.4462870903348674e-04 0.0000000000000000e+00  3.0346263510950653e-05 -3.3087848557792227e-04 0.0000000000000000e+00  2.8187393082194178e-05 -3.1719461962364094e-04 0.0000000000000000e+00  2.6109155305383422e-05 -3.0353446824287280e-04 0.0000000000000000e+00  2.4069953096473386e-05 -2.8996249353844872e-04 0.0000000000000000e+00  2.2122094407795511e-05 -2.7643840445810638e-04 0.0000000000000000e+00  2.0208335633594062e-05 -2.6303153547810884e-04 0.0000000000000000e+00  1.8401014003461387e-05 -2.4970247298189500e-04 0.0000000000000000e+00  1.6619816247369389e-05 -2.3652382168030635e-04 0.0000000000000000e+00  1.4959796195325023e-05 -2.2345488097846929e-04 0.0000000000000000e+00  1.3313398374908893e-05 -2.1057326814720835e-04 0.0000000000000000e+00  1.1805827984792184e-05 -1.9784436574595135e-04 0.0000000000000000e+00  1.0300993505103782e-05 -1.8534718484212789e-04 0.0000000000000000e+00  8.9529061296798430e-06 -1.7306334062399070e-04 0.0000000000000000e+00  7.6030135692553562e-06 -1.6101090816608650e-04 0.0000000000000000e+00  6.3381033435294399e-06 -1.4927666481632065e-04 0.0000000000000000e+00  5.2005877391513761e-06 -1.3777195119436724e-04 0.0000000000000000e+00  4.0967503727587436e-06 -1.2664838761982693e-04 0.0000000000000000e+00  3.1127171206173537e-06 -1.1582409949397807e-04 0.0000000000000000e+00  2.1691285053029507e-06 -1.0543165656611726e-04 0.0000000000000000e+00  1.3477823336536009e-06 -9.5394903282335040e-05 0.0000000000000000e+00  5.6912951423398512e-07 -8.5821700253140077e-05 0.0000000000000000e+00  -2.6595040284715170e-08 -7.6724295350506753e-05 0.0000000000000000e+00  -6.6758825272509262e-07 -6.8047432479877669e-05 0.0000000000000000e+00  -1.2090257385457230e-06 -5.9951720764553973e-05 0.0000000000000000e+00  -1.5628672895771637e-06 -5.2280790396930171e-05 0.0000000000000000e+00  -1.8770331336557401e-06 -4.5244762643529501e-05 0.0000000000000000e+00  -2.0314362217498157e-06 -3.8720183931716194e-05 0.0000000000000000e+00  -2.1291621584367362e-06 -3.2829870413655845e-05 0.0000000000000000e+00  -1.9897524040159155e-06 -2.7583504599400309e-05 0.0000000000000000e+00  -1.9017222188060991e-06 -2.2873698968463081e-05 0.0000000000000000e+00  -1.6878653957787237e-06 -1.8902078281382471e-05 0.0000000000000000e+00  -1.2393107658887105e-06 -1.5441637635210776e-05 0.0000000000000000e+00  -7.7759771067383549e-07 -1.2758806716625700e-05 0.0000000000000000e+00  -2.0509404914063483e-07 -1.0700664113705553e-05 0.0000000000000000e+00  1.2349679063544628e-07 -9.0606456255855335e-06 0.0000000000000000e+00  2.4704002305463521e-07 -7.6293169184958384e-06 0.0000000000000000e+00  2.8423016179933949e-06 -4.5883149978981733e-07 0.0000000000000000e+00  7.2501060317169285e-05 -4.5778808396500394e-04 0.0000000000000000e+00  6.7529364364935789e-05 -4.3116959451728346e-04 0.0000000000000000e+00  5.9465148123319776e-05 -3.8778748104025581e-04 0.0000000000000000e+00  2.5497144157171623e-06 -3.5328340285815521e-06 0.0000000000000000e+00  5.4537135770570327e-05 -3.6056632658982608e-04 0.0000000000000000e+00  3.1931641359968102e-06 -9.0997028318480563e-06 0.0000000000000000e+00  4.9916158777997106e-05 -3.3288007855602369e-04 0.0000000000000000e+00  5.0899674515541444e-06 -2.3058790146207685e-05 0.0000000000000000e+00  6.8806954440365698e-06 -3.4793889761251334e-05 0.0000000000000000e+00  4.5484559108103369e-05 -3.0533666412742202e-04 0.0000000000000000e+00  1.2404247231898381e-05 -7.5104951068621594e-05 0.0000000000000000e+00  3.7181991939611066e-05 -2.5102379669994138e-04 0.0000000000000000e+00  8.6992279535587721e-06 -4.8616443554791627e-05 0.0000000000000000e+00  1.5204920995726668e-05 -9.3972070860938429e-05 0.0000000000000000e+00  3.3306989679887693e-05 -2.2448324321234139e-04 0.0000000000000000e+00  4.1240270033493909e-05 -2.7801726515342627e-04 0.0000000000000000e+00  1.8087772791198212e-05 -1.1497005522979680e-04 0.0000000000000000e+00  2.9611816843100286e-05 -1.9854059348493975e-04 0.0000000000000000e+00  2.0824477927293880e-05 -1.3656797640703995e-04 0.0000000000000000e+00  2.6373864584535350e-05 -1.7380306877619293e-04 0.0000000000000000e+00  2.3446285050725464e-05 -1.5414962272989848e-04 0.0000000000000000e+00  1.0583235517376726e-05 -6.0654669043917346e-05 0.0000000000000000e+00  6.3279139923641469e-05 -4.1041694976039564e-04 0.0000000000000000e+00  4.0916791107792389e-06 -1.5032907980452365e-05 0.0000000000000000e+00  6.3430131899734103e-05 -4.4587254919204567e-04 0.0000000000000000e+00  1.7233296342156692e-06 -4.6415349713198823e-06 0.0000000000000000e+00  4.6822612206811687e-05 -3.4810090533510593e-04 0.0000000000000000e+00  5.1519956648949821e-05 -3.7579404721993921e-04 0.0000000000000000e+00  4.2174319953416437e-06 -3.4578990227711524e-06 0.0000000000000000e+00  8.3151714602017131e-06 -2.6525604796473659e-05 0.0000000000000000e+00  3.3951756158265059e-05 -2.6598948753476755e-04 0.0000000000000000e+00  4.2327135267752392e-05 -3.2051922672354604e-04 0.0000000000000000e+00  1.7582142000366654e-05 -8.2319375879713716e-05 0.0000000000000000e+00  3.0076138215232063e-05 -2.3924824137107976e-04 0.0000000000000000e+00  1.0628902251820677e-05 -3.9812342673186509e-05 0.0000000000000000e+00  2.0683875373932119e-05 -1.0255194642221495e-04 0.0000000000000000e+00  2.6411532776236070e-05 -2.1302881234688405e-04 0.0000000000000000e+00  3.8036583917157688e-05 -2.9311861846400232e-04 0.0000000000000000e+00  2.4873853125873549e-05 -1.2383792799162534e-04 0.0000000000000000e+00  2.2953163084449305e-05 -1.8748805573986737e-04 0.0000000000000000e+00  2.3394984782605465e-06 1.6379330108575490e-06 0.0000000000000000e+00  2.0309662279349500e-06 -1.5936248375757013e-06 0.0000000000000000e+00  7.8946910140861290e-05 -4.6775972140723223e-04 0.0000000000000000e+00  3.2888778468716048e-06 1.4850236183161346e-06 0.0000000000000000e+00