<?xml version="1.0"?>
<VTKFile type="UnstructuredGrid"  version="0.1"  >
<UnstructuredGrid>
<Piece  NumberOfPoints="1419" NumberOfCells="2698">
<Points>
<DataArray  type="Float64"  NumberOfComponents="3"  format="ascii">0 0 0  0 0.41 0  2.5 0 0  2.5 0.41 0  0.6 0.19 0  0.6 0.21 0  0.25 0.2 0  0.15 0.2 0  0.2489897948556636 0.21 0  0.2489897948556636 0.19 0  0.6 0.2 0  0 0.3807142857143437 0  0 0.3514285714286952 0  0 0.3221428571430699 0  0 0.29285714285744 0  0 0.2635714285718054 0  0 0.2342857142861561 0  0 0.2050000000005308 0  0 0.175714285714732 0  0 0.1464285714289574 0  0 0.1171428571431897 0  0 0.08785714285737878 0  0 0.05857142857161107 0  0 0.02928571428580012 0  0.03015443760436003 0 0  0.06140001986583606 0 0  0.09377624077125973 0 0  0.1273239957535082 0 0  0.1620856860351972 0 0  0.1981052433264291 0 0  0.235428184091502 0 0  0.2741016576309132 0 0  0.3141745521465447 0 0  0.3556974926295285 0 0  0.3987229542472677 0 0  0.4433053055141081 0 0  0.4895008759286886 0 0  0.5373680609405097 0 0  0.5869673343216626 0 0  0.6383613676634521 0 0  0.6916151138468254 0 0  0.7467958595648856 0 0  0.8039733463919316 0 0  0.8632198139502143 0 0  0.9246101326867038 0 0  0.9882218810934433 0 0  1.054135445558498 0 0  1.122434100542598 0 0  1.193204177141305 0 0  1.266535089879536 0 0  1.342519516046404 0 0  1.421253448503939 0 0  1.502836389106271 0 0  1.587371439758838 0 0  1.674965418777374 0 0  1.765729001825544 0 0  1.859776908880082 0 0  1.957227977487062 0 0  2.058205329869943 0 0  2.162836591189951 0 0  2.271253957290865 0 0  2.383594446803425 0 0  2.5 0.1024999999997612 0  2.5 0.2049999999994743 0  2.5 0.3074999999997183 0  2.383594446803656 0.41 0  2.271253957291315 0.41 0  2.162836591190598 0.41 0  2.058205329870775 0.41 0  1.957227977488067 0.41 0  1.859776908881246 0.41 0  1.765729001826854 0.41 0  1.674965418778818 0.41 0  1.58737143976041 0.41 0  1.502836389107956 0.41 0  1.421253448505726 0.41 0  1.342519516048286 0.41 0  1.266535089881505 0.41 0  1.193204177143353 0.41 0  1.122434100544716 0.41 0  1.05413544556068 0.41 0  0.9882218810956305 0.41 0  0.9246101326886647 0.41 0  0.8632198139519631 0.41 0  0.8039733463934788 0.41 0  0.7467958595662458 0.41 0  0.6916151138480078 0.41 0  0.6383613676644679 0.41 0  0.5869673343225223 0.41 0  0.5373680609412221 0.41 0  0.4895008759292634 0.41 0  0.4433053055145528 0.41 0  0.3987229542475914 0.41 0  0.3556974926297398 0.41 0  0.3141745521466497 0.41 0  0.2741016576310038 0.41 0  0.2354281840915826 0.41 0  0.1981052433265003 0.41 0  0.1620856860352591 0.41 0  0.1273239957535623 0.41 0  0.09377624077128965 0.41 0  0.06140001986584975 0.41 0  0.03015443760436654 0.41 0  0.2497468076502589 0.2050254481002335 0  0.2497468076502614 0.1949745518997913 0  0.2469965252529372 0.1829317073451959 0  0.2439893735792749 0.1762316384219906 0  0.2400332147834255 0.1700443375285386 0  0.2352133972704371 0.1645032867342007 0  0.2296339016332438 0.1597280261969788 0  0.2234150974217223 0.1558215752574715 0  0.2166911463437691 0.1528682099456123 0  0.2096071079204251 0.1509316448471593 0  0.2023158100364996 0.1500536585536553 0  0.194974551899914 0.1502531923497262 0  0.1877417105387872 0.1515259415822739 0  0.1807733240461124 0.153844448527136 0  0.1742197252835808 0.15715869474974 0  0.1682222986673531 0.1613971801805478 0  0.162910430003803 0.1664684656256651 0  0.1583987151779087 0.1722631454351573 0  0.1547844879126891 0.178656207771761 0  0.1521457199348551 0.1855097315605723 0  0.1505393388476355 0.1926758619366523 0  0.1505393388476328 0.2073241380633295 0  0.1521457199348437 0.2144902684393899 0  0.1547844879126531 0.221343792228163 0  0.1583987151778488 0.2277368545647528 0  0.1629104300036858 0.2335315343742052 0  0.1682222986671726 0.2386028198193036 0  0.1742197252833576 0.2428413052501257 0  0.1807733240458683 0.2461555514727623 0  0.1877417105384929 0.2484740584176516 0  0.1949745518995776 0.2497468076502398 0  0.202315810036185 0.2499463414463592 0  0.2096071079201568 0.2490683551528932 0  0.2166911463435495 0.2471317900544655 0  0.2234150974215506 0.2441784247426195 0  0.2296339016331197 0.2402719738031125 0  0.2352133972703547 0.2354967132658811 0  0.2400332147833751 0.2299556624715287 0  0.2439893735792577 0.2237683615780412 0  0.246996525252926 0.2170682926548348 0  0.25645809709277 0.21 0  0.2639263993298655 0.21 0  0.271394701566961 0.21 0  0.2788630038040554 0.21 0  0.2863313060411479 0.21 0  0.2937996082782405 0.21 0  0.301267910515333 0.21 0  0.3087362127524279 0.21 0  0.3162045149895234 0.21 0  0.3236728172265972 0.21 0  0.3311411194636928 0.21 0  0.3386094217007701 0.21 0  0.3460777239378666 0.21 0  0.3535460261749672 0.21 0  0.3610143284120516 0.21 0  0.3684826306491596 0.21 0  0.3759509328862226 0.21 0  0.383419235123329 0.21 0  0.3908875373604028 0.21 0  0.3983558395975142 0.21 0  0.4058241418345938 0.21 0  0.4132924440716992 0.21 0  0.4207607463087888 0.21 0  0.4282290485459029 0.21 0  0.4356973507830418 0.21 0  0.4431656530201649 0.21 0  0.4506339552573136 0.21 0  0.4581022574944306 0.21 0  0.4655705597315852 0.21 0  0.4730388619686996 0.21 0  0.480507164205851 0.21 0  0.4879754664429498 0.21 0  0.4954437686800938 0.21 0  0.502912070917267 0.21 0  0.5103803731544119 0.21 0  0.5178486753915261 0.21 0  0.5253169776286404 0.21 0  0.5327852798657868 0.21 0  0.5402535821029386 0.21 0  0.54772188434007 0.21 0  0.5551901865771842 0.21 0  0.5626584888143201 0.21 0  0.5701267910514778 0.21 0  0.5775950932886138 0.21 0  0.5850633955257281 0.21 0  0.5925316977628483 0.21 0  0.6 0.2050000000000054 0  0.6 0.1950000000000217 0  0.5925316977628897 0.19 0  0.5850633955257988 0.19 0  0.5775950932887378 0.19 0  0.5701267910515998 0.19 0  0.5626584888145268 0.19 0  0.5551901865773963 0.19 0  0.547721884340339 0.19 0  0.5402535821032429 0.19 0  0.5327852798661811 0.19 0  0.5253169776290537 0.19 0  0.5178486753919799 0.19 0  0.5103803731549078 0.19 0  0.502912070917822 0.19 0  0.4954437686807294 0.19 0  0.4879754664436223 0.19 0  0.4805071642065402 0.19 0  0.4730388619694271 0.19 0  0.4655705597323621 0.19 0  0.4581022574952563 0.19 0  0.4506339552581777 0.19 0  0.4431656530210671 0.19 0  0.4356973507839815 0.19 0  0.4282290485468779 0.19 0  0.4207607463097617 0.19 0  0.4132924440726327 0.19 0  0.4058241418354857 0.19 0  0.3983558395983636 0.19 0  0.3908875373612097 0.19 0  0.3834192351240934 0.19 0  0.3759509328869369 0.19 0  0.3684826306498175 0.19 0  0.361014328412667 0.19 0  0.3535460261755617 0.19 0  0.3460777239384295 0.19 0  0.3386094217012945 0.19 0  0.3311411194641595 0.19 0  0.3236728172270245 0.19 0  0.3162045149898895 0.19 0  0.3087362127527544 0.19 0  0.3012679105156187 0.19 0  0.2937996082784807 0.19 0  0.2863313060413428 0.19 0  0.2788630038042048 0.19 0  0.2713947015670686 0.19 0  0.2639263993299336 0.19 0  0.2564580970927985 0.19 0  0.2607803159922026 0.2000727136295815 0  0.5887803774232762 0.2001272386983733 0  0.5745072403740523 0.2002044435018727 0  0.5511891430099709 0.2001122610077113 0  0.2751288526855082 0.20000000000002 0  0.5365194309847112 0.1999999999999436 0  0.2894621222999649 0.1998691686390484 0  0.5215828265105155 0.1999999999999228 0  0.3127789816668748 0.1998657885438805 0  0.3274069683451451 0.2000000000000796 0  0.5066462220363641 0.199999999999908 0  0.3650630746574081 0.199866017807523 0  0.476773013087985 0.1999999999998713 0  0.3417402379596385 0.1998691686391011 0  0.3796850840047755 0.200000000000134 0  0.4618364086138087 0.1999999999998546 0  0.4917096175621762 0.1999999999998808 0  0.3946216884789568 0.2000000000001512 0  0.446899804139621 0.1999999999998389 0  0.4089549580935208 0.1998691686391595 0  0.4322718174608562 0.200127451265745 0  0.4201487168029707 0.1999966199048527 0  0.3528922713220932 0.2000185703532356 0  0.5633122436674589 0.1999814296467508 0  0.3006558810093873 0.1999966199048318 0  0.5815926498168407 0.1966545283159175 0  0.2677053789419034 0.1964246479135325 0  0.5290511287476175 0.1970915826863981 0  0.5439877332217911 0.197091582686394 0  0.2825131256993216 0.2035478995978015 0  0.3199386661080599 0.202908417313604 0  0.4842413153250809 0.1970915826863873 0  0.5141145242734466 0.1970915826863843 0  0.3722167817676917 0.2029084173136195 0  0.4693047108508938 0.1970915826863783 0  0.3348752705822316 0.202908417313609 0  0.3871533862418661 0.2029084173136212 0  0.4543681063767183 0.1970915826863795 0  0.4991779197992749 0.1970915826863902 0  0.4020059614928624 0.203547899597858 0  0.4394315019025246 0.1970915826863714 0  0.2550657455369551 0.2034088125358657 0  0.2548908499171161 0.1966940311614271 0  0.5946539510196798 0.2024302972968126 0  0.267698176732111 0.2039977513680092 0  0.4261685417851465 0.196409292431739 0  0.3590076176283495 0.196411355804271 0  0.5571672426447437 0.2036011176410121 0  0.3066757059912147 0.1964092924317024 0  0.594380730180568 0.1966558399668133 0  0.4842413153245942 0.2040749161535287 0  0.4693047108503577 0.2040749161535231 0  0.3871533862424271 0.1959250838464788 0  0.372246743208829 0.1959123236376545 0  0.5141145242731028 0.2040749161535395 0  0.4543681063761134 0.2040749161535186 0  0.4019979587101454 0.1959834479682427 0  0.4394608940728603 0.2040870543693135 0  0.5439623148931173 0.2040856076781014 0  0.5290511287473298 0.2040749161535501 0  0.4991779197988497 0.2040749161535382 0  0.3347912413592433 0.1959225448935183 0  0.3199680582793816 0.1959123018030061 0  0.2825051229162361 0.1959834479681729 0  0.3590471196690275 0.2036304442587945 0  0.5571594006495384 0.1963685282145804 0  0.3067669986803285 0.203627750582736 0  0.4262598344738712 0.2036568242185335 0  0.5814408164431408 0.2041285596160068 0  0.5688286748170428 0.1961819304477386 0  0.4145905603063645 0.2038180695522843 0  0.3473758401724931 0.2038180695522752 0  0.2950977245128307 0.2038180695522663 0  0.5688286748170693 0.203818069552238 0  0.2950977245127906 0.1961819304477774 0  0.3473758401723931 0.1961819304478349 0  0.4145905603061963 0.1961819304479011 0  0.2601812407614425 0.2056861609747042
[...]
<PointData  Vectors="f_46-0"> 
<DataArray  type="Float64"  Name="f_46-0"  NumberOfComponents="3" format="ascii">0.0000000000000000e+00 0.0000000000000000e+00 0.0000000000000000e+00  0.0000000000000000e+00 0.0000000000000000e+00 0.0000000000000000e+00  0.0000000000000000e+00 0.0000000000000000e+00 0.0000000000000000e+00  0.0000000000000000e+00 0.0000000000000000e+00 0.0000000000000000e+00  -6.0362490454918719e-05 -5.4733540127366927e-04 0.0000000000000000e+00  -1.6509672504764903e-05 -5.6707713719599245e-04 0.0000000000000000e+00  0.0000000000000000e+00 0.0000000000000000e+00 0.0000000000000000e+00  0.0000000000000000e+00 0.0000000000000000e+00 0.0000000000000000e+00  0.0000000000000000e+00 0.0000000000000000e+00 0.0000000000000000e+00  0.0000000000000000e+00 0.0000000000000000e+00 0.0000000000000000e+00  -3.9902175399333314e-05 -5.5720060975994294e-04 0.0000000000000000e+00  8.3509739972787031e-02 0.0000000000000000e+00 0.0000000000000000e+00  1.5417182764207857e-01 0.0000000000000000e+00 0.0000000000000000e+00  2.1198626300785811e-01 0.0000000000000000e+00 0.0000000000000000e+00  2.5695304607019248e-01 0.0000000000000000e+00 0.0000000000000000e+00  2.8907217682907593e-01 0.0000000000000000e+00 0.0000000000000000e+00  3.0834365528450647e-01 0.0000000000000000e+00 0.0000000000000000e+00  3.1476748143646488e-01 0.0000000000000000e+00 0.0000000000000000e+00  3.0834365528489610e-01 0.0000000000000000e+00 0.0000000000000000e+00  2.8907217682974518e-01 0.0000000000000000e+00 0.0000000000000000e+00  2.5695304607102132e-01 0.0000000000000000e+00 0.0000000000000000e+00  2.1198626300864548e-01 0.0000000000000000e+00 0.0000000000000000e+00  1.5417182764275048e-01 0.0000000000000000e+00 0.0000000000000000e+00  8.3509739973165589e-02 0.0000000000000000e+00 0.0000000000000000e+00  0.0000000000000000e+00 0.0000000000000000e+00 0.0000000000000000e+00  0.0000000000000000e+00 0.0000000000000000e+00 0.0000000000000000e+00  0.0000000000000000e+00 0.0000000000000000e+00 0.0000000000000000e+00  0.0000000000000000e+00 0.0000000000000000e+00 0.0000000000000000e+00  0.0000000000000000e+00 0.0000000000000000e+00 0.0000000000000000e+00  0.0000000000000000e+00 0.0000000000000000e+00 0.0000000000000000e+00  0.0000000000000000e+00 0.0000000000000000e+00 0.0000000000000000e+00  0.0000000000000000e+00 0.0000000000000000e+00 0.0000000000000000e+00  0.0000000000000000e+00 0.0000000000000000e+00 0.0000000000000000e+00  0.0000000000000000e+00 0.0000000000000000e+00 0.0000000000000000e+00  0.0000000000000000e+00 0.0000000000000000e+00 0.0000000000000000e+00  0.0000000000000000e+00 0.0000000000000000e+00 0.0000000000000000e+00  0.0000000000000000e+00 0.0000000000000000e+00 0.0000000000000000e+00  0.0000000000000000e+00 0.0000000000000000e+00 0.0000000000000000e+00  0.0000000000000000e+00 0.0000000000000000e+00 0.0000000000000000e+00  0.0000000000000000e+00 0.0000000000000000e+00 0.0000000000000000e+00  0.0000000000000000e+00 0.0000000000000000e+00 0.0000000000000000e+00  0.0000000000000000e+00 0.0000000000000000e+00 0.0000000000000000e+00  0.0000000000000000e+00 0.0000000000000000e+00 0.0000000000000000e+00  0.0000000000000000e+00 0.0000000000000000e+00 0.0000000000000000e+00  0.0000000000000000e+00 0.0000000000000000e+00 0.0000000000000000e+00  0.0000000000000000e+00 0.0000000000000000e+00 0.0000000000000000e+00  0.0000000000000000e+00 0.0000000000000000e+00 0.0000000000000000e+00  0.0000000000000000e+00 0.0000000000000000e+00 0.0000000000000000e+00  0.0000000000000000e+00 0.0000000000000000e+00 0.0000000000000000e+00  0.0000000000000000e+00 0.0000000000000000e+00 0.0000000000000000e+00  0.0000000000000000e+00 0.0000000000000000e+00 0.0000000000000000e+00  0.0000000000000000e+00 0.0000000000000000e+00 0.0000000000000000e+00  0.0000000000000000e+00 0.0000000000000000e+00 0.0000000000000000e+00  0.0000000000000000e+00 0.0000000000000000e+00 0.0000000000000000e+00  0.0000000000000000e+00 0.0000000000000000e+00 0.0000000000000000e+00  0.0000000000000000e+00 0.0000000000000000e+00 0.0000000000000000e+00  0.0000000000000000e+00 0.0000000000000000e+00 0.0000000000000000e+00  0.0000000000000000e+00 0.0000000000000000e+00 0.0000000000000000e+00  0.0000000000000000e+00 0.0000000000000000e+00 0.0000000000000000e+00  0.0000000000000000e+00 0.0000000000000000e+00 0.0000000000000000e+00  0.0000000000000000e+00 0.0000000000000000e+00 0.0000000000000000e+00  0.0000000000000000e+00 0.0000000000000000e+00 0.0000000000000000e+00  3.0531782703047622e-01 3.7336137918621844e-02 0.0000000000000000e+00  2.2235758771138267e-01 2.4944503987571357e-04 0.0000000000000000e+00  3.0731016279895979e-01 -3.6499992117792576e-02 0.0000000000000000e+00  0.0000000000000000e+00 0.0000000000000000e+00 0.0000000000000000e+00  0.0000000000000000e+00 0.0000000000000000e+00 0.0000000000000000e+00  0.0000000000000000e+00 0.0000000000000000e+00 0.0000000000000000e+00  0.0000000000000000e+00 0.0000000000000000e+00 0.0000000000000000e+00  0.0000000000000000e+00 0.0000000000000000e+00 0.0000000000000000e+00  0.0000000000000000e+00 0.0000000000000000e+00 0.0000000000000000e+00  0.0000000000000000e+00 0.0000000000000000e+00 0.0000000000000000e+00  0.0000000000000000e+00 0.0000000000000000e+00 0.0000000000000000e+00  0.0000000000000000e+00 0.0000000000000000e+00 0.0000000000000000e+00  0.0000000000000000e+00 0.0000000000000000e+00 0.0000000000000000e+00  0.0000000000000000e+00 0.0000000000000000e+00 0.0000000000000000e+00  0.0000000000000000e+00 0.0000000000000000e+00 0.0000000000000000e+00  0.0000000000000000e+00 0.0000000000000000e+00 0.0000000000000000e+00  0.0000000000000000e+00 0.0000000000000000e+00 0.0000000000000000e+00  0.0000000000000000e+00 0.0000000000000000e+00 0.0000000000000000e+00  0.0000000000000000e+00 0.0000000000000000e+00 0.0000000000000000e+00  0.0000000000000000e+00 0.0000000000000000e+00 0.0000000000000000e+00  0.0000000000000000e+00 0.0000000000000000e+00 0.0000000000000000e+00  0.0000000000000000e+00 0.0000000000000000e+00 0.0000000000000000e+00  0.0000000000000000e+00 0.0000000000000000e+00 0.0000000000000000e+00  0.0000000000000000e+00 0.0000000000000000e+00 0.0000000000000000e+00  0.0000000000000000e+00 0.0000000000000000e+00 0.0000000000000000e+00  0.0000000000000000e+00 0.0000000000000000e+00 0.0000000000000000e+00  0.0000000000000000e+00 0.0000000000000000e+00 0.0000000000000000e+00  0.0000000000000000e+00 0.0000000000000000e+00 0.0000000000000000e+00  0.0000000000000000e+00 0.0000000000000000e+00 0.0000000000000000e+00  0.0000000000000000e+00 0.0000000000000000e+00 0.0000000000000000e+00  0.0000000000000000e+00 0.0000000000000000e+00 0.0000000000000000e+00  0.0000000000000000e+00 0.0000000000000000e+00 0.0000000000000000e+00  0.0000000000000000e+00 0.0000000000000000e+00 0.0000000000000000e+00  0.0000000000000000e+00 0.0000000000000000e+00 0.0000000000000000e+00  0.0000000000000000e+00 0.0000000000000000e+00 0.0000000000000000e+00  0.0000000000000000e+00 0.0000000000000000e+00 0.0000000000000000e+00  0.0000000000000000e+00 0.0000000000000000e+00 0.0000000000000000e+00  0.0000000000000000e+00 0.0000000000000000e+00 0.0000000000000000e+00  0.0000000000000000e+00 0.0000000000000000e+00 0.0000000000000000e+00  0.0000000000000000e+00 0.0000000000000000e+00 0.0000000000000000e+00  0.0000000000000000e+00 0.0000000000000000e+00 0.0000000000000000e+00  0.0000000000000000e+00 0.0000000000000000e+00 0.0000000000000000e+00  0.0000000000000000e+00 0.0000000000000000e+00 0.0000000000000000e+00  -4.6346623271435960e-11 0.0000000000000000e+00 0.0000000000000000e+00  0.0000000000000000e+00 0.0000000000000000e+00 0.0000000000000000e+00  0.0000000000000000e+00 0.0000000000000000e+00 0.0000000000000000e+00  0.0000000000000000e+00 0.0000000000000000e+00 0.0000000000000000e+00  0.0000000000000000e+00 0.0000000000000000e+00 0.0000000000000000e+00  0.0000000000000000e+00 0.0000000000000000e+00 0.0000000000000000e+00  0.0000000000000000e+00 0.0000000000000000e+00 0.0000000000000000e+00  0.0000000000000000e+00 0.0000000000000000e+00 0.0000000000000000e+00  0.0000000000000000e+00 0.0000000000000000e+00 0.0000000000000000e+00  0.0000000000000000e+00 0.0000000000000000e+00 0.0000000000000000e+00  0.0000000000000000e+00 0.0000000000000000e+00 0.0000000000000000e+00  0.0000000000000000e+00 0.0000000000000000e+00 0.0000000000000000e+00  0.0000000000000000e+00 0.0000000000000000e+00 0.0000000000000000e+00  0.0000000000000000e+00 0.0000000000000000e+00 0.0000000000000000e+00  0.0000000000000000e+00 0.0000000000000000e+00 0.0000000000000000e+00  0.0000000000000000e+00 0.0000000000000000e+00 0.0000000000000000e+00  0.0000000000000000e+00 0.0000000000000000e+00 0.0000000000000000e+00  0.0000000000000000e+00 0.0000000000000000e+00 0.0000000000000000e+00  0.0000000000000000e+00 0.0000000000000000e+00 0.0000000000000000e+00  0.0000000000000000e+00 0.0000000000000000e+00 0.0000000000000000e+00  0.0000000000000000e+00 0.0000000000000000e+00 0.0000000000000000e+00  0.0000000000000000e+00 0.0000000000000000e+00 0.0000000000000000e+00  0.0000000000000000e+00 0.0000000000000000e+00 0.0000000000000000e+00  0.0000000000000000e+00 0.0000000000000000e+00 0.0000000000000000e+00  0.0000000000000000e+00 0.0000000000000000e+00 0.0000000000000000e+00  0.0000000000000000e+00 0.0000000000000000e+00 0.0000000000000000e+00  0.0000000000000000e+00 0.0000000000000000e+00 0.0000000000000000e+00  0.0000000000000000e+00 0.0000000000000000e+00 0.0000000000000000e+00  0.0000000000000000e+00 0.0000000000000000e+00 0.0000000000000000e+00  0.0000000000000000e+00 0.0000000000000000e+00 0.0000000000000000e+00  0.0000000000000000e+00 0.0000000000000000e+00 0.0000000000000000e+00  0.0000000000000000e+00 0.0000000000000000e+00 0.0000000000000000e+00  0.0000000000000000e+00 0.0000000000000000e+00 0.0000000000000000e+00  0.0000000000000000e+00 0.0000000000000000e+00 0.0000000000000000e+00  0.0000000000000000e+00 0.0000000000000000e+00 0.0000000000000000e+00  0.0000000000000000e+00 0.0000000000000000e+00 0.0000000000000000e+00  0.0000000000000000e+00 0.0000000000000000e+00 0.0000000000000000e+00  0.0000000000000000e+00 0.0000000000000000e+00 0.0000000000000000e+00  2.0500193030758909e-06 -1.9449584711557468e-05 0.0000000000000000e+00  4.9016899652397035e-06 -2.2137793260796539e-05 0.0000000000000000e+00  8.6183660943246156e-06 -2.4604349920686614e-05 0.0000000000000000e+00  1.2876132232255348e-05 -2.7349599722082723e-05 0.0000000000000000e+00  1.7016143173742238e-05 -3.0826786946739895e-05 0.0000000000000000e+00  2.1111446360902451e-05 -3.5312558507002043e-05 0.0000000000000000e+00  2.4837425029037030e-05 -4.0408407243375649e-05 0.0000000000000000e+00  2.8309805466966755e-05 -4.6343967307777924e-05 0.0000000000000000e+00  3.1779016242066003e-05 -5.2946258870736050e-05 0.0000000000000000e+00  3.4760549226922371e-05 -6.0152775742509559e-05 0.0000000000000000e+00  3.7733028149135156e-05 -6.8129482629547924e-05 0.0000000000000000e+00  4.0239980731661645e-05 -7.6597786197179907e-05 0.0000000000000000e+00  4.2650423573561466e-05 -8.5720685484688488e-05 0.0000000000000000e+00  4.4713442020882045e-05 -9.5323541107281224e-05 0.0000000000000000e+00  4.6505553273837690e-05 -1.0547849888627024e-04 0.0000000000000000e+00  4.8228676919030249e-05 -1.1612089584976428e-04 0.0000000000000000e+00  4.9528117270312863e-05 -1.2710266046577016e-04 0.0000000000000000e+00  5.0726366209063361e-05 -1.3864968165985074e-04 0.0000000000000000e+00  5.1543930660775872e-05 -1.5042688437935255e-04 0.0000000000000000e+00  5.2249659237180952e-05 -1.6269768824231506e-04 0.0000000000000000e+00  5.2622136063668869e-05 -1.7516916194123072e-04 0.0000000000000000e+00  5.2800185014241973e-05 -1.8805109727706369e-04 0.0000000000000000e+00  5.2732049334366070e-05 -2.0117867888975378e-04 0.0000000000000000e+00  5.2406897007947581e-05 -2.1459020607757657e-04 0.0000000000000000e+00  5.1967155923687785e-05 -2.2827667757406792e-04 0.0000000000000000e+00  5.1210831832136293e-05 -2.4211825634005982e-04 0.0000000000000000e+00  5.0243503404974396e-05 -2.5633745270763498e-04 0.0000000000000000e+00  4.9035788136797877e-05 -2.7061518108499095e-04 0.0000000000000000e+00  4.7613140681166172e-05 -2.8523280504879185e-04 0.0000000000000000e+00  4.5955182444736263e-05 -2.9990087827645371e-04 0.0000000000000000e+00  4.4083922783884161e-05 -3.1486679647021369e-04 0.0000000000000000e+00  4.1971170878224482e-05 -3.2985367858034964e-04 0.0000000000000000e+00  3.9657999676690952e-05 -3.4511680702714760e-04 0.0000000000000000e+00  3.7090819585688683e-05 -3.6036048486796549e-04 0.0000000000000000e+00  3.4298600640937529e-05 -3.7588779250144477e-04 0.0000000000000000e+00  3.1278099989044586e-05 -3.9137499488282575e-04 0.0000000000000000e+00  2.8040298844213704e-05 -4.0708892982397709e-04 0.0000000000000000e+00  2.4567924200462485e-05 -4.2274146581521574e-04 0.0000000000000000e+00  2.0865144922554278e-05 -4.3860035310113517e-04 0.0000000000000000e+00  1.6917701235969269e-05 -4.5438877856602731e-04 0.0000000000000000e+00  1.2715255204145320e-05 -4.7031350010229398e-04 0.0000000000000000e+00  8.3170496976330160e-06 -4.8622118874778450e-04 0.0000000000000000e+00  3.6401879377955508e-06 -5.0219198889745701e-04 0.0000000000000000e+00  -1.1783970037303127e-06 -5.1816777669498842e-04 0.0000000000000000e+00  -6.2889731021558696e-06 -5.3406417038984861e-04 0.0000000000000000e+00  -1.1503439270977784e-05 -5.5014632674870139e-04 0.0000000000000000e+00  -2.8708823121441348e-05 -5.6212038008303725e-04 0.0000000000000000e+00  -5.0584570683836764e-05 -5.5229733313064534e-04 0.0000000000000000e+00  -5.5293923017479120e-05 -5.3153904016888691e-04 0.0000000000000000e+00  -4.9986878782830751e-05 -5.1492473126258168e-04 0.0000000000000000e+00  -4.4801245114151219e-05 -4.9821458860858589e-04 0.0000000000000000e+00  -3.9877665685173500e-05 -4.8163498643894500e-04 0.0000000000000000e+00  -3.5103239046067303e-05 -4.6508805913946714e-04 0.0000000000000000e+00  -3.0603492896203532e-05 -4.4859328960909040e-04 0.0000000000000000e+00  -2.6259579652057165e-05 -4.3217494611705039e-04 0.0000000000000000e+00  -2.2174801896965298e-05 -4.1574209045815516e-04 0.0000000000000000e+00  -1.8272691399319013e-05 -3.9949432113246011e-04 0.0000000000000000e+00  -1.4600454954121882e-05 -3.8318812692381897e-04 0.0000000000000000e+00  -1.1097578760550795e-05 -3.6708813622700174e-04 0.0000000000000000e+00  -7.8316184859772072e-06 -3.5095141616792180e-04 0.0000000000000000e+00  -4.7264369956280197e-06 -3.3505465836637020e-04 0.0000000000000000e+00  -1.8529901312927041e-06 -3.1915846748682426e-04 0.0000000000000000e+00  8.7501850558780337e-07 -3.0352246554382975e-04 0.0000000000000000e+00  3.3585558336214025e-06 -2.8790609840015878e-04 0.0000000000000000e+00  5.7075620742686302e-06 -2.7256475211205426e-04 0.0000000000000000e+00  7.8018731493455730e-06 -2.5726251772193050e-04 0.0000000000000000e+00  9.7683571415572306e-06 -2.4227543946223081e-04 0.0000000000000000e+00  1.1481243927294556e-05 -2.2736884455406818e-04 0.0000000000000000e+00  1.3083758637190940e-05 -2.1280052366844400e-04 0.0000000000000000e+00  1.4420737978292542e-05 -1.9834307656787001e-04 0.0000000000000000e+00  1.5625414812417387e-05 -1.8420173885483611e-04 0.0000000000000000e+00  1.6617314421322349e-05 -1.7026504291822153e-04 0.0000000000000000e+00  1.7381700551815948e-05 -1.5665483385249597e-04 0.0000000000000000e+00  1.8098540904403860e-05 -1.4330709468211297e-04 0.0000000000000000e+00  1.8545350904316098e-05 -1.3023358770868686e-04 0.0000000000000000e+00  1.8859172737788849e-05 -1.1760491826374227e-04 0.0000000000000000e+00  1.8959575988059307e-05 -1.0520288761068584e-04 0.0000000000000000e+00  1.8922097386694144e-05 -9.3308205006605911e-05 0.0000000000000000e+00  1.8674156400912794e-05 -8.1686412278973795e-05 0.0000000000000000e+00  1.8322377906678432e-05 -7.0654119428916509e-05 0.0000000000000000e+00  1.7750076894118088e-05 -5.9969853911718978e-05 0.0000000000000000e+00  1.6975586463153345e-05 -4.9907928569702441e-05 0.0000000000000000e+00  1.6221267015463359e-05 -4.0274750629741721e-05 0.0000000000000000e+00  1.5183753972767843e-05 -3.1240022370312978e-05 0.0000000000000000e+00  1.4043307896457024e-05 -2.2904509016128431e-05 0.0000000000000000e+00  1.2678089471235760e-05 -1.5100109498776834e-05 0.0000000000000000e+00  1.1261202495055633e-05 -8.1086807036744550e-06 0.0000000000000000e+00  9.5734332962412784e-06 -1.6917906573913141e-06 0.0000000000000000e+00  7.6865475889257759e-06 3.8497162001582301e-06 0.0000000000000000e+00  5.8911514974447289e-06 8.7361325626087501e-06 0.0000000000000000e+00  3.7830657257990179e-06 1.2903302290616187e-05 0.0000000000000000e+00  1.9480606773405098e-06 1.6140703431163613e-05 0.0000000000000000e+00  3.5641391607604605e-07 1.7901610019157604e-05 0.0000000000000000e+00  -1.2821139066761450e-07 1.7679994317100194e-05 0.0000000000000000e+00  -1.6659754846297940e-06 -9.8808402809808154e-07 0.0000000000000000e+00  -3.1018969554899813e-05 -5.3272215602835811e-04 0.0000000000000000e+00  -2.0685910053983102e-05 -5.0163235090170376e-04 0.0000000000000000e+00  -6.5637390707960136e-06 -4.5087273450545971e-04 0.0000000000000000e+00  6.5994446246469781e-06 -5.0811303687744841e-06 0.0000000000000000e+00  1.0514207622409482e-06 -4.1908983069915349e-04 0.0000000000000000e+00  1.2535816157348703e-05 -1.2115338976912383e-05 0.0000000000000000e+00  8.2153587596821471e-06 -3.8711320704306652e-04 0.0000000000000000e+00  2.0849468047996919e-05 -3.0106830269700667e-05 0.0000000000000000e+00  2.5258384552011766e-05 -4.5123713450741487e-05 0.0000000000000000e+00  1.4518948502090837e-05 -3.5547944315790367e-04 0.0000000000000000e+00  3.2638458190683204e-05 -9.3347136529848000e-05 0.0000000000000000e+00  2.4588610592928133e-05 -2.9368076588971595e-04 0.0000000000000000e+00  2.8605719224010048e-05 -6.1675478552361809e-05 0.0000000000000000e+00  3.4352731086766706e-05 -1.1575588689601212e-04 0.0000000000000000e+00  2.8368642904305547e-05 -2.6370030017697080e-04 0.0000000000000000e+00  1.9974320524448527e-05 -3.2430224981756317e-04 0.0000000000000000e+00  3.5125299901949134e-05 -1.3996378793609747e-04 0.0000000000000000e+00  3.1315531401677796e-05 -2.3448795549912421e-04 0.0000000000000000e+00  3.4885254788527464e-05 -1.6427857414645083e-04 0.0000000000000000e+00  3.3663697012226995e-05 -2.0691988199954844e-04 0.0000000000000000e+00  3.4469109479681476e-05 -1.8447535841693030e-04 0.0000000000000000e+00  3.0903765066878623e-05 -7.6550000494289875e-05 0.0000000000000000e+00  -1.4102236707173713e-05 -4.7703849377908050e-04 0.0000000000000000e+00  1.6768323941946702e-05 -2.0221503570582387e-05 0.0000000000000000e+00  -3.3328466845008076e-05 -5.1367161236655183e-04 0.0000000000000000e+00  1.8432465142986792e-06 5.0006746998958560e-06 0.0000000000000000e+00  -1.4722733664415085e-06 -3.9964476594042821e-04 0.0000000000000000e+00  -9.1189648825303669e-06 -4.3190693234091099e-04 0.0000000000000000e+00  1.1541362239952266e-05 -1.5619761346789955e-05 0.0000000000000000e+00  2.6059647979738303e-05 -4.2784613488521603e-05 0.0000000000000000e+00  1.6437846270888038e-05 -3.0505789357121921e-04 0.0000000000000000e+00  5.3313608502841520e-06 -3.6767784941057894e-04 0.0000000000000000e+00  3.8044305574957377e-05 -1.0922012977418913e-04 0.0000000000000000e+00  2.0764544302625740e-05 -2.7459731115896059e-04 0.0000000000000000e+00  3.0540839694852640e-05 -5.8978783052337982e-05 0.0000000000000000e+00  3.9519258879846175e-05 -1.3253364896180560e-04 0.0000000000000000e+00  2.4274022072465063e-05 -2.4484145122240702e-04 0.0000000000000000e+00  1.1295322594853582e-05 -3.3610946439315318e-04 0.0000000000000000e+00  4.1251879068188598e-05 -1.5820083401106732e-04 0.0000000000000000e+00  2.6980966316064308e-05 -2.1591858148336846e-04 0.0000000000000000e+00  -2.8188341865076880e-06 -4.6670859234126436e-06 0.0000000000000000e+00  -3.1398739268230338e-06 3.8993253251699270e-06 0.0000000000000000e+00  -3.0449390020956062e-05 -5.4773403329579616e-04 0.0000000000000000e+00  4.0652239181184527e-06 -1.1062114371535388e-05 0.