<?xml version="1.0"?>
<VTKFile type="UnstructuredGrid"  version="0.1"  >
<UnstructuredGrid>
<Piece  NumberOfPoints="1419" NumberOfCells="2698">
<Points>
<DataArray  type="Float64"  NumberOfComponents="3"  format="ascii">0 0 0  0 0.41 0  2.5 0 0  2.5 0.41 0  0.6 0.19 0  0.6 0.21 0  0.25 0.2 0  0.15 0.2 0  0.2489897948556636 0.21 0  0.2489897948556636 0.19 0  0.6 0.2 0  0 0.3807142857143437 0  0 0.3514285714286952 0  0 0.3221428571430699 0  0 0.29285714285744 0  0 0.2635714285718054 0  0 0.2342857142861561 0  0 0.2050000000005308 0  0 0.175714285714732 0  0 0.1464285714289574 0  0 0.1171428571431897 0  0 0.08785714285737878 0  0 0.05857142857161107 0  0 0.02928571428580012 0  0.03015443760436003 0 0  0.06140001986583606 0 0  0.09377624077125973 0 0  0.1273239957535082 0 0  0.1620856860351972 0 0  0.1981052433264291 0 0  0.235428184091502 0 0  0.2741016576309132 0 0  0.3141745521465447 0 0  0.3556974926295285 0 0  0.3987229542472677 0 0  0.4433053055141081 0 0  0.4895008759286886 0 0  0.5373680609405097 0 0  0.5869673343216626 0 0  0.6383613676634521 0 0  0.6916151138468254 0 0  0.7467958595648856 0 0  0.8039733463919316 0 0  0.8632198139502143 0 0  0.9246101326867038 0 0  0.9882218810934433 0 0  1.054135445558498 0 0  1.122434100542598 0 0  1.193204177141305 0 0  1.266535089879536 0 0  1.342519516046404 0 0  1.421253448503939 0 0  1.502836389106271 0 0  1.587371439758838 0 0  1.674965418777374 0 0  1.765729001825544 0 0  1.859776908880082 0 0  1.957227977487062 0 0  2.058205329869943 0 0  2.162836591189951 0 0  2.271253957290865 0 0  2.383594446803425 0 0  2.5 0.1024999999997612 0  2.5 0.2049999999994743 0  2.5 0.3074999999997183 0  2.383594446803656 0.41 0  2.271253957291315 0.41 0  2.162836591190598 0.41 0  2.058205329870775 0.41 0  1.957227977488067 0.41 0  1.859776908881246 0.41 0  1.765729001826854 0.41 0  1.674965418778818 0.41 0  1.58737143976041 0.41 0  1.502836389107956 0.41 0  1.421253448505726 0.41 0  1.342519516048286 0.41 0  1.266535089881505 0.41 0  1.193204177143353 0.41 0  1.122434100544716 0.41 0  1.05413544556068 0.41 0  0.9882218810956305 0.41 0  0.9246101326886647 0.41 0  0.8632198139519631 0.41 0  0.8039733463934788 0.41 0  0.7467958595662458 0.41 0  0.6916151138480078 0.41 0  0.6383613676644679 0.41 0  0.5869673343225223 0.41 0  0.5373680609412221 0.41 0  0.4895008759292634 0.41 0  0.4433053055145528 0.41 0  0.3987229542475914 0.41 0  0.3556974926297398 0.41 0  0.3141745521466497 0.41 0  0.2741016576310038 0.41 0  0.2354281840915826 0.41 0  0.1981052433265003 0.41 0  0.1620856860352591 0.41 0  0.1273239957535623 0.41 0  0.09377624077128965 0.41 0  0.06140001986584975 0.41 0  0.03015443760436654 0.41 0  0.2497468076502589 0.2050254481002335 0  0.2497468076502614 0.1949745518997913 0  0.2469965252529372 0.1829317073451959 0  0.2439893735792749 0.1762316384219906 0  0.2400332147834255 0.1700443375285386 0  0.2352133972704371 0.1645032867342007 0  0.2296339016332438 0.1597280261969788 0  0.2234150974217223 0.1558215752574715 0  0.2166911463437691 0.1528682099456123 0  0.2096071079204251 0.1509316448471593 0  0.2023158100364996 0.1500536585536553 0  0.194974551899914 0.1502531923497262 0  0.1877417105387872 0.1515259415822739 0  0.1807733240461124 0.153844448527136 0  0.1742197252835808 0.15715869474974 0  0.1682222986673531 0.1613971801805478 0  0.162910430003803 0.1664684656256651 0  0.1583987151779087 0.1722631454351573 0  0.1547844879126891 0.178656207771761 0  0.1521457199348551 0.1855097315605723 0  0.1505393388476355 0.1926758619366523 0  0.1505393388476328 0.2073241380633295 0  0.1521457199348437 0.2144902684393899 0  0.1547844879126531 0.221343792228163 0  0.1583987151778488 0.2277368545647528 0  0.1629104300036858 0.2335315343742052 0  0.1682222986671726 0.2386028198193036 0  0.1742197252833576 0.2428413052501257 0  0.1807733240458683 0.2461555514727623 0  0.1877417105384929 0.2484740584176516 0  0.1949745518995776 0.2497468076502398 0  0.202315810036185 0.2499463414463592 0  0.2096071079201568 0.2490683551528932 0  0.2166911463435495 0.2471317900544655 0  0.2234150974215506 0.2441784247426195 0  0.2296339016331197 0.2402719738031125 0  0.2352133972703547 0.2354967132658811 0  0.2400332147833751 0.2299556624715287 0  0.2439893735792577 0.2237683615780412 0  0.246996525252926 0.2170682926548348 0  0.25645809709277 0.21 0  0.2639263993298655 0.21 0  0.271394701566961 0.21 0  0.2788630038040554 0.21 0  0.2863313060411479 0.21 0  0.2937996082782405 0.21 0  0.301267910515333 0.21 0  0.3087362127524279 0.21 0  0.3162045149895234 0.21 0  0.3236728172265972 0.21 0  0.3311411194636928 0.21 0  0.3386094217007701 0.21 0  0.3460777239378666 0.21 0  0.3535460261749672 0.21 0  0.3610143284120516 0.21 0  0.3684826306491596 0.21 0  0.3759509328862226 0.21 0  0.383419235123329 0.21 0  0.3908875373604028 0.21 0  0.3983558395975142 0.21 0  0.4058241418345938 0.21 0  0.4132924440716992 0.21 0  0.4207607463087888 0.21 0  0.4282290485459029 0.21 0  0.4356973507830418 0.21 0  0.4431656530201649 0.21 0  0.4506339552573136 0.21 0  0.4581022574944306 0.21 0  0.4655705597315852 0.21 0  0.4730388619686996 0.21 0  0.480507164205851 0.21 0  0.4879754664429498 0.21 0  0.4954437686800938 0.21 0  0.502912070917267 0.21 0  0.5103803731544119 0.21 0  0.5178486753915261 0.21 0  0.5253169776286404 0.21 0  0.5327852798657868 0.21 0  0.5402535821029386 0.21 0  0.54772188434007 0.21 0  0.5551901865771842 0.21 0  0.5626584888143201 0.21 0  0.5701267910514778 0.21 0  0.5775950932886138 0.21 0  0.5850633955257281 0.21 0  0.5925316977628483 0.21 0  0.6 0.2050000000000054 0  0.6 0.1950000000000217 0  0.5925316977628897 0.19 0  0.5850633955257988 0.19 0  0.5775950932887378 0.19 0  0.5701267910515998 0.19 0  0.5626584888145268 0.19 0  0.5551901865773963 0.19 0  0.547721884340339 0.19 0  0.5402535821032429 0.19 0  0.5327852798661811 0.19 0  0.5253169776290537 0.19 0  0.5178486753919799 0.19 0  0.5103803731549078 0.19 0  0.502912070917822 0.19 0  0.4954437686807294 0.19 0  0.4879754664436223 0.19 0  0.4805071642065402 0.19 0  0.4730388619694271 0.19 0  0.4655705597323621 0.19 0  0.4581022574952563 0.19 0  0.4506339552581777 0.19 0  0.4431656530210671 0.19 0  0.4356973507839815 0.19 0  0.4282290485468779 0.19 0  0.4207607463097617 0.19 0  0.4132924440726327 0.19 0  0.4058241418354857 0.19 0  0.3983558395983636 0.19 0  0.3908875373612097 0.19 0  0.3834192351240934 0.19 0  0.3759509328869369 0.19 0  0.3684826306498175 0.19 0  0.361014328412667 0.19 0  0.3535460261755617 0.19 0  0.3460777239384295 0.19 0  0.3386094217012945 0.19 0  0.3311411194641595 0.19 0  0.3236728172270245 0.19 0  0.3162045149898895 0.19 0  0.3087362127527544 0.19 0  0.3012679105156187 0.19 0  0.2937996082784807 0.19 0  0.2863313060413428 0.19 0  0.2788630038042048 0.19 0  0.2713947015670686 0.19 0  0.2639263993299336 0.19 0  0.2564580970927985 0.19 0  0.2607803159922026 0.2000727136295815 0  0.5887803774232762 0.2001272386983733 0  0.5745072403740523 0.2002044435018727 0  0.5511891430099709 0.2001122610077113 0  0.2751288526855082 0.20000000000002 0  0.5365194309847112 0.1999999999999436 0  0.2894621222999649 0.1998691686390484 0  0.5215828265105155 0.1999999999999228 0  0.3127789816668748 0.1998657885438805 0  0.3274069683451451 0.2000000000000796 0  0.5066462220363641 0.199999999999908 0  0.3650630746574081 0.199866017807523 0  0.476773013087985 0.1999999999998713 0  0.3417402379596385 0.1998691686391011 0  0.3796850840047755 0.200000000000134 0  0.4618364086138087 0.1999999999998546 0  0.4917096175621762 0.1999999999998808 0  0.3946216884789568 0.2000000000001512 0  0.446899804139621 0.1999999999998389 0  0.4089549580935208 0.1998691686391595 0  0.4322718174608562 0.200127451265745 0  0.4201487168029707 0.1999966199048527 0  0.3528922713220932 0.2000185703532356 0  0.5633122436674589 0.1999814296467508 0  0.3006558810093873 0.1999966199048318 0  0.5815926498168407 0.1966545283159175 0  0.2677053789419034 0.1964246479135325 0  0.5290511287476175 0.1970915826863981 0  0.5439877332217911 0.197091582686394 0  0.2825131256993216 0.2035478995978015 0  0.3199386661080599 0.202908417313604 0  0.4842413153250809 0.1970915826863873 0  0.5141145242734466 0.1970915826863843 0  0.3722167817676917 0.2029084173136195 0  0.4693047108508938 0.1970915826863783 0  0.3348752705822316 0.202908417313609 0  0.3871533862418661 0.2029084173136212 0  0.4543681063767183 0.1970915826863795 0  0.4991779197992749 0.1970915826863902 0  0.4020059614928624 0.203547899597858 0  0.4394315019025246 0.1970915826863714 0  0.2550657455369551 0.2034088125358657 0  0.2548908499171161 0.1966940311614271 0  0.5946539510196798 0.2024302972968126 0  0.267698176732111 0.2039977513680092 0  0.4261685417851465 0.196409292431739 0  0.3590076176283495 0.196411355804271 0  0.5571672426447437 0.2036011176410121 0  0.3066757059912147 0.1964092924317024 0  0.594380730180568 0.1966558399668133 0  0.4842413153245942 0.2040749161535287 0  0.4693047108503577 0.2040749161535231 0  0.3871533862424271 0.1959250838464788 0  0.372246743208829 0.1959123236376545 0  0.5141145242731028 0.2040749161535395 0  0.4543681063761134 0.2040749161535186 0  0.4019979587101454 0.1959834479682427 0  0.4394608940728603 0.2040870543693135 0  0.5439623148931173 0.2040856076781014 0  0.5290511287473298 0.2040749161535501 0  0.4991779197988497 0.2040749161535382 0  0.3347912413592433 0.1959225448935183 0  0.3199680582793816 0.1959123018030061 0  0.2825051229162361 0.1959834479681729 0  0.3590471196690275 0.2036304442587945 0  0.5571594006495384 0.1963685282145804 0  0.3067669986803285 0.203627750582736 0  0.4262598344738712 0.2036568242185335 0  0.5814408164431408 0.2041285596160068 0  0.5688286748170428 0.1961819304477386 0  0.4145905603063645 0.2038180695522843 0  0.3473758401724931 0.2038180695522752 0  0.2950977245128307 0.2038180695522663 0  0.5688286748170693 0.203818069552238 0  0.2950977245127906 0.1961819304477774 0  0.3473758401723931 0.1961819304478349 0  0.4145905603061963 0.1961819304479011 0  0.2601812407614425 0.2056861609747042
[...]
<PointData  Vectors="f_46-0"> 
<DataArray  type="Float64"  Name="f_46-0"  NumberOfComponents="3" format="ascii">0.0000000000000000e+00 0.0000000000000000e+00 0.0000000000000000e+00  0.0000000000000000e+00 0.0000000000000000e+00 0.0000000000000000e+00  0.0000000000000000e+00 0.0000000000000000e+00 0.0000000000000000e+00  0.0000000000000000e+00 0.0000000000000000e+00 0.0000000000000000e+00  -1.7764984632301662e-05 -5.8402447624180148e-05 0.0000000000000000e+00  -1.1877068911033772e-05 -6.6849299053031575e-05 0.0000000000000000e+00  0.0000000000000000e+00 0.0000000000000000e+00 0.0000000000000000e+00  0.0000000000000000e+00 0.0000000000000000e+00 0.0000000000000000e+00  0.0000000000000000e+00 0.0000000000000000e+00 0.0000000000000000e+00  0.0000000000000000e+00 0.0000000000000000e+00 0.0000000000000000e+00  -1.5506638834036777e-05 -6.2631591802476006e-05 0.0000000000000000e+00  8.1983412782854620e-03 0.0000000000000000e+00 0.0000000000000000e+00  1.5135399282989547e-02 0.0000000000000000e+00 0.0000000000000000e+00  2.0811174014110631e-02 0.0000000000000000e+00 0.0000000000000000e+00  2.5225665471655289e-02 0.0000000000000000e+00 0.0000000000000000e+00  2.8378873655622933e-02 0.0000000000000000e+00 0.0000000000000000e+00  3.0270798566013387e-02 0.0000000000000000e+00 0.0000000000000000e+00  3.0901440202824756e-02 0.0000000000000000e+00 0.0000000000000000e+00  3.0270798566051638e-02 0.0000000000000000e+00 0.0000000000000000e+00  2.8378873655688634e-02 0.0000000000000000e+00 0.0000000000000000e+00  2.5225665471736648e-02 0.0000000000000000e+00 0.0000000000000000e+00  2.0811174014187930e-02 0.0000000000000000e+00 0.0000000000000000e+00  1.5135399283055510e-02 0.0000000000000000e+00 0.0000000000000000e+00  8.1983412783226267e-03 0.0000000000000000e+00 0.0000000000000000e+00  0.0000000000000000e+00 0.0000000000000000e+00 0.0000000000000000e+00  0.0000000000000000e+00 0.0000000000000000e+00 0.0000000000000000e+00  0.0000000000000000e+00 0.0000000000000000e+00 0.0000000000000000e+00  0.0000000000000000e+00 0.0000000000000000e+00 0.0000000000000000e+00  0.0000000000000000e+00 0.0000000000000000e+00 0.0000000000000000e+00  0.0000000000000000e+00 0.0000000000000000e+00 0.0000000000000000e+00  0.0000000000000000e+00 0.0000000000000000e+00 0.0000000000000000e+00  0.0000000000000000e+00 0.0000000000000000e+00 0.0000000000000000e+00  0.0000000000000000e+00 0.0000000000000000e+00 0.0000000000000000e+00  0.0000000000000000e+00 0.0000000000000000e+00 0.0000000000000000e+00  0.0000000000000000e+00 0.0000000000000000e+00 0.0000000000000000e+00  0.0000000000000000e+00 0.0000000000000000e+00 0.0000000000000000e+00  0.0000000000000000e+00 0.0000000000000000e+00 0.0000000000000000e+00  0.0000000000000000e+00 0.0000000000000000e+00 0.0000000000000000e+00  0.0000000000000000e+00 0.0000000000000000e+00 0.0000000000000000e+00  0.0000000000000000e+00 0.0000000000000000e+00 0.0000000000000000e+00  0.0000000000000000e+00 0.0000000000000000e+00 0.0000000000000000e+00  0.0000000000000000e+00 0.0000000000000000e+00 0.0000000000000000e+00  0.0000000000000000e+00 0.0000000000000000e+00 0.0000000000000000e+00  0.0000000000000000e+00 0.0000000000000000e+00 0.0000000000000000e+00  0.0000000000000000e+00 0.0000000000000000e+00 0.0000000000000000e+00  0.0000000000000000e+00 0.0000000000000000e+00 0.0000000000000000e+00  0.0000000000000000e+00 0.0000000000000000e+00 0.0000000000000000e+00  0.0000000000000000e+00 0.0000000000000000e+00 0.0000000000000000e+00  0.0000000000000000e+00 0.0000000000000000e+00 0.0000000000000000e+00  0.0000000000000000e+00 0.0000000000000000e+00 0.0000000000000000e+00  0.0000000000000000e+00 0.0000000000000000e+00 0.0000000000000000e+00  0.0000000000000000e+00 0.0000000000000000e+00 0.0000000000000000e+00  0.0000000000000000e+00 0.0000000000000000e+00 0.0000000000000000e+00  0.0000000000000000e+00 0.0000000000000000e+00 0.0000000000000000e+00  0.0000000000000000e+00 0.0000000000000000e+00 0.0000000000000000e+00  0.0000000000000000e+00 0.0000000000000000e+00 0.0000000000000000e+00  0.0000000000000000e+00 0.0000000000000000e+00 0.0000000000000000e+00  0.0000000000000000e+00 0.0000000000000000e+00 0.0000000000000000e+00  0.0000000000000000e+00 0.0000000000000000e+00 0.0000000000000000e+00  0.0000000000000000e+00 0.0000000000000000e+00 0.0000000000000000e+00  0.0000000000000000e+00 0.0000000000000000e+00 0.0000000000000000e+00  0.0000000000000000e+00 0.0000000000000000e+00 0.0000000000000000e+00  2.9818317488206507e-02 4.0546267947774743e-03 0.0000000000000000e+00  2.2104567987087646e-02 1.9713666704226863e-04 0.0000000000000000e+00  3.0016376615660201e-02 -3.6602702175752649e-03 0.0000000000000000e+00  0.0000000000000000e+00 0.0000000000000000e+00 0.0000000000000000e+00  0.0000000000000000e+00 0.0000000000000000e+00 0.0000000000000000e+00  0.0000000000000000e+00 0.0000000000000000e+00 0.0000000000000000e+00  0.0000000000000000e+00 0.0000000000000000e+00 0.0000000000000000e+00  0.0000000000000000e+00 0.0000000000000000e+00 0.0000000000000000e+00  0.0000000000000000e+00 0.0000000000000000e+00 0.0000000000000000e+00  0.0000000000000000e+00 0.0000000000000000e+00 0.0000000000000000e+00  0.0000000000000000e+00 0.0000000000000000e+00 0.0000000000000000e+00  0.0000000000000000e+00 0.0000000000000000e+00 0.0000000000000000e+00  0.0000000000000000e+00 0.0000000000000000e+00 0.0000000000000000e+00  0.0000000000000000e+00 0.0000000000000000e+00 0.0000000000000000e+00  0.0000000000000000e+00 0.0000000000000000e+00 0.0000000000000000e+00  0.0000000000000000e+00 0.0000000000000000e+00 0.0000000000000000e+00  0.0000000000000000e+00 0.0000000000000000e+00 0.0000000000000000e+00  0.0000000000000000e+00 0.0000000000000000e+00 0.0000000000000000e+00  0.0000000000000000e+00 0.0000000000000000e+00 0.0000000000000000e+00  0.0000000000000000e+00 0.0000000000000000e+00 0.0000000000000000e+00  0.0000000000000000e+00 0.0000000000000000e+00 0.0000000000000000e+00  0.0000000000000000e+00 0.0000000000000000e+00 0.0000000000000000e+00  0.0000000000000000e+00 0.0000000000000000e+00 0.0000000000000000e+00  0.0000000000000000e+00 0.0000000000000000e+00 0.0000000000000000e+00  0.0000000000000000e+00 0.0000000000000000e+00 0.0000000000000000e+00  0.0000000000000000e+00 0.0000000000000000e+00 0.0000000000000000e+00  0.0000000000000000e+00 0.0000000000000000e+00 0.0000000000000000e+00  0.0000000000000000e+00 0.0000000000000000e+00 0.0000000000000000e+00  0.0000000000000000e+00 0.0000000000000000e+00 0.0000000000000000e+00  0.0000000000000000e+00 0.0000000000000000e+00 0.0000000000000000e+00  0.0000000000000000e+00 0.0000000000000000e+00 0.0000000000000000e+00  0.0000000000000000e+00 0.0000000000000000e+00 0.0000000000000000e+00  0.0000000000000000e+00 0.0000000000000000e+00 0.0000000000000000e+00  0.0000000000000000e+00 0.0000000000000000e+00 0.0000000000000000e+00  0.0000000000000000e+00 0.0000000000000000e+00 0.0000000000000000e+00  0.0000000000000000e+00 0.0000000000000000e+00 0.0000000000000000e+00  0.0000000000000000e+00 0.0000000000000000e+00 0.0000000000000000e+00  0.0000000000000000e+00 0.0000000000000000e+00 0.0000000000000000e+00  0.0000000000000000e+00 0.0000000000000000e+00 0.0000000000000000e+00  0.0000000000000000e+00 0.0000000000000000e+00 0.0000000000000000e+00  0.0000000000000000e+00 0.0000000000000000e+00 0.0000000000000000e+00  0.0000000000000000e+00 0.0000000000000000e+00 0.0000000000000000e+00  0.0000000000000000e+00 0.0000000000000000e+00 0.0000000000000000e+00  2.5506667930427243e-12 0.0000000000000000e+00 0.0000000000000000e+00  0.0000000000000000e+00 0.0000000000000000e+00 0.0000000000000000e+00  0.0000000000000000e+00 0.0000000000000000e+00 0.0000000000000000e+00  0.0000000000000000e+00 0.0000000000000000e+00 0.0000000000000000e+00  0.0000000000000000e+00 0.0000000000000000e+00 0.0000000000000000e+00  0.0000000000000000e+00 0.0000000000000000e+00 0.0000000000000000e+00  0.0000000000000000e+00 0.0000000000000000e+00 0.0000000000000000e+00  0.0000000000000000e+00 0.0000000000000000e+00 0.0000000000000000e+00  0.0000000000000000e+00 0.0000000000000000e+00 0.0000000000000000e+00  0.0000000000000000e+00 0.0000000000000000e+00 0.0000000000000000e+00  0.0000000000000000e+00 0.0000000000000000e+00 0.0000000000000000e+00  0.0000000000000000e+00 0.0000000000000000e+00 0.0000000000000000e+00  0.0000000000000000e+00 0.0000000000000000e+00 0.0000000000000000e+00  0.0000000000000000e+00 0.0000000000000000e+00 0.0000000000000000e+00  0.0000000000000000e+00 0.0000000000000000e+00 0.0000000000000000e+00  0.0000000000000000e+00 0.0000000000000000e+00 0.0000000000000000e+00  0.0000000000000000e+00 0.0000000000000000e+00 0.0000000000000000e+00  0.0000000000000000e+00 0.0000000000000000e+00 0.0000000000000000e+00  0.0000000000000000e+00 0.0000000000000000e+00 0.0000000000000000e+00  0.0000000000000000e+00 0.0000000000000000e+00 0.0000000000000000e+00  0.0000000000000000e+00 0.0000000000000000e+00 0.0000000000000000e+00  0.0000000000000000e+00 0.0000000000000000e+00 0.0000000000000000e+00  0.0000000000000000e+00 0.0000000000000000e+00 0.0000000000000000e+00  0.0000000000000000e+00 0.0000000000000000e+00 0.0000000000000000e+00  0.0000000000000000e+00 0.0000000000000000e+00 0.0000000000000000e+00  0.0000000000000000e+00 0.0000000000000000e+00 0.0000000000000000e+00  0.0000000000000000e+00 0.0000000000000000e+00 0.0000000000000000e+00  0.0000000000000000e+00 0.0000000000000000e+00 0.0000000000000000e+00  0.0000000000000000e+00 0.0000000000000000e+00 0.0000000000000000e+00  0.0000000000000000e+00 0.0000000000000000e+00 0.0000000000000000e+00  0.0000000000000000e+00 0.0000000000000000e+00 0.0000000000000000e+00  0.0000000000000000e+00 0.0000000000000000e+00 0.0000000000000000e+00  0.0000000000000000e+00 0.0000000000000000e+00 0.0000000000000000e+00  0.0000000000000000e+00 0.0000000000000000e+00 0.0000000000000000e+00  0.0000000000000000e+00 0.0000000000000000e+00 0.0000000000000000e+00  0.0000000000000000e+00 0.0000000000000000e+00 0.0000000000000000e+00  0.0000000000000000e+00 0.0000000000000000e+00 0.0000000000000000e+00  4.6895621413438268e-17 0.0000000000000000e+00 0.0000000000000000e+00  4.5565591928475057e-07 -7.4633114252534945e-06 0.0000000000000000e+00  1.1718903846100317e-06 -8.0785918723116999e-06 0.0000000000000000e+00  2.2690106891395948e-06 -8.3109145942621581e-06 0.0000000000000000e+00  3.5406209181614219e-06 -8.3659148041583000e-06 0.0000000000000000e+00  4.8339514947705156e-06 -8.4657000873711395e-06 0.0000000000000000e+00  6.0652469143268604e-06 -8.7010870119320615e-06 0.0000000000000000e+00  7.2308591437304027e-06 -8.9812910577743625e-06 0.0000000000000000e+00  8.3142390214970448e-06 -9.3347505386733530e-06 0.0000000000000000e+00  9.3608870852214670e-06 -9.7578616394602901e-06 0.0000000000000000e+00  1.0301654882760220e-05 -1.0222460822870714e-05 0.0000000000000000e+00  1.1194163548911010e-05 -1.0797888293176622e-05 0.0000000000000000e+00  1.1984533368839613e-05 -1.1398353420635121e-05 0.0000000000000000e+00  1.2709108992010632e-05 -1.2092428144750624e-05 0.0000000000000000e+00  1.3353010460284742e-05 -1.2847272746144288e-05 0.0000000000000000e+00  1.3904393845666945e-05 -1.3667955634171813e-05 0.0000000000000000e+00  1.4412396383605196e-05 -1.4570051622271727e-05 0.0000000000000000e+00  1.4806855004523489e-05 -1.5497669776403834e-05 0.0000000000000000e+00  1.5141540576133381e-05 -1.6544853924603299e-05 0.0000000000000000e+00  1.5371953945534540e-05 -1.7599379982082856e-05 0.0000000000000000e+00  1.5543677652989383e-05 -1.8770859433493042e-05 0.0000000000000000e+00  1.5614292203272785e-05 -1.9951573576227932e-05 0.0000000000000000e+00  1.5602609844092211e-05 -2.1226016443853572e-05 0.0000000000000000e+00  1.5515769434443317e-05 -2.2550417163167988e-05 0.0000000000000000e+00  1.5333993126921321e-05 -2.3927469582288730e-05 0.0000000000000000e+00  1.5101469905991890e-05 -2.5376198613902637e-05 0.0000000000000000e+00  1.4760277768173606e-05 -2.6840343002898007e-05 0.0000000000000000e+00  1.4335350156826935e-05 -2.8414918114979275e-05 0.0000000000000000e+00  1.3823761761086597e-05 -2.9979917586430868e-05 0.0000000000000000e+00  1.3228147574713115e-05 -3.1645604698332964e-05 0.0000000000000000e+00  1.2546099256318301e-05 -3.3306225672556593e-05 0.0000000000000000e+00  1.1782191245545360e-05 -3.5058173120430672e-05 0.0000000000000000e+00  1.0927276701339508e-05 -3.6798667970674130e-05 0.0000000000000000e+00  9.9946277025149265e-06 -3.8629428376740024e-05 0.0000000000000000e+00  8.9683324623368197e-06 -4.0435242168439614e-05 0.0000000000000000e+00  7.8543093272987587e-06 -4.2333625830339201e-05 0.0000000000000000e+00  6.6544520675136258e-06 -4.4206187348624499e-05 0.0000000000000000e+00  5.3714572723597368e-06 -4.6159186996038184e-05 0.0000000000000000e+00  4.0001244587302945e-06 -4.8084386085674867e-05 0.0000000000000000e+00  2.5407190016023474e-06 -5.0083949747121526e-05 0.0000000000000000e+00  9.8792163992765072e-07 -5.2052202846092464e-05 0.0000000000000000e+00  -6.6231242812846554e-07 -5.4070554585613729e-05 0.0000000000000000e+00  -2.3850666711837462e-06 -5.6082310449036584e-05 0.0000000000000000e+00  -4.2115165520314920e-06 -5.8116827422904590e-05 0.0000000000000000e+00  -6.0883085566301882e-06 -6.0155336715484558e-05 0.0000000000000000e+00  -8.0656806269400180e-06 -6.2175826665902798e-05 0.0000000000000000e+00  -1.0040498846767436e-05 -6.4295863263360406e-05 0.0000000000000000e+00  -1.3931539584261743e-05 -6.4732454471377662e-05 0.0000000000000000e+00  -1.6844085018919829e-05 -6.0536954008565151e-05 0.0000000000000000e+00  -1.5896137402578192e-05 -5.6596196204733672e-05 0.0000000000000000e+00  -1.3875573499349955e-05 -5.4337629761359595e-05 0.0000000000000000e+00  -1.1865735065054947e-05 -5.2033999125748086e-05 0.0000000000000000e+00  -9.9477769680247183e-06 -4.9773419061560897e-05 0.0000000000000000e+00  -8.0848217557711205e-06 -4.7524351263904263e-05 0.0000000000000000e+00  -6.3265295821002924e-06 -4.5291604276723329e-05 0.0000000000000000e+00  -4.6300759854210859e-06 -4.3085969926060290e-05 0.0000000000000000e+00  -3.0336457207821344e-06 -4.0869487914549290e-05 0.0000000000000000e+00  -1.5113558372273166e-06 -3.8719344915721005e-05 0.0000000000000000e+00  -7.8867016480000541e-08 -3.6539987007890170e-05 0.0000000000000000e+00  1.2810358102616139e-06 -3.4437267930406156e-05 0.0000000000000000e+00  2.5502275002810264e-06 -3.2311327173240461e-05 0.0000000000000000e+00  3.7487285501711119e-06 -3.0266696864345720e-05 0.0000000000000000e+00  4.8575027094648772e-06 -2.8204990109769660e-05 0.0000000000000000e+00  5.8995728759973112e-06 -2.6228264395313376e-05 0.0000000000000000e+00  6.8487503903317102e-06 -2.4238299529256586e-05 0.0000000000000000e+00  7.7318722995291457e-06 -2.2337991868433744e-05 0.0000000000000000e+00  8.5208445203115772e-06 -2.0429462708130909e-05 0.0000000000000000e+00  9.2458160917262169e-06 -1.8617643878967838e-05 0.0000000000000000e+00  9.8768251976653061e-06 -1.6804281807056420e-05 0.0000000000000000e+00  1.0446412995770071e-05 -1.5090365914016602e-05 0.0000000000000000e+00  1.0919079609642029e-05 -1.3380939683064742e-05 0.0000000000000000e+00  1.1318319702934347e-05 -1.1757296483871541e-05 0.0000000000000000e+00  1.1641463672331989e-05 -1.0174027746581646e-05 0.0000000000000000e+00  1.1869004581041468e-05 -8.6593938314814000e-06 0.0000000000000000e+00  1.2057209221729922e-05 -7.2031800771858580e-06 0.0000000000000000e+00  1.2139902297783991e-05 -5.7836848264252902e-06 0.0000000000000000e+00  1.2151736724066831e-05 -4.4750736652236279e-06 0.0000000000000000e+00  1.2075850022474822e-05 -3.1745206232767509e-06 0.0000000000000000e+00  1.1925630433071769e-05 -1.9935909145932345e-06 0.0000000000000000e+00  1.1689336059892190e-05 -8.2153455784512181e-07 0.0000000000000000e+00  1.1375046142958575e-05 2.3850559219984359e-07 0.0000000000000000e+00  1.0989274345097713e-05 1.2628241181276174e-06 0.0000000000000000e+00  1.0512270368334795e-05 2.1975496361462498e-06 0.0000000000000000e+00  9.9956171405236514e-06 3.0756667548171665e-06 0.0000000000000000e+00  9.3771116257586566e-06 3.8943913374001711e-06 0.0000000000000000e+00  8.6864996224672364e-06 4.6014728554978040e-06 0.0000000000000000e+00  7.9130328213855972e-06 5.2825401120824041e-06 0.0000000000000000e+00  7.0657438766349481e-06 5.8603060927952048e-06 0.0000000000000000e+00  6.1488914191828372e-06 6.3887777257991613e-06 0.0000000000000000e+00  5.1462044894125944e-06 6.8341990796160779e-06 0.0000000000000000e+00  4.1104603258517685e-06 7.2141573362897536e-06 0.0000000000000000e+00  2.9758516137564554e-06 7.5918585655035217e-06 0.0000000000000000e+00  1.8864632593882876e-06 7.8724889507066173e-06 0.0000000000000000e+00  9.2105883230483013e-07 7.8615895614885347e-06 0.0000000000000000e+00  3.1881866881631872e-07 7.3398936072732207e-06 0.0000000000000000e+00  -6.7298774456597287e-07 -8.8062679717799740e-08 0.0000000000000000e+00  -1.2180551259344474e-05 -5.9381097426209081e-05 0.0000000000000000e+00  -8.1972140629573976e-06 -5.5276084947510815e-05 0.0000000000000000e+00  -2.6263318096345512e-06 -4.8586230598896517e-05 0.0000000000000000e+00  2.5860088570915856e-06 -2.5961046128652061e-07 0.0000000000000000e+00  4.2203417352312741e-07 -4.4421990229100229e-05 0.0000000000000000e+00  4.9080782889725976e-06 -5.9849262881125228e-07 0.0000000000000000e+00  3.2322584640872690e-06 -4.0315025771948333e-05 0.0000000000000000e+00  8.1410674108887714e-06 -1.8533040522935215e-06 0.0000000000000000e+00  9.8209561488167001e-06 -3.0780459621084936e-06 0.0000000000000000e+00  5.7058192184592313e-06 -3.6313815855415096e-05 0.0000000000000000e+00  1.2789062964308896e-05 -7.1021964858542855e-06 0.0000000000000000e+00  9.6531608200649648e-06 -2.8703136790851842e-05 0.0000000000000000e+00  1.1183862714628564e-05 -4.3400387520474329e-06 0.0000000000000000e+00  1.3414988440276923e-05 -9.2533583732731748e-06 0.0000000000000000e+00  1.1131147425319766e-05 -2.5133369578791420e-05 0.0000000000000000e+00  7.8455951367083712e-06 -3.2436202522938387e-05 0.0000000000000000e+00  1.3731975455471676e-05 -1.1607587891418056e-05 0.0000000000000000e+00  1.2280240120031164e-05 -2.1749192470717246e-05 0.0000000000000000e+00  1.3716712847024567e-05 -1.4017644645923183e-05 0.0000000000000000e+00  1.3123971171129381e-05 -1.8707523960584520e-05 0.0000000000000000e+00  1.3498519186554502e-05 -1.6214218115498096e-05 0.0000000000000000e+00  1.2034229327285352e-05 -5.6962805590560112e-06 0.0000000000000000e+00  -5.5013666228119080e-06 -5.1975444938347589e-05 0.0000000000000000e+00  6.5218554286108080e-06 -1.2295974301393645e-06 0.0000000000000000e+00  -1.1131453804419783e-05 -5.5928049643387509e-05 0.0000000000000000e+00  1.0619903656527939e-06 2.8987880962115546e-06 0.0000000000000000e+00  1.0729746283766764e-06 -4.0978671174244850e-05 0.0000000000000000e+00  -1.9215146633885523e-06 -4.5187225769955499e-05 0.0000000000000000e+00  3.9276201156972874e-06 -3.2651020947551401e-06 0.0000000000000000e+00  9.2248162948051203e-06 -4.6477251004432951e-06 0.0000000000000000e+00  8.0667783008685290e-06 -2.8998929395270521e-05 0.0000000000000000e+00  3.7348029076668795e-06 -3.6863729476508695e-05 0.0000000000000000e+00  1.3548075061268620e-05 -1.0156865967927290e-05 0.0000000000000000e+00  9.7415018609247374e-06 -2.5287105278996265e-05 0.0000000000000000e+00  1.0845737949125576e-05 -5.8812362832569171e-06 0.0000000000000000e+00  1.4069065917152728e-05 -1.2332207724370675e-05 0.0000000000000000e+00  1.1090021347994540e-05 -2.1750638218533384e-05 0.0000000000000000e+00  6.0648022747536428e-06 -3.2863767118323190e-05 0.0000000000000000e+00  1.4388374346002344e-05 -1.5157088705266879e-05 0.0000000000000000e+00  1.2115801777765205e-05 -1.8410461470872747e-05 0.0000000000000000e+00  -1.1903014531784876e-06 -1.7979248078194318e-06 0.0000000000000000e+00  -1.1965826554396037e-06 1.6116952147194244e-06 0.0000000000000000e+00  -1.3229686146499979e-05 -6.2000020938830953e-05 0.0000000000000000e+00  1.2164823707306776e-06 -3.4872842195966662e-06 0.0000000000000