<?xml version="1.0"?>
<VTKFile type="UnstructuredGrid"  version="0.1"  >
<UnstructuredGrid>
<Piece  NumberOfPoints="1419" NumberOfCells="2698">
<Points>
<DataArray  type="Float64"  NumberOfComponents="3"  format="ascii">0 0 0  0 0.41 0  2.5 0 0  2.5 0.41 0  0.6 0.19 0  0.6 0.21 0  0.25 0.2 0  0.15 0.2 0  0.2489897948556636 0.21 0  0.2489897948556636 0.19 0  0.6 0.2 0  0 0.3807142857143437 0  0 0.3514285714286952 0  0 0.3221428571430699 0  0 0.29285714285744 0  0 0.2635714285718054 0  0 0.2342857142861561 0  0 0.2050000000005308 0  0 0.175714285714732 0  0 0.1464285714289574 0  0 0.1171428571431897 0  0 0.08785714285737878 0  0 0.05857142857161107 0  0 0.02928571428580012 0  0.03015443760436003 0 0  0.06140001986583606 0 0  0.09377624077125973 0 0  0.1273239957535082 0 0  0.1620856860351972 0 0  0.1981052433264291 0 0  0.235428184091502 0 0  0.2741016576309132 0 0  0.3141745521465447 0 0  0.3556974926295285 0 0  0.3987229542472677 0 0  0.4433053055141081 0 0  0.4895008759286886 0 0  0.5373680609405097 0 0  0.5869673343216626 0 0  0.6383613676634521 0 0  0.6916151138468254 0 0  0.7467958595648856 0 0  0.8039733463919316 0 0  0.8632198139502143 0 0  0.9246101326867038 0 0  0.9882218810934433 0 0  1.054135445558498 0 0  1.122434100542598 0 0  1.193204177141305 0 0  1.266535089879536 0 0  1.342519516046404 0 0  1.421253448503939 0 0  1.502836389106271 0 0  1.587371439758838 0 0  1.674965418777374 0 0  1.765729001825544 0 0  1.859776908880082 0 0  1.957227977487062 0 0  2.058205329869943 0 0  2.162836591189951 0 0  2.271253957290865 0 0  2.383594446803425 0 0  2.5 0.1024999999997612 0  2.5 0.2049999999994743 0  2.5 0.3074999999997183 0  2.383594446803656 0.41 0  2.271253957291315 0.41 0  2.162836591190598 0.41 0  2.058205329870775 0.41 0  1.957227977488067 0.41 0  1.859776908881246 0.41 0  1.765729001826854 0.41 0  1.674965418778818 0.41 0  1.58737143976041 0.41 0  1.502836389107956 0.41 0  1.421253448505726 0.41 0  1.342519516048286 0.41 0  1.266535089881505 0.41 0  1.193204177143353 0.41 0  1.122434100544716 0.41 0  1.05413544556068 0.41 0  0.9882218810956305 0.41 0  0.9246101326886647 0.41 0  0.8632198139519631 0.41 0  0.8039733463934788 0.41 0  0.7467958595662458 0.41 0  0.6916151138480078 0.41 0  0.6383613676644679 0.41 0  0.5869673343225223 0.41 0  0.5373680609412221 0.41 0  0.4895008759292634 0.41 0  0.4433053055145528 0.41 0  0.3987229542475914 0.41 0  0.3556974926297398 0.41 0  0.3141745521466497 0.41 0  0.2741016576310038 0.41 0  0.2354281840915826 0.41 0  0.1981052433265003 0.41 0  0.1620856860352591 0.41 0  0.1273239957535623 0.41 0  0.09377624077128965 0.41 0  0.06140001986584975 0.41 0  0.03015443760436654 0.41 0  0.2497468076502589 0.2050254481002335 0  0.2497468076502614 0.1949745518997913 0  0.2469965252529372 0.1829317073451959 0  0.2439893735792749 0.1762316384219906 0  0.2400332147834255 0.1700443375285386 0  0.2352133972704371 0.1645032867342007 0  0.2296339016332438 0.1597280261969788 0  0.2234150974217223 0.1558215752574715 0  0.2166911463437691 0.1528682099456123 0  0.2096071079204251 0.1509316448471593 0  0.2023158100364996 0.1500536585536553 0  0.194974551899914 0.1502531923497262 0  0.1877417105387872 0.1515259415822739 0  0.1807733240461124 0.153844448527136 0  0.1742197252835808 0.15715869474974 0  0.1682222986673531 0.1613971801805478 0  0.162910430003803 0.1664684656256651 0  0.1583987151779087 0.1722631454351573 0  0.1547844879126891 0.178656207771761 0  0.1521457199348551 0.1855097315605723 0  0.1505393388476355 0.1926758619366523 0  0.1505393388476328 0.2073241380633295 0  0.1521457199348437 0.2144902684393899 0  0.1547844879126531 0.221343792228163 0  0.1583987151778488 0.2277368545647528 0  0.1629104300036858 0.2335315343742052 0  0.1682222986671726 0.2386028198193036 0  0.1742197252833576 0.2428413052501257 0  0.1807733240458683 0.2461555514727623 0  0.1877417105384929 0.2484740584176516 0  0.1949745518995776 0.2497468076502398 0  0.202315810036185 0.2499463414463592 0  0.2096071079201568 0.2490683551528932 0  0.2166911463435495 0.2471317900544655 0  0.2234150974215506 0.2441784247426195 0  0.2296339016331197 0.2402719738031125 0  0.2352133972703547 0.2354967132658811 0  0.2400332147833751 0.2299556624715287 0  0.2439893735792577 0.2237683615780412 0  0.246996525252926 0.2170682926548348 0  0.25645809709277 0.21 0  0.2639263993298655 0.21 0  0.271394701566961 0.21 0  0.2788630038040554 0.21 0  0.2863313060411479 0.21 0  0.2937996082782405 0.21 0  0.301267910515333 0.21 0  0.3087362127524279 0.21 0  0.3162045149895234 0.21 0  0.3236728172265972 0.21 0  0.3311411194636928 0.21 0  0.3386094217007701 0.21 0  0.3460777239378666 0.21 0  0.3535460261749672 0.21 0  0.3610143284120516 0.21 0  0.3684826306491596 0.21 0  0.3759509328862226 0.21 0  0.383419235123329 0.21 0  0.3908875373604028 0.21 0  0.3983558395975142 0.21 0  0.4058241418345938 0.21 0  0.4132924440716992 0.21 0  0.4207607463087888 0.21 0  0.4282290485459029 0.21 0  0.4356973507830418 0.21 0  0.4431656530201649 0.21 0  0.4506339552573136 0.21 0  0.4581022574944306 0.21 0  0.4655705597315852 0.21 0  0.4730388619686996 0.21 0  0.480507164205851 0.21 0  0.4879754664429498 0.21 0  0.4954437686800938 0.21 0  0.502912070917267 0.21 0  0.5103803731544119 0.21 0  0.5178486753915261 0.21 0  0.5253169776286404 0.21 0  0.5327852798657868 0.21 0  0.5402535821029386 0.21 0  0.54772188434007 0.21 0  0.5551901865771842 0.21 0  0.5626584888143201 0.21 0  0.5701267910514778 0.21 0  0.5775950932886138 0.21 0  0.5850633955257281 0.21 0  0.5925316977628483 0.21 0  0.6 0.2050000000000054 0  0.6 0.1950000000000217 0  0.5925316977628897 0.19 0  0.5850633955257988 0.19 0  0.5775950932887378 0.19 0  0.5701267910515998 0.19 0  0.5626584888145268 0.19 0  0.5551901865773963 0.19 0  0.547721884340339 0.19 0  0.5402535821032429 0.19 0  0.5327852798661811 0.19 0  0.5253169776290537 0.19 0  0.5178486753919799 0.19 0  0.5103803731549078 0.19 0  0.502912070917822 0.19 0  0.4954437686807294 0.19 0  0.4879754664436223 0.19 0  0.4805071642065402 0.19 0  0.4730388619694271 0.19 0  0.4655705597323621 0.19 0  0.4581022574952563 0.19 0  0.4506339552581777 0.19 0  0.4431656530210671 0.19 0  0.4356973507839815 0.19 0  0.4282290485468779 0.19 0  0.4207607463097617 0.19 0  0.4132924440726327 0.19 0  0.4058241418354857 0.19 0  0.3983558395983636 0.19 0  0.3908875373612097 0.19 0  0.3834192351240934 0.19 0  0.3759509328869369 0.19 0  0.3684826306498175 0.19 0  0.361014328412667 0.19 0  0.3535460261755617 0.19 0  0.3460777239384295 0.19 0  0.3386094217012945 0.19 0  0.3311411194641595 0.19 0  0.3236728172270245 0.19 0  0.3162045149898895 0.19 0  0.3087362127527544 0.19 0  0.3012679105156187 0.19 0  0.2937996082784807 0.19 0  0.2863313060413428 0.19 0  0.2788630038042048 0.19 0  0.2713947015670686 0.19 0  0.2639263993299336 0.19 0  0.2564580970927985 0.19 0  0.2607803159922026 0.2000727136295815 0  0.5887803774232762 0.2001272386983733 0  0.5745072403740523 0.2002044435018727 0  0.5511891430099709 0.2001122610077113 0  0.2751288526855082 0.20000000000002 0  0.5365194309847112 0.1999999999999436 0  0.2894621222999649 0.1998691686390484 0  0.5215828265105155 0.1999999999999228 0  0.3127789816668748 0.1998657885438805 0  0.3274069683451451 0.2000000000000796 0  0.5066462220363641 0.199999999999908 0  0.3650630746574081 0.199866017807523 0  0.476773013087985 0.1999999999998713 0  0.3417402379596385 0.1998691686391011 0  0.3796850840047755 0.200000000000134 0  0.4618364086138087 0.1999999999998546 0  0.4917096175621762 0.1999999999998808 0  0.3946216884789568 0.2000000000001512 0  0.446899804139621 0.1999999999998389 0  0.4089549580935208 0.1998691686391595 0  0.4322718174608562 0.200127451265745 0  0.4201487168029707 0.1999966199048527 0  0.3528922713220932 0.2000185703532356 0  0.5633122436674589 0.1999814296467508 0  0.3006558810093873 0.1999966199048318 0  0.5815926498168407 0.1966545283159175 0  0.2677053789419034 0.1964246479135325 0  0.5290511287476175 0.1970915826863981 0  0.5439877332217911 0.197091582686394 0  0.2825131256993216 0.2035478995978015 0  0.3199386661080599 0.202908417313604 0  0.4842413153250809 0.1970915826863873 0  0.5141145242734466 0.1970915826863843 0  0.3722167817676917 0.2029084173136195 0  0.4693047108508938 0.1970915826863783 0  0.3348752705822316 0.202908417313609 0  0.3871533862418661 0.2029084173136212 0  0.4543681063767183 0.1970915826863795 0  0.4991779197992749 0.1970915826863902 0  0.4020059614928624 0.203547899597858 0  0.4394315019025246 0.1970915826863714 0  0.2550657455369551 0.2034088125358657 0  0.2548908499171161 0.1966940311614271 0  0.5946539510196798 0.2024302972968126 0  0.267698176732111 0.2039977513680092 0  0.4261685417851465 0.196409292431739 0  0.3590076176283495 0.196411355804271 0  0.5571672426447437 0.2036011176410121 0  0.3066757059912147 0.1964092924317024 0  0.594380730180568 0.1966558399668133 0  0.4842413153245942 0.2040749161535287 0  0.4693047108503577 0.2040749161535231 0  0.3871533862424271 0.1959250838464788 0  0.372246743208829 0.1959123236376545 0  0.5141145242731028 0.2040749161535395 0  0.4543681063761134 0.2040749161535186 0  0.4019979587101454 0.1959834479682427 0  0.4394608940728603 0.2040870543693135 0  0.5439623148931173 0.2040856076781014 0  0.5290511287473298 0.2040749161535501 0  0.4991779197988497 0.2040749161535382 0  0.3347912413592433 0.1959225448935183 0  0.3199680582793816 0.1959123018030061 0  0.2825051229162361 0.1959834479681729 0  0.3590471196690275 0.2036304442587945 0  0.5571594006495384 0.1963685282145804 0  0.3067669986803285 0.203627750582736 0  0.4262598344738712 0.2036568242185335 0  0.5814408164431408 0.2041285596160068 0  0.5688286748170428 0.1961819304477386 0  0.4145905603063645 0.2038180695522843 0  0.3473758401724931 0.2038180695522752 0  0.2950977245128307 0.2038180695522663 0  0.5688286748170693 0.203818069552238 0  0.2950977245127906 0.1961819304477774 0  0.3473758401723931 0.1961819304478349 0  0.4145905603061963 0.1961819304479011 0  0.2601812407614425 0.2056861609747042
[...]
<PointData  Vectors="f_46-0"> 
<DataArray  type="Float64"  Name="f_46-0"  NumberOfComponents="3" format="ascii">0.0000000000000000e+00 0.0000000000000000e+00 0.0000000000000000e+00  0.0000000000000000e+00 0.0000000000000000e+00 0.0000000000000000e+00  0.0000000000000000e+00 0.0000000000000000e+00 0.0000000000000000e+00  0.0000000000000000e+00 0.0000000000000000e+00 0.0000000000000000e+00  -5.2970535617714158e-05 -6.6792668264082702e-06 0.0000000000000000e+00  -5.1592212970682570e-05 -1.5764574232302005e-05 0.0000000000000000e+00  0.0000000000000000e+00 0.0000000000000000e+00 0.0000000000000000e+00  0.0000000000000000e+00 0.0000000000000000e+00 0.0000000000000000e+00  0.0000000000000000e+00 0.0000000000000000e+00 0.0000000000000000e+00  0.0000000000000000e+00 0.0000000000000000e+00 0.0000000000000000e+00  -5.2636265170119575e-05 -1.1219979578544625e-05 0.0000000000000000e+00  1.2815439665019917e-03 0.0000000000000000e+00 0.0000000000000000e+00  2.3659273227730647e-03 0.0000000000000000e+00 0.0000000000000000e+00  3.2531500688129647e-03 0.0000000000000000e+00 0.0000000000000000e+00  3.9432122046227178e-03 0.0000000000000000e+00 0.0000000000000000e+00  4.4361137302022366e-03 0.0000000000000000e+00 0.0000000000000000e+00  4.7318546455514896e-03 0.0000000000000000e+00 0.0000000000000000e+00  4.8304349506701830e-03 0.0000000000000000e+00 0.0000000000000000e+00  4.7318546455574683e-03 0.0000000000000000e+00 0.0000000000000000e+00  4.4361137302125070e-03 0.0000000000000000e+00 0.0000000000000000e+00  3.9432122046354377e-03 0.0000000000000000e+00 0.0000000000000000e+00  3.2531500688250479e-03 0.0000000000000000e+00 0.0000000000000000e+00  2.3659273227833754e-03 0.0000000000000000e+00 0.0000000000000000e+00  1.2815439665078015e-03 0.0000000000000000e+00 0.0000000000000000e+00  0.0000000000000000e+00 0.0000000000000000e+00 0.0000000000000000e+00  0.0000000000000000e+00 0.0000000000000000e+00 0.0000000000000000e+00  0.0000000000000000e+00 0.0000000000000000e+00 0.0000000000000000e+00  0.0000000000000000e+00 0.0000000000000000e+00 0.0000000000000000e+00  0.0000000000000000e+00 0.0000000000000000e+00 0.0000000000000000e+00  0.0000000000000000e+00 0.0000000000000000e+00 0.0000000000000000e+00  0.0000000000000000e+00 0.0000000000000000e+00 0.0000000000000000e+00  0.0000000000000000e+00 0.0000000000000000e+00 0.0000000000000000e+00  0.0000000000000000e+00 0.0000000000000000e+00 0.0000000000000000e+00  0.0000000000000000e+00 0.0000000000000000e+00 0.0000000000000000e+00  0.0000000000000000e+00 0.0000000000000000e+00 0.0000000000000000e+00  0.0000000000000000e+00 0.0000000000000000e+00 0.0000000000000000e+00  0.0000000000000000e+00 0.0000000000000000e+00 0.0000000000000000e+00  0.0000000000000000e+00 0.0000000000000000e+00 0.0000000000000000e+00  0.0000000000000000e+00 0.0000000000000000e+00 0.0000000000000000e+00  0.0000000000000000e+00 0.0000000000000000e+00 0.0000000000000000e+00  0.0000000000000000e+00 0.0000000000000000e+00 0.0000000000000000e+00  0.0000000000000000e+00 0.0000000000000000e+00 0.0000000000000000e+00  0.0000000000000000e+00 0.0000000000000000e+00 0.0000000000000000e+00  0.0000000000000000e+00 0.0000000000000000e+00 0.0000000000000000e+00  0.0000000000000000e+00 0.0000000000000000e+00 0.0000000000000000e+00  0.0000000000000000e+00 0.0000000000000000e+00 0.0000000000000000e+00  0.0000000000000000e+00 0.0000000000000000e+00 0.0000000000000000e+00  0.0000000000000000e+00 0.0000000000000000e+00 0.0000000000000000e+00  0.0000000000000000e+00 0.0000000000000000e+00 0.0000000000000000e+00  0.0000000000000000e+00 0.0000000000000000e+00 0.0000000000000000e+00  0.0000000000000000e+00 0.0000000000000000e+00 0.0000000000000000e+00  0.0000000000000000e+00 0.0000000000000000e+00 0.0000000000000000e+00  0.0000000000000000e+00 0.0000000000000000e+00 0.0000000000000000e+00  0.0000000000000000e+00 0.0000000000000000e+00 0.0000000000000000e+00  0.0000000000000000e+00 0.0000000000000000e+00 0.0000000000000000e+00  0.0000000000000000e+00 0.0000000000000000e+00 0.0000000000000000e+00  0.0000000000000000e+00 0.0000000000000000e+00 0.0000000000000000e+00  0.0000000000000000e+00 0.0000000000000000e+00 0.0000000000000000e+00  0.0000000000000000e+00 0.0000000000000000e+00 0.0000000000000000e+00  0.0000000000000000e+00 0.0000000000000000e+00 0.0000000000000000e+00  0.0000000000000000e+00 0.0000000000000000e+00 0.0000000000000000e+00  0.0000000000000000e+00 0.0000000000000000e+00 0.0000000000000000e+00  4.7033458162415043e-03 6.4826090589617351e-04 0.0000000000000000e+00  3.3712495289694886e-03 -9.1052700304214177e-05 0.0000000000000000e+00  4.6868988716405819e-03 -5.0476697232619441e-04 0.0000000000000000e+00  0.0000000000000000e+00 0.0000000000000000e+00 0.0000000000000000e+00  0.0000000000000000e+00 0.0000000000000000e+00 0.0000000000000000e+00  0.0000000000000000e+00 0.0000000000000000e+00 0.0000000000000000e+00  0.0000000000000000e+00 0.0000000000000000e+00 0.0000000000000000e+00  0.0000000000000000e+00 0.0000000000000000e+00 0.0000000000000000e+00  0.0000000000000000e+00 0.0000000000000000e+00 0.0000000000000000e+00  0.0000000000000000e+00 0.0000000000000000e+00 0.0000000000000000e+00  0.0000000000000000e+00 0.0000000000000000e+00 0.0000000000000000e+00  0.0000000000000000e+00 0.0000000000000000e+00 0.0000000000000000e+00  0.0000000000000000e+00 0.0000000000000000e+00 0.0000000000000000e+00  0.0000000000000000e+00 0.0000000000000000e+00 0.0000000000000000e+00  0.0000000000000000e+00 0.0000000000000000e+00 0.0000000000000000e+00  0.0000000000000000e+00 0.0000000000000000e+00 0.0000000000000000e+00  0.0000000000000000e+00 0.0000000000000000e+00 0.0000000000000000e+00  0.0000000000000000e+00 0.0000000000000000e+00 0.0000000000000000e+00  0.0000000000000000e+00 0.0000000000000000e+00 0.0000000000000000e+00  0.0000000000000000e+00 0.0000000000000000e+00 0.0000000000000000e+00  0.0000000000000000e+00 0.0000000000000000e+00 0.0000000000000000e+00  0.0000000000000000e+00 0.0000000000000000e+00 0.0000000000000000e+00  0.0000000000000000e+00 0.0000000000000000e+00 0.0000000000000000e+00  0.0000000000000000e+00 0.0000000000000000e+00 0.0000000000000000e+00  0.0000000000000000e+00 0.0000000000000000e+00 0.0000000000000000e+00  0.0000000000000000e+00 0.0000000000000000e+00 0.0000000000000000e+00  0.0000000000000000e+00 0.0000000000000000e+00 0.0000000000000000e+00  0.0000000000000000e+00 0.0000000000000000e+00 0.0000000000000000e+00  0.0000000000000000e+00 0.0000000000000000e+00 0.0000000000000000e+00  0.0000000000000000e+00 0.0000000000000000e+00 0.0000000000000000e+00  0.0000000000000000e+00 0.0000000000000000e+00 0.0000000000000000e+00  0.0000000000000000e+00 0.0000000000000000e+00 0.0000000000000000e+00  0.0000000000000000e+00 0.0000000000000000e+00 0.0000000000000000e+00  0.0000000000000000e+00 0.0000000000000000e+00 0.0000000000000000e+00  0.0000000000000000e+00 0.0000000000000000e+00 0.0000000000000000e+00  0.0000000000000000e+00 0.0000000000000000e+00 0.0000000000000000e+00  0.0000000000000000e+00 0.0000000000000000e+00 0.0000000000000000e+00  0.0000000000000000e+00 0.0000000000000000e+00 0.0000000000000000e+00  0.0000000000000000e+00 0.0000000000000000e+00 0.0000000000000000e+00  0.0000000000000000e+00 0.0000000000000000e+00 0.0000000000000000e+00  0.0000000000000000e+00 0.0000000000000000e+00 0.0000000000000000e+00  0.0000000000000000e+00 0.0000000000000000e+00 0.0000000000000000e+00  0.0000000000000000e+00 0.0000000000000000e+00 0.0000000000000000e+00  -5.0498922462382151e-15 0.0000000000000000e+00 0.0000000000000000e+00  0.0000000000000000e+00 0.0000000000000000e+00 0.0000000000000000e+00  0.0000000000000000e+00 0.0000000000000000e+00 0.0000000000000000e+00  0.0000000000000000e+00 0.0000000000000000e+00 0.0000000000000000e+00  0.0000000000000000e+00 0.0000000000000000e+00 0.0000000000000000e+00  2.8937564385334229e-19 0.0000000000000000e+00 0.0000000000000000e+00  0.0000000000000000e+00 0.0000000000000000e+00 0.0000000000000000e+00  0.0000000000000000e+00 0.0000000000000000e+00 0.0000000000000000e+00  0.0000000000000000e+00 0.0000000000000000e+00 0.0000000000000000e+00  0.0000000000000000e+00 0.0000000000000000e+00 0.0000000000000000e+00  0.0000000000000000e+00 0.0000000000000000e+00 0.0000000000000000e+00  0.0000000000000000e+00 0.0000000000000000e+00 0.0000000000000000e+00  0.0000000000000000e+00 0.0000000000000000e+00 0.0000000000000000e+00  0.0000000000000000e+00 0.0000000000000000e+00 0.0000000000000000e+00  0.0000000000000000e+00 0.0000000000000000e+00 0.0000000000000000e+00  0.0000000000000000e+00 0.0000000000000000e+00 0.0000000000000000e+00  0.0000000000000000e+00 0.0000000000000000e+00 0.0000000000000000e+00  0.0000000000000000e+00 0.0000000000000000e+00 0.0000000000000000e+00  0.0000000000000000e+00 0.0000000000000000e+00 0.0000000000000000e+00  0.0000000000000000e+00 0.0000000000000000e+00 0.0000000000000000e+00  0.0000000000000000e+00 0.0000000000000000e+00 0.0000000000000000e+00  0.0000000000000000e+00 0.0000000000000000e+00 0.0000000000000000e+00  0.0000000000000000e+00 0.0000000000000000e+00 0.0000000000000000e+00  0.0000000000000000e+00 0.0000000000000000e+00 0.0000000000000000e+00  0.0000000000000000e+00 0.0000000000000000e+00 0.0000000000000000e+00  0.0000000000000000e+00 0.0000000000000000e+00 0.0000000000000000e+00  0.0000000000000000e+00 0.0000000000000000e+00 0.0000000000000000e+00  0.0000000000000000e+00 0.0000000000000000e+00 0.0000000000000000e+00  0.0000000000000000e+00 0.0000000000000000e+00 0.0000000000000000e+00  0.0000000000000000e+00 0.0000000000000000e+00 0.0000000000000000e+00  0.0000000000000000e+00 0.0000000000000000e+00 0.0000000000000000e+00  0.0000000000000000e+00 0.0000000000000000e+00 0.0000000000000000e+00  0.0000000000000000e+00 0.0000000000000000e+00 0.0000000000000000e+00  0.0000000000000000e+00 0.0000000000000000e+00 0.0000000000000000e+00  0.0000000000000000e+00 0.0000000000000000e+00 0.0000000000000000e+00  0.0000000000000000e+00 0.0000000000000000e+00 0.0000000000000000e+00  0.0000000000000000e+00 0.0000000000000000e+00 0.0000000000000000e+00  0.0000000000000000e+00 -5.9015212679713269e-15 0.0000000000000000e+00  -5.9329761053099554e-07 -7.6559996341194776e-06 0.0000000000000000e+00  -9.8389778252883064e-07 -8.2111630635386780e-06 0.0000000000000000e+00  -9.9204440368161463e-07 -8.3255178425638659e-06 0.0000000000000000e+00  -8.2549124518339034e-07 -8.1876961917461181e-06 0.0000000000000000e+00  -6.1018093692223199e-07 -8.0486634466331447e-06 0.0000000000000000e+00  -4.6020801270846355e-07 -7.9781377855850576e-06 0.0000000000000000e+00  -3.4980451115242609e-07 -7.9043292228133898e-06 0.0000000000000000e+00  -3.1054709897407004e-07 -7.8365972543890076e-06 0.0000000000000000e+00  -3.1202717360875473e-07 -7.7813722612814646e-06 0.0000000000000000e+00  -3.8293154152591480e-07 -7.7173473073587612e-06 0.0000000000000000e+00  -5.0820855032735468e-07 -7.6926018074193416e-06 0.0000000000000000e+00  -6.9999919831968572e-07 -7.6486677830022453e-06 0.0000000000000000e+00  -9.5840688837831075e-07 -7.6328478532122434e-06 0.0000000000000000e+00  -1.2699682432275133e-06 -7.6325144882381308e-06 0.0000000000000000e+00  -1.6628708521475713e-06 -7.6405838568162772e-06 0.0000000000000000e+00  -2.1000053019131285e-06 -7.6801247090188187e-06 0.0000000000000000e+00  -2.6177152945205226e-06 -7.7059794490351924e-06 0.0000000000000000e+00  -3.1979817687980097e-06 -7.7899816933487611e-06 0.0000000000000000e+00  -3.8521120915664514e-06 -7.8490819123168161e-06 0.0000000000000000e+00  -4.5675300817218187e-06 -7.9680515230442020e-06 0.0000000000000000e+00  -5.3585945797020334e-06 -8.0637571453985430e-06 0.0000000000000000e+00  -6.2278829956902357e-06 -8.1990356045654019e-06 0.0000000000000000e+00  -7.1511680480399498e-06 -8.3496808977923446e-06 0.0000000000000000e+00  -8.1626173827640993e-06 -8.5068477178073713e-06 0.0000000000000000e+00  -9.2235752854765298e-06 -8.6975507133133749e-06 0.0000000000000000e+00  -1.0371941461448439e-05 -8.8679453742935409e-06 0.0000000000000000e+00  -1.1595261165296805e-05 -9.1009767947865125e-06 0.0000000000000000e+00  -1.2890265182155028e-05 -9.2987624264012129e-06 0.0000000000000000e+00  -1.4261111988029359e-05 -9.5522623826460745e-06 0.0000000000000000e+00  -1.5703508405434107e-05 -9.7785557557940599e-06 0.0000000000000000e+00  -1.7219744095665752e-05 -1.0054699446821539e-05 0.0000000000000000e+00  -1.8812791972974589e-05 -1.0303000323927160e-05 0.0000000000000000e+00  -2.0473557186751909e-05 -1.0604064147047233e-05 0.0000000000000000e+00  -2.2215144816978609e-05 -1.0866063946047876e-05 0.0000000000000000e+00  -2.4036407514285969e-05 -1.1188499525664785e-05 0.0000000000000000e+00  -2.5929683538921786e-05 -1.1478517968515859e-05 0.0000000000000000e+00  -2.7896103963181927e-05 -1.1821245714161624e-05 0.0000000000000000e+00  -2.9937773390260391e-05 -1.2131807921287839e-05 0.0000000000000000e+00  -3.2057773910993018e-05 -1.2491938569062792e-05 0.0000000000000000e+00  -3.4258822245704232e-05 -1.2822352935452951e-05 0.0000000000000000e+00  -3.6544480796924763e-05 -1.3187204895533289e-05 0.0000000000000000e+00  -3.8891885092913258e-05 -1.3544321148563324e-05 0.0000000000000000e+00  -4.1337154430041401e-05 -1.3917435240207686e-05 0.0000000000000000e+00  -4.3828917169394036e-05 -1.4294592546952439e-05 0.0000000000000000e+00  -4.6409260275925957e-05 -1.4658265898035602e-05 0.0000000000000000e+00  -4.9022028741754520e-05 -1.5082390577068603e-05 0.0000000000000000e+00  -5.2246458796412449e-05 -1.3490972426893367e-05 0.0000000000000000e+00  -5.2914952906024001e-05 -8.9528267524850675e-06 0.0000000000000000e+00  -5.0375128966471540e-05 -6.3454193751206860e-06 0.0000000000000000e+00  -4.7732603982507647e-05 -5.7606152350647123e-06 0.0000000000000000e+00  -4.5129348300885964e-05 -5.1470845535361884e-06 0.0000000000000000e+00  -4.2609976648688014e-05 -4.5629079872731853e-06 0.0000000000000000e+00  -4.0142207398090289e-05 -3.9863498015134214e-06 0.0000000000000000e+00  -3.7774437852968348e-05 -3.4202269574055180e-06 0.0000000000000000e+00  -3.5464501755274358e-05 -2.8715069917805040e-06 0.0000000000000000e+00  -3.3243229745240871e-05 -2.3127521994786423e-06 0.0000000000000000e+00  -3.1093237841683172e-05 -1.7975428231384308e-06 0.0000000000000000e+00  -2.9023089071812121e-05 -1.2523538447150143e-06 0.0000000000000000e+00  -2.7026030352563872e-05 -7.5624998372166583e-07 0.0000000000000000e+00  -2.5108925212562208e-05 -2.3355688727316158e-07 0.0000000000000000e+00  -2.3263427611383352e-05 2.3848576647004374e-07 0.0000000000000000e+00  -2.1494886121131456e-05 7.3710912613724916e-07 0.0000000000000000e+00  -1.9795572400596393e-05 1.1865212291076880e-06 0.0000000000000000e+00  -1.8174340636326274e-05 1.6635225530997227e-06 0.0000000000000000e+00  -1.6623685923318236e-05 2.0917374023730212e-06 0.0000000000000000e+00  -1.5151347170347149e-05 2.5451368282019464e-06 0.0000000000000000e+00  -1.3747541764596852e-05 2.9460563627735380e-06 0.0000000000000000e+00  -1.2418868856115658e-05 3.3705347864873615e-06 0.0000000000000000e+00  -1.1156479305944673e-05 3.7442621728629575e-06 0.0000000000000000e+00  -9.9702541084971033e-06 4.1391837247199381e-06 0.0000000000000000e+00  -8.8597549899340617e-06 4.4972363402259918e-06 0.0000000000000000e+00  -7.8083524133905979e-06 4.8472286076231021e-06 0.0000000000000000e+00  -6.8457701470633352e-06 5.1771254026873033e-06 0.0000000000000000e+00  -5.9254113464250313e-06 5.4835612933848930e-06 0.0000000000000000e+00  -5.0897051353621399e-06 5.7943922462548027e-06 0.0000000000000000e+00  -4.3192460134749492e-06 6.0471971615232898e-06 0.0000000000000000e+00  -3.6219122363030255e-06 6.3274938683866292e-06 0.0000000000000000e+00  -2.9935994161705264e-06 6.5430302595544276e-06 0.0000000000000000e+00  -2.4353861159769315e-06 6.7838357995313591e-06 0.0000000000000000e+00  -1.9510467994287453e-06 6.9739369492325024e-06 0.0000000000000000e+00  -1.5185395529105378e-06 7.1662647201104212e-06 0.0000000000000000e+00  -1.1687363083487880e-06 7.3313522504994716e-06 0.0000000000000000e+00  -8.6299891018382807e-07 7.4837849576433925e-06 0.0000000000000000e+00  -6.3684491818881304e-07 7.6316325656923861e-06 0.0000000000000000e+00  -4.7533696312580680e-07 7.7330648404543765e-06 0.0000000000000000e+00  -3.7853563028287727e-07 7.8543175912129834e-06 0.0000000000000000e+00  -3.5058335366715533e-07 7.9434864687327808e-06 0.0000000000000000e+00  -3.6913348558708157e-07 8.0301637641102482e-06 0.0000000000000000e+00  -4.6136732329677031e-07 8.1048478550985179e-06 0.0000000000000000e+00  -5.9078063750581460e-07 8.1646788872258039e-06 0.0000000000000000e+00  -7.9495321630082738e-07 8.2850024305421765e-06 0.0000000000000000e+00  -9.4616418676602964e-07 8.3786671936671865e-06 0.0000000000000000e+00  -9.5113544824014934e-07 8.2257184293813153e-06 0.0000000000000000e+00  -6.0302760962488985e-07 7.6177050714116659e-06 0.0000000000000000e+00  -2.2761911167457925e-06 -5.0014586986582024e-08 0.0000000000000000e+00  -4.8494090126533793e-05 -1.0506914722595729e-05 0.0000000000000000e+00  -4.3442185525950941e-05 -9.6071995988815171e-06 0.0000000000000000e+00  -3.5933057848271335e-05 -8.1073722214646310e-06 0.0000000000000000e+00  -9.4689167314408947e-07 3.5536802626008367e-08 0.0000000000000000e+00  -3.1606761670857349e-05 -7.1750939843685020e-06 0.0000000000000000e+00  -5.4768561163650298e-07 1.7199256687271277e-07 0.0000000000000000e+00  -2.7491134960613674e-05 -6.3188769857241171e-06 0.0000000000000000e+00  -3.5474800760310868e-07 1.5707622637779019e-07 0.0000000000000000e+00  -5.2702611659952915e-07 -1.8706535806101832e-09 0.0000000000000000e+00  -2.3678912907463419e-05 -5.5057029463421581e-06 0.0000000000000000e+00  -2.0733646649465950e-06 -2.8532757781797281e-07 0.0000000000000000e+00  -1.6954026359531810e-05 -4.0102265061926928e-06 0.0000000000000000e+00  -9.1592894214276555e-07 1.7248874239630740e-10 0.0000000000000000e+00  -3.1334522356831810e-06 -6.4338579552181336e-07 0.0000000000000000e+00  -1.4035921439909339e-05 -3.3309668654919321e-06 0.0000000000000000e+00  -2.0167248871893805e-05 -4.7357328653652884e-06 0.0000000000000000e+00  -4.4803163205509433e-06 -9.7895020525171063e-07 0.0000000000000000e+00  -1.1410233810151474e-05 -2.7032285685041774e-06 0.0000000000000000e+00  -6.0325078660115576e-06 -1.2798840099802542e-06 0.0000000000000000e+00  -9.1084122183065437e-06 -2.2232192570333617e-06 0.0000000000000000e+00  -7.4450541730843592e-06 -1.7210696060744946e-06 0.0000000000000000e+00  -1.4078152791924547e-06 -2.3164061414963097e-07 0.0000000000000000e+00  -3.9776284072297071e-05 -8.7937764825399009e-06 0.0000000000000000e+00  -4.0624844881352513e-07 6.9259333908599354e-08 0.0000000000000000e+00  -4.6135787285719911e-05 -8.4797807273150164e-06 0.0000000000000000e+00  -1.4042249615248877e-06 3.1384068746080494e-06 0.0000000000000000e+00  -2.9679118641682238e-05 -5.2232303524891423e-06 0.0000000000000000e+00  -3.3954429936835903e-05 -6.1542268612080451e-06 0.0000000000000000e+00  -7.2156194959480637e-07 -2.8405081753012412e-06 0.0000000000000000e+00  -4.0134302248753583e-07 -2.2301047767146730e-06 0.0000000000000000e+00  -1.8666946743153225e-05 -2.6812077277157272e-06 0.0000000000000000e+00  -2.5707722838836462e-05 -4.3314151991716177e-06 0.0000000000000000e+00  -2.5105176612568563e-06 -2.5904018968624298e-06 0.0000000000000000e+00  -1.5592183188686414e-05 -1.9226358920764813e-06 0.0000000000000000e+00  -6.8236304683701817e-07 -2.2626472732261608e-06 0.0000000000000000e+00  -3.7108217073996769e-06 -2.8413698086341877e-06 0.0000000000000000e+00  -1.2811408277579657e-05 -1.2143589981020125e-06 0.0000000000000000e+00  -2.2038573544507590e-05 -3.4840846092664399e-06 0.0000000000000000e+00  -5.1534244018268850e-06 -3.5985238730633793e-06 0.0000000000000000e+00  -1.0318412030461923e-05 -5.6045638729101368e-07 0.0000000000000000e+00  -1.9974479512618349e-06 -1.8392472723569590e-06 0.0000000000000000e+00  -1.9554093276469511e-06 1.6546549425971113e-06 0.0000000000000000e+00  -5.0499563233455032e-05 -1.1918186476152164e-