<?xml version="1.0"?>
<VTKFile type="UnstructuredGrid"  version="0.1"  >
<UnstructuredGrid>
<Piece  NumberOfPoints="1419" NumberOfCells="2698">
<Points>
<DataArray  type="Float64"  NumberOfComponents="3"  format="ascii">0 0 0  0 0.41 0  2.5 0 0  2.5 0.41 0  0.6 0.19 0  0.6 0.21 0  0.25 0.2 0  0.15 0.2 0  0.2489897948556636 0.21 0  0.2489897948556636 0.19 0  0.6 0.2 0  0 0.3807142857143437 0  0 0.3514285714286952 0  0 0.3221428571430699 0  0 0.29285714285744 0  0 0.2635714285718054 0  0 0.2342857142861561 0  0 0.2050000000005308 0  0 0.175714285714732 0  0 0.1464285714289574 0  0 0.1171428571431897 0  0 0.08785714285737878 0  0 0.05857142857161107 0  0 0.02928571428580012 0  0.03015443760436003 0 0  0.06140001986583606 0 0  0.09377624077125973 0 0  0.1273239957535082 0 0  0.1620856860351972 0 0  0.1981052433264291 0 0  0.235428184091502 0 0  0.2741016576309132 0 0  0.3141745521465447 0 0  0.3556974926295285 0 0  0.3987229542472677 0 0  0.4433053055141081 0 0  0.4895008759286886 0 0  0.5373680609405097 0 0  0.5869673343216626 0 0  0.6383613676634521 0 0  0.6916151138468254 0 0  0.7467958595648856 0 0  0.8039733463919316 0 0  0.8632198139502143 0 0  0.9246101326867038 0 0  0.9882218810934433 0 0  1.054135445558498 0 0  1.122434100542598 0 0  1.193204177141305 0 0  1.266535089879536 0 0  1.342519516046404 0 0  1.421253448503939 0 0  1.502836389106271 0 0  1.587371439758838 0 0  1.674965418777374 0 0  1.765729001825544 0 0  1.859776908880082 0 0  1.957227977487062 0 0  2.058205329869943 0 0  2.162836591189951 0 0  2.271253957290865 0 0  2.383594446803425 0 0  2.5 0.1024999999997612 0  2.5 0.2049999999994743 0  2.5 0.3074999999997183 0  2.383594446803656 0.41 0  2.271253957291315 0.41 0  2.162836591190598 0.41 0  2.058205329870775 0.41 0  1.957227977488067 0.41 0  1.859776908881246 0.41 0  1.765729001826854 0.41 0  1.674965418778818 0.41 0  1.58737143976041 0.41 0  1.502836389107956 0.41 0  1.421253448505726 0.41 0  1.342519516048286 0.41 0  1.266535089881505 0.41 0  1.193204177143353 0.41 0  1.122434100544716 0.41 0  1.05413544556068 0.41 0  0.9882218810956305 0.41 0  0.9246101326886647 0.41 0  0.8632198139519631 0.41 0  0.8039733463934788 0.41 0  0.7467958595662458 0.41 0  0.6916151138480078 0.41 0  0.6383613676644679 0.41 0  0.5869673343225223 0.41 0  0.5373680609412221 0.41 0  0.4895008759292634 0.41 0  0.4433053055145528 0.41 0  0.3987229542475914 0.41 0  0.3556974926297398 0.41 0  0.3141745521466497 0.41 0  0.2741016576310038 0.41 0  0.2354281840915826 0.41 0  0.1981052433265003 0.41 0  0.1620856860352591 0.41 0  0.1273239957535623 0.41 0  0.09377624077128965 0.41 0  0.06140001986584975 0.41 0  0.03015443760436654 0.41 0  0.2497468076502589 0.2050254481002335 0  0.2497468076502614 0.1949745518997913 0  0.2469965252529372 0.1829317073451959 0  0.2439893735792749 0.1762316384219906 0  0.2400332147834255 0.1700443375285386 0  0.2352133972704371 0.1645032867342007 0  0.2296339016332438 0.1597280261969788 0  0.2234150974217223 0.1558215752574715 0  0.2166911463437691 0.1528682099456123 0  0.2096071079204251 0.1509316448471593 0  0.2023158100364996 0.1500536585536553 0  0.194974551899914 0.1502531923497262 0  0.1877417105387872 0.1515259415822739 0  0.1807733240461124 0.153844448527136 0  0.1742197252835808 0.15715869474974 0  0.1682222986673531 0.1613971801805478 0  0.162910430003803 0.1664684656256651 0  0.1583987151779087 0.1722631454351573 0  0.1547844879126891 0.178656207771761 0  0.1521457199348551 0.1855097315605723 0  0.1505393388476355 0.1926758619366523 0  0.1505393388476328 0.2073241380633295 0  0.1521457199348437 0.2144902684393899 0  0.1547844879126531 0.221343792228163 0  0.1583987151778488 0.2277368545647528 0  0.1629104300036858 0.2335315343742052 0  0.1682222986671726 0.2386028198193036 0  0.1742197252833576 0.2428413052501257 0  0.1807733240458683 0.2461555514727623 0  0.1877417105384929 0.2484740584176516 0  0.1949745518995776 0.2497468076502398 0  0.202315810036185 0.2499463414463592 0  0.2096071079201568 0.2490683551528932 0  0.2166911463435495 0.2471317900544655 0  0.2234150974215506 0.2441784247426195 0  0.2296339016331197 0.2402719738031125 0  0.2352133972703547 0.2354967132658811 0  0.2400332147833751 0.2299556624715287 0  0.2439893735792577 0.2237683615780412 0  0.246996525252926 0.2170682926548348 0  0.25645809709277 0.21 0  0.2639263993298655 0.21 0  0.271394701566961 0.21 0  0.2788630038040554 0.21 0  0.2863313060411479 0.21 0  0.2937996082782405 0.21 0  0.301267910515333 0.21 0  0.3087362127524279 0.21 0  0.3162045149895234 0.21 0  0.3236728172265972 0.21 0  0.3311411194636928 0.21 0  0.3386094217007701 0.21 0  0.3460777239378666 0.21 0  0.3535460261749672 0.21 0  0.3610143284120516 0.21 0  0.3684826306491596 0.21 0  0.3759509328862226 0.21 0  0.383419235123329 0.21 0  0.3908875373604028 0.21 0  0.3983558395975142 0.21 0  0.4058241418345938 0.21 0  0.4132924440716992 0.21 0  0.4207607463087888 0.21 0  0.4282290485459029 0.21 0  0.4356973507830418 0.21 0  0.4431656530201649 0.21 0  0.4506339552573136 0.21 0  0.4581022574944306 0.21 0  0.4655705597315852 0.21 0  0.4730388619686996 0.21 0  0.480507164205851 0.21 0  0.4879754664429498 0.21 0  0.4954437686800938 0.21 0  0.502912070917267 0.21 0  0.5103803731544119 0.21 0  0.5178486753915261 0.21 0  0.5253169776286404 0.21 0  0.5327852798657868 0.21 0  0.5402535821029386 0.21 0  0.54772188434007 0.21 0  0.5551901865771842 0.21 0  0.5626584888143201 0.21 0  0.5701267910514778 0.21 0  0.5775950932886138 0.21 0  0.5850633955257281 0.21 0  0.5925316977628483 0.21 0  0.6 0.2050000000000054 0  0.6 0.1950000000000217 0  0.5925316977628897 0.19 0  0.5850633955257988 0.19 0  0.5775950932887378 0.19 0  0.5701267910515998 0.19 0  0.5626584888145268 0.19 0  0.5551901865773963 0.19 0  0.547721884340339 0.19 0  0.5402535821032429 0.19 0  0.5327852798661811 0.19 0  0.5253169776290537 0.19 0  0.5178486753919799 0.19 0  0.5103803731549078 0.19 0  0.502912070917822 0.19 0  0.4954437686807294 0.19 0  0.4879754664436223 0.19 0  0.4805071642065402 0.19 0  0.4730388619694271 0.19 0  0.4655705597323621 0.19 0  0.4581022574952563 0.19 0  0.4506339552581777 0.19 0  0.4431656530210671 0.19 0  0.4356973507839815 0.19 0  0.4282290485468779 0.19 0  0.4207607463097617 0.19 0  0.4132924440726327 0.19 0  0.4058241418354857 0.19 0  0.3983558395983636 0.19 0  0.3908875373612097 0.19 0  0.3834192351240934 0.19 0  0.3759509328869369 0.19 0  0.3684826306498175 0.19 0  0.361014328412667 0.19 0  0.3535460261755617 0.19 0  0.3460777239384295 0.19 0  0.3386094217012945 0.19 0  0.3311411194641595 0.19 0  0.3236728172270245 0.19 0  0.3162045149898895 0.19 0  0.3087362127527544 0.19 0  0.3012679105156187 0.19 0  0.2937996082784807 0.19 0  0.2863313060413428 0.19 0  0.2788630038042048 0.19 0  0.2713947015670686 0.19 0  0.2639263993299336 0.19 0  0.2564580970927985 0.19 0  0.2607803159922026 0.2000727136295815 0  0.5887803774232762 0.2001272386983733 0  0.5745072403740523 0.2002044435018727 0  0.5511891430099709 0.2001122610077113 0  0.2751288526855082 0.20000000000002 0  0.5365194309847112 0.1999999999999436 0  0.2894621222999649 0.1998691686390484 0  0.5215828265105155 0.1999999999999228 0  0.3127789816668748 0.1998657885438805 0  0.3274069683451451 0.2000000000000796 0  0.5066462220363641 0.199999999999908 0  0.3650630746574081 0.199866017807523 0  0.476773013087985 0.1999999999998713 0  0.3417402379596385 0.1998691686391011 0  0.3796850840047755 0.200000000000134 0  0.4618364086138087 0.1999999999998546 0  0.4917096175621762 0.1999999999998808 0  0.3946216884789568 0.2000000000001512 0  0.446899804139621 0.1999999999998389 0  0.4089549580935208 0.1998691686391595 0  0.4322718174608562 0.200127451265745 0  0.4201487168029707 0.1999966199048527 0  0.3528922713220932 0.2000185703532356 0  0.5633122436674589 0.1999814296467508 0  0.3006558810093873 0.1999966199048318 0  0.5815926498168407 0.1966545283159175 0  0.2677053789419034 0.1964246479135325 0  0.5290511287476175 0.1970915826863981 0  0.5439877332217911 0.197091582686394 0  0.2825131256993216 0.2035478995978015 0  0.3199386661080599 0.202908417313604 0  0.4842413153250809 0.1970915826863873 0  0.5141145242734466 0.1970915826863843 0  0.3722167817676917 0.2029084173136195 0  0.4693047108508938 0.1970915826863783 0  0.3348752705822316 0.202908417313609 0  0.3871533862418661 0.2029084173136212 0  0.4543681063767183 0.1970915826863795 0  0.4991779197992749 0.1970915826863902 0  0.4020059614928624 0.203547899597858 0  0.4394315019025246 0.1970915826863714 0  0.2550657455369551 0.2034088125358657 0  0.2548908499171161 0.1966940311614271 0  0.5946539510196798 0.2024302972968126 0  0.267698176732111 0.2039977513680092 0  0.4261685417851465 0.196409292431739 0  0.3590076176283495 0.196411355804271 0  0.5571672426447437 0.2036011176410121 0  0.3066757059912147 0.1964092924317024 0  0.594380730180568 0.1966558399668133 0  0.4842413153245942 0.2040749161535287 0  0.4693047108503577 0.2040749161535231 0  0.3871533862424271 0.1959250838464788 0  0.372246743208829 0.1959123236376545 0  0.5141145242731028 0.2040749161535395 0  0.4543681063761134 0.2040749161535186 0  0.4019979587101454 0.1959834479682427 0  0.4394608940728603 0.2040870543693135 0  0.5439623148931173 0.2040856076781014 0  0.5290511287473298 0.2040749161535501 0  0.4991779197988497 0.2040749161535382 0  0.3347912413592433 0.1959225448935183 0  0.3199680582793816 0.1959123018030061 0  0.2825051229162361 0.1959834479681729 0  0.3590471196690275 0.2036304442587945 0  0.5571594006495384 0.1963685282145804 0  0.3067669986803285 0.203627750582736 0  0.4262598344738712 0.2036568242185335 0  0.5814408164431408 0.2041285596160068 0  0.5688286748170428 0.1961819304477386 0  0.4145905603063645 0.2038180695522843 0  0.3473758401724931 0.2038180695522752 0  0.2950977245128307 0.2038180695522663 0  0.5688286748170693 0.203818069552238 0  0.2950977245127906 0.1961819304477774 0  0.3473758401723931 0.1961819304478349 0  0.4145905603061963 0.1961819304479011 0  0.2601812407614425 0.2056861609747042
[...]
<PointData  Vectors="f_46-0"> 
<DataArray  type="Float64"  Name="f_46-0"  NumberOfComponents="3" format="ascii">0.0000000000000000e+00 0.0000000000000000e+00 0.0000000000000000e+00  0.0000000000000000e+00 0.0000000000000000e+00 0.0000000000000000e+00  0.0000000000000000e+00 0.0000000000000000e+00 0.0000000000000000e+00  0.0000000000000000e+00 0.0000000000000000e+00 0.0000000000000000e+00  7.3325920918820037e-05 -4.1894927300359733e-04 0.0000000000000000e+00  1.0575031560711986e-04 -4.1606302192268311e-04 0.0000000000000000e+00  0.0000000000000000e+00 0.0000000000000000e+00 0.0000000000000000e+00  0.0000000000000000e+00 0.0000000000000000e+00 0.0000000000000000e+00  0.0000000000000000e+00 0.0000000000000000e+00 0.0000000000000000e+00  0.0000000000000000e+00 0.0000000000000000e+00 0.0000000000000000e+00  8.9166887700019577e-05 -4.1750515730462070e-04 0.0000000000000000e+00  5.7191341733963265e-02 0.0000000000000000e+00 0.0000000000000000e+00  1.0558401550886226e-01 0.0000000000000000e+00 0.0000000000000000e+00  1.4517802132468566e-01 0.0000000000000000e+00 0.0000000000000000e+00  1.7597335918147922e-01 0.0000000000000000e+00 0.0000000000000000e+00  1.9797002907923905e-01 0.0000000000000000e+00 0.0000000000000000e+00  2.1116803101796372e-01 0.0000000000000000e+00 0.0000000000000000e+00  2.1556736499764015e-01 0.0000000000000000e+00 0.0000000000000000e+00  2.1116803101823056e-01 0.0000000000000000e+00 0.0000000000000000e+00  1.9797002907969735e-01 0.0000000000000000e+00 0.0000000000000000e+00  1.7597335918204685e-01 0.0000000000000000e+00 0.0000000000000000e+00  1.4517802132522484e-01 0.0000000000000000e+00 0.0000000000000000e+00  1.0558401550932241e-01 0.0000000000000000e+00 0.0000000000000000e+00  5.7191341734222530e-02 0.0000000000000000e+00 0.0000000000000000e+00  0.0000000000000000e+00 0.0000000000000000e+00 0.0000000000000000e+00  0.0000000000000000e+00 0.0000000000000000e+00 0.0000000000000000e+00  0.0000000000000000e+00 0.0000000000000000e+00 0.0000000000000000e+00  0.0000000000000000e+00 0.0000000000000000e+00 0.0000000000000000e+00  0.0000000000000000e+00 0.0000000000000000e+00 0.0000000000000000e+00  0.0000000000000000e+00 0.0000000000000000e+00 0.0000000000000000e+00  0.0000000000000000e+00 0.0000000000000000e+00 0.0000000000000000e+00  0.0000000000000000e+00 0.0000000000000000e+00 0.0000000000000000e+00  0.0000000000000000e+00 0.0000000000000000e+00 0.0000000000000000e+00  0.0000000000000000e+00 0.0000000000000000e+00 0.0000000000000000e+00  0.0000000000000000e+00 0.0000000000000000e+00 0.0000000000000000e+00  0.0000000000000000e+00 0.0000000000000000e+00 0.0000000000000000e+00  0.0000000000000000e+00 0.0000000000000000e+00 0.0000000000000000e+00  0.0000000000000000e+00 0.0000000000000000e+00 0.0000000000000000e+00  0.0000000000000000e+00 0.0000000000000000e+00 0.0000000000000000e+00  0.0000000000000000e+00 0.0000000000000000e+00 0.0000000000000000e+00  0.0000000000000000e+00 0.0000000000000000e+00 0.0000000000000000e+00  0.0000000000000000e+00 0.0000000000000000e+00 0.0000000000000000e+00  0.0000000000000000e+00 0.0000000000000000e+00 0.0000000000000000e+00  0.0000000000000000e+00 0.0000000000000000e+00 0.0000000000000000e+00  0.0000000000000000e+00 0.0000000000000000e+00 0.0000000000000000e+00  0.0000000000000000e+00 0.0000000000000000e+00 0.0000000000000000e+00  0.0000000000000000e+00 0.0000000000000000e+00 0.0000000000000000e+00  0.0000000000000000e+00 0.0000000000000000e+00 0.0000000000000000e+00  0.0000000000000000e+00 0.0000000000000000e+00 0.0000000000000000e+00  0.0000000000000000e+00 0.0000000000000000e+00 0.0000000000000000e+00  0.0000000000000000e+00 0.0000000000000000e+00 0.0000000000000000e+00  0.0000000000000000e+00 0.0000000000000000e+00 0.0000000000000000e+00  0.0000000000000000e+00 0.0000000000000000e+00 0.0000000000000000e+00  0.0000000000000000e+00 0.0000000000000000e+00 0.0000000000000000e+00  0.0000000000000000e+00 0.0000000000000000e+00 0.0000000000000000e+00  0.0000000000000000e+00 0.0000000000000000e+00 0.0000000000000000e+00  0.0000000000000000e+00 0.0000000000000000e+00 0.0000000000000000e+00  0.0000000000000000e+00 0.0000000000000000e+00 0.0000000000000000e+00  0.0000000000000000e+00 0.0000000000000000e+00 0.0000000000000000e+00  0.0000000000000000e+00 0.0000000000000000e+00 0.0000000000000000e+00  0.0000000000000000e+00 0.0000000000000000e+00 0.0000000000000000e+00  0.0000000000000000e+00 0.0000000000000000e+00 0.0000000000000000e+00  2.0430286307350484e-01 1.8762703527934819e-02 0.0000000000000000e+00  1.6055357176431878e-01 1.1251715074384631e-03 0.0000000000000000e+00  2.0707664640001858e-01 -2.3619896397981972e-02 0.0000000000000000e+00  0.0000000000000000e+00 0.0000000000000000e+00 0.0000000000000000e+00  0.0000000000000000e+00 0.0000000000000000e+00 0.0000000000000000e+00  0.0000000000000000e+00 0.0000000000000000e+00 0.0000000000000000e+00  0.0000000000000000e+00 0.0000000000000000e+00 0.0000000000000000e+00  0.0000000000000000e+00 0.0000000000000000e+00 0.0000000000000000e+00  0.0000000000000000e+00 0.0000000000000000e+00 0.0000000000000000e+00  0.0000000000000000e+00 0.0000000000000000e+00 0.0000000000000000e+00  0.0000000000000000e+00 0.0000000000000000e+00 0.0000000000000000e+00  0.0000000000000000e+00 0.0000000000000000e+00 0.0000000000000000e+00  0.0000000000000000e+00 0.0000000000000000e+00 0.0000000000000000e+00  0.0000000000000000e+00 0.0000000000000000e+00 0.0000000000000000e+00  0.0000000000000000e+00 0.0000000000000000e+00 0.0000000000000000e+00  0.0000000000000000e+00 0.0000000000000000e+00 0.0000000000000000e+00  0.0000000000000000e+00 0.0000000000000000e+00 0.0000000000000000e+00  0.0000000000000000e+00 0.0000000000000000e+00 0.0000000000000000e+00  0.0000000000000000e+00 0.0000000000000000e+00 0.0000000000000000e+00  0.0000000000000000e+00 0.0000000000000000e+00 0.0000000000000000e+00  0.0000000000000000e+00 0.0000000000000000e+00 0.0000000000000000e+00  0.0000000000000000e+00 0.0000000000000000e+00 0.0000000000000000e+00  0.0000000000000000e+00 0.0000000000000000e+00 0.0000000000000000e+00  0.0000000000000000e+00 0.0000000000000000e+00 0.0000000000000000e+00  0.0000000000000000e+00 0.0000000000000000e+00 0.0000000000000000e+00  0.0000000000000000e+00 0.0000000000000000e+00 0.0000000000000000e+00  0.0000000000000000e+00 0.0000000000000000e+00 0.0000000000000000e+00  0.0000000000000000e+00 0.0000000000000000e+00 0.0000000000000000e+00  0.0000000000000000e+00 0.0000000000000000e+00 0.0000000000000000e+00  0.0000000000000000e+00 0.0000000000000000e+00 0.0000000000000000e+00  0.0000000000000000e+00 0.0000000000000000e+00 0.0000000000000000e+00  0.0000000000000000e+00 0.0000000000000000e+00 0.0000000000000000e+00  0.0000000000000000e+00 0.0000000000000000e+00 0.0000000000000000e+00  0.0000000000000000e+00 0.0000000000000000e+00 0.0000000000000000e+00  0.0000000000000000e+00 0.0000000000000000e+00 0.0000000000000000e+00  0.0000000000000000e+00 0.0000000000000000e+00 0.0000000000000000e+00  0.0000000000000000e+00 0.0000000000000000e+00 0.0000000000000000e+00  0.0000000000000000e+00 0.0000000000000000e+00 0.0000000000000000e+00  0.0000000000000000e+00 0.0000000000000000e+00 0.0000000000000000e+00  0.0000000000000000e+00 0.0000000000000000e+00 0.0000000000000000e+00  0.0000000000000000e+00 0.0000000000000000e+00 0.0000000000000000e+00  0.0000000000000000e+00 0.0000000000000000e+00 0.0000000000000000e+00  0.0000000000000000e+00 0.0000000000000000e+00 0.0000000000000000e+00  -1.6956932866094028e-15 0.0000000000000000e+00 0.0000000000000000e+00  0.0000000000000000e+00 0.0000000000000000e+00 0.0000000000000000e+00  0.0000000000000000e+00 0.0000000000000000e+00 0.0000000000000000e+00  0.0000000000000000e+00 0.0000000000000000e+00 0.0000000000000000e+00  0.0000000000000000e+00 0.0000000000000000e+00 0.0000000000000000e+00  0.0000000000000000e+00 0.0000000000000000e+00 0.0000000000000000e+00  0.0000000000000000e+00 0.0000000000000000e+00 0.0000000000000000e+00  0.0000000000000000e+00 0.0000000000000000e+00 0.0000000000000000e+00  0.0000000000000000e+00 0.0000000000000000e+00 0.0000000000000000e+00  0.0000000000000000e+00 0.0000000000000000e+00 0.0000000000000000e+00  0.0000000000000000e+00 0.0000000000000000e+00 0.0000000000000000e+00  0.0000000000000000e+00 0.0000000000000000e+00 0.0000000000000000e+00  0.0000000000000000e+00 0.0000000000000000e+00 0.0000000000000000e+00  0.0000000000000000e+00 0.0000000000000000e+00 0.0000000000000000e+00  0.0000000000000000e+00 0.0000000000000000e+00 0.0000000000000000e+00  0.0000000000000000e+00 0.0000000000000000e+00 0.0000000000000000e+00  0.0000000000000000e+00 0.0000000000000000e+00 0.0000000000000000e+00  0.0000000000000000e+00 0.0000000000000000e+00 0.0000000000000000e+00  0.0000000000000000e+00 0.0000000000000000e+00 0.0000000000000000e+00  0.0000000000000000e+00 0.0000000000000000e+00 0.0000000000000000e+00  0.0000000000000000e+00 0.0000000000000000e+00 0.0000000000000000e+00  0.0000000000000000e+00 0.0000000000000000e+00 0.0000000000000000e+00  0.0000000000000000e+00 0.0000000000000000e+00 0.0000000000000000e+00  0.0000000000000000e+00 0.0000000000000000e+00 0.0000000000000000e+00  0.0000000000000000e+00 0.0000000000000000e+00 0.0000000000000000e+00  0.0000000000000000e+00 0.0000000000000000e+00 0.0000000000000000e+00  0.0000000000000000e+00 0.0000000000000000e+00 0.0000000000000000e+00  0.0000000000000000e+00 0.0000000000000000e+00 0.0000000000000000e+00  0.0000000000000000e+00 0.0000000000000000e+00 0.0000000000000000e+00  0.0000000000000000e+00 0.0000000000000000e+00 0.0000000000000000e+00  0.0000000000000000e+00 0.0000000000000000e+00 0.0000000000000000e+00  0.0000000000000000e+00 0.0000000000000000e+00 0.0000000000000000e+00  0.0000000000000000e+00 0.0000000000000000e+00 0.0000000000000000e+00  0.0000000000000000e+00 0.0000000000000000e+00 0.0000000000000000e+00  0.0000000000000000e+00 0.0000000000000000e+00 0.0000000000000000e+00  0.0000000000000000e+00 0.0000000000000000e+00 0.0000000000000000e+00  0.0000000000000000e+00 0.0000000000000000e+00 0.0000000000000000e+00  -6.7333285012870534e-16 0.0000000000000000e+00 0.0000000000000000e+00  2.8810220183316545e-06 6.2112657350045831e-07 0.0000000000000000e+00  5.9520328578599638e-06 -2.0392917604897354e-07 0.0000000000000000e+00  8.9470632296685586e-06 -1.7244083495733404e-06 0.0000000000000000e+00  1.2029777864834242e-05 -3.9373660808432581e-06 0.0000000000000000e+00  1.4984119591098125e-05 -6.7210994696860065e-06 0.0000000000000000e+00  1.8090830218041990e-05 -1.0107176583155286e-05 0.0000000000000000e+00  2.1037476267135446e-05 -1.3954975307034904e-05 0.0000000000000000e+00  2.3979945075351106e-05 -1.8422679746489748e-05 0.0000000000000000e+00  2.7036023217055320e-05 -2.3369631368189686e-05 0.0000000000000000e+00  2.9881908389683634e-05 -2.8811016199719120e-05 0.0000000000000000e+00  3.2863293025747059e-05 -3.4769057075100124e-05 0.0000000000000000e+00  3.5628762774932801e-05 -4.1178261035749180e-05 0.0000000000000000e+00  3.8483268821047105e-05 -4.8055756807818196e-05 0.0000000000000000e+00  4.1171573875672266e-05 -5.5302755884143452e-05 0.0000000000000000e+00  4.3821177888717977e-05 -6.3011421971714444e-05 0.0000000000000000e+00  4.6523104626110864e-05 -7.1075800814736687e-05 0.0000000000000000e+00  4.9047638266219167e-05 -7.9488798712507735e-05 0.0000000000000000e+00  5.1638873342562164e-05 -8.8275874985520390e-05 0.0000000000000000e+00  5.4061921199359059e-05 -9.7358298479967751e-05 0.0000000000000000e+00  5.6533682699487012e-05 -1.0675978612198249e-04 0.0000000000000000e+00  5.8877872136755994e-05 -1.1642921298852503e-04 0.0000000000000000e+00  6.1230988596629806e-05 -1.2638865586851047e-04 0.0000000000000000e+00  6.3477282555020724e-05 -1.3654892300563168e-04 0.0000000000000000e+00  6.5685933492030683e-05 -1.4697099268591929e-04 0.0000000000000000e+00  6.7901715834122907e-05 -1.5757387677028519e-04 0.0000000000000000e+00  7.0027343124536798e-05 -1.6837445090591362e-04 0.0000000000000000e+00  7.2124283496775035e-05 -1.7936920930329838e-04 0.0000000000000000e+00  7.4159789369373000e-05 -1.9049658648090417e-04 0.0000000000000000e+00  7.6165205585320510e-05 -2.0179275819210061e-04 0.0000000000000000e+00  7.8114482705705747e-05 -2.1318899594191616e-04 0.0000000000000000e+00  8.0032676260284773e-05 -2.2472467310794830e-04 0.0000000000000000e+00  8.1899913788215353e-05 -2.3633096094069440e-04 0.0000000000000000e+00  8.3733714697512956e-05 -2.4804828917786114e-04 0.0000000000000000e+00  8.5521390405265675e-05 -2.5981548578783427e-04 0.0000000000000000e+00  8.7277323953935886e-05 -2.7166965298485010e-04 0.0000000000000000e+00  8.8989494108526783e-05 -2.8355113415468237e-04 0.0000000000000000e+00  9.0669202045365799e-05 -2.9550044133695599e-04 0.0000000000000000e+00  9.2309235106372806e-05 -3.0746091910953752e-04 0.0000000000000000e+00  9.3917814163909971e-05 -3.1947390388535201e-04 0.0000000000000000e+00  9.5488332102628605e-05 -3.3148276604028825e-04 0.0000000000000000e+00  9.7021825873345980e-05 -3.4352458831788741e-04 0.0000000000000000e+00  9.8524203287212632e-05 -3.5556715089527392e-04 0.0000000000000000e+00  9.9995813996978214e-05 -3.6762222779205671e-04 0.0000000000000000e+00  1.0144676241387283e-04 -3.7968062041551597e-04 0.0000000000000000e+00  1.0285477559835576e-04 -3.9172624021897986e-04 0.0000000000000000e+00  1.0426472028528938e-04 -4.0381232578044827e-04 0.0000000000000000e+00  9.7338572241811888e-05 -4.1677555531135878e-04 0.0000000000000000e+00  8.1137842716867310e-05 -4.1823930196982289e-04 0.0000000000000000e+00  7.1856523716949010e-05 -4.0699356865366726e-04 0.0000000000000000e+00  7.0471297275001704e-05 -3.9487962553813317e-04 0.0000000000000000e+00  6.9081553986815526e-05 -3.8274644291684659e-04 0.0000000000000000e+00  6.7657666730937786e-05 -3.7064150093825778e-04 0.0000000000000000e+00  6.6213159284110097e-05 -3.5854358934056687e-04 0.0000000000000000e+00  6.4743065287567494e-05 -3.4645758622358616e-04 0.0000000000000000e+00  6.3256534271370979e-05 -3.3439159500152056e-04 0.0000000000000000e+00  6.1738170196700765e-05 -3.2232654634511157e-04 0.0000000000000000e+00  6.0207961215008367e-05 -3.1030736217902089e-04 0.0000000000000000e+00  5.8649977963319539e-05 -2.9829452085157769e-04 0.0000000000000000e+00  5.7090364412903726e-05 -2.8633944230216661e-04 0.0000000000000000e+00  5.5501534349365390e-05 -2.7440551411037019e-04 0.0000000000000000e+00  5.3918812458743031e-05 -2.6254586576447898e-04 0.0000000000000000e+00  5.2303354150643114e-05 -2.5072974047624281e-04 0.0000000000000000e+00  5.0705008357611014e-05 -2.3900772947570137e-04 0.0000000000000000e+00  4.9068349090273180e-05 -2.2735261179232164e-04 0.0000000000000000e+00  4.7461293149899122e-05 -2.1581520671421777e-04 0.0000000000000000e+00  4.5809651590690557e-05 -2.0437045589516791e-04 0.0000000000000000e+00  4.4198429292105932e-05 -1.9307080341270536e-04 0.0000000000000000e+00  4.2533991525458968e-05 -1.8189600818863542e-04 0.0000000000000000e+00  4.0923922416719566e-05 -1.7089835730981767e-04 0.0000000000000000e+00  3.9250798840042955e-05 -1.6005954756497380e-04 0.0000000000000000e+00  3.7636285650334465e-05 -1.4942840737788022e-04 0.0000000000000000e+00  3.5968366300820573e-05 -1.3898002463214721e-04 0.0000000000000000e+00  3.4298276598222234e-05 -1.2879738197842184e-04 0.0000000000000000e+00  3.2688067877368320e-05 -1.1880954081018081e-04 0.0000000000000000e+00  3.1029010453138196e-05 -1.0910605087281226e-04 0.0000000000000000e+00  2.9404065084043954e-05 -9.9683874906171614e-05 0.0000000000000000e+00  2.7747984889751925e-05 -9.0560914678943820e-05 0.0000000000000000e+00  2.6125328068245060e-05 -8.1764779959183406e-05 0.0000000000000000e+00  2.4469600521404518e-05 -7.3290916206623710e-05 0.0000000000000000e+00  2.2884443142826768e-05 -6.5230021910253733e-05 0.0000000000000000e+00  2.1213151753720103e-05 -5.7486428021899511e-05 0.0000000000000000e+00  1.9542334452720849e-05 -5.0221166734098715e-05 0.0000000000000000e+00  1.7975134756958911e-05 -4.3298876307698692e-05 0.0000000000000000e+00  1.6344380759173270e-05 -3.6873293321563196e-05 0.0000000000000000e+00  1.4764930743039592e-05 -3.0917920179742064e-05 0.0000000000000000e+00  1.3147812632655963e-05 -2.5441714750718775e-05 0.0000000000000000e+00  1.1636356726076948e-05 -2.0541719540655556e-05 0.0000000000000000e+00  1.0022266823439858e-05 -1.6092337648372577e-05 0.0000000000000000e+00  8.4291584437513223e-06 -1.2293738470946105e-05 0.0000000000000000e+00  6.9961440181509820e-06 -8.9641256706327891e-06 0.0000000000000000e+00  5.5120544839880693e-06 -6.2909665567524954e-06 0.0000000000000000e+00  4.1566360363038553e-06 -4.2202641055974290e-06 0.0000000000000000e+00  2.7047331696742722e-06 -2.7215372340646217e-06 0.0000000000000000e+00  1.3817642741897100e-06 -1.7544555701162217e-06 0.0000000000000000e+00  3.6170186864197905e-06 -5.6868098998785781e-07 0.0000000000000000e+00  8.7413547912411186e-05 -3.9929838899096127e-04 0.0000000000000000e+00  8.4927905946906965e-05 -3.7617846009158377e-04 0.0000000000000000e+00  8.0185524986242486e-05 -3.3850343367211074e-04 0.0000000000000000e+00  7.6501470389296326e-06 -3.5710799163258675e-06 0.0000000000000000e+00  7.6966582327168522e-05 -3.1487072705440954e-04 0.0000000000000000e+00  1.1865359044457335e-05 -8.8043445745716488e-06 0.0000000000000000e+00  7.3774303046945830e-05 -2.9088883348711065e-04 0.0000000000000000e+00  1.8901951644430397e-05 -2.1752626170326989e-05 0.0000000000000000e+00  2.3405170490076999e-05 -3.2473438727231715e-05 0.0000000000000000e+00  7.0480110535612323e-05 -2.6706236049666950e-04 0.0000000000000000e+00  3.4304178012760635e-05 -6.8211505264282495e-05 0.0000000000000000e+00  6.3595880035690483e-05 -2.2018661170964573e-04 0.0000000000000000e+00  2.7559311540538069e-05 -4.4791361250243314e-05 0.0000000000000000e+00  3.8571008950025881e-05 -8.4765036348932455e-05 0.0000000000000000e+00  6.0010003568547872e-05 -1.9732676613919736e-04 0.0000000000000000e+00  6.7086466558172468e-05 -2.4346570504615758e-04 0.0000000000000000e+00  4.2689708733505298e-05 -1.0299784044525120e-04 0.0000000000000000e+00  5.6327963524858130e-05 -1.7500513584136563e-04 0.0000000000000000e+00  4.6379584113988085e-05 -1.2160923958458232e-04 0.0000000000000000e+00  5.2816603240352009e-05 -1.5377305389093954e-04 0.0000000000000000e+00  4.9482510102620617e-05 -1.3681150459972765e-04 0.0000000000000000e+00  3.0947108529560034e-05 -5.5543962116233383e-05 0.0000000000000000e+00  8.2379912907962446e-05 -3.5810872506990163e-04 0.0000000000000000e+00  1.5300231424317565e-05 -1.4424627664498658e-05 0.0000000000000000e+00  8.0504148280272555e-05 -3.8820746857635811e-04 0.0000000000000000e+00  4.7894794787603331e-06 -2.2842749756010100e-06 0.0000000000000000e+00  7.0725403387668088e-05 -3.0327784563774718e-04 0.0000000000000000e+00  7.3845432386836996e-05 -3.2732205361198091e-04 0.0000000000000000e+00  1.1112533710201503e-05 -5.6453525929076866e-06 0.0000000000000000e+00  2.3275027238886737e-05 -2.6490161891584176e-05 0.0000000000000000e+00  6.0838535815207656e-05 -2.3217512257042453e-04 0.0000000000000000e+00  6.7514632408542815e-05 -2.7935842417868225e-04 0.0000000000000000e+00  3.9752447449783857e-05 -7.5836990515675703e-05 0.0000000000000000e+00  5.7384155241337714e-05 -2.0908679874332586e-04 0.0000000000000000e+00  2.8113801741316155e-05 -3.8407525732114818e-05 0.0000000000000000e+00  4.4171031984068803e-05 -9.3420132641989985e-05 0.0000000000000000e+00  5.3856553705389828e-05 -1.8647520378845193e-04 0.0000000000000000e+00  6.4217199174105823e-05 -2.5563005325378470e-04 0.0000000000000000e+00  4.9270147778804291e-05 -1.1206552171165842e-04 0.0000000000000000e+00  5.0255677318794502e-05 -1.6446635443882941e-04 0.0000000000000000e+00  2.0034475783072817e-06 1.5624157976790184e-07 0.0000000000000000e+00  1.6912687960836959e-06 -3.2412049435560572e-07 0.0000000000000000e+00  9.2179051897306181e-05 -4.0844880852231323e-04 0.0000000000000000e+00  6.3205296900642786e-06 -1.2870213249972989e-06 0.0000000000000000e+00  4.605