<?xml version="1.0"?>
<VTKFile type="UnstructuredGrid"  version="0.1"  >
<UnstructuredGrid>
<Piece  NumberOfPoints="1419" NumberOfCells="2698">
<Points>
<DataArray  type="Float64"  NumberOfComponents="3"  format="ascii">0 0 0  0 0.41 0  2.5 0 0  2.5 0.41 0  0.6 0.19 0  0.6 0.21 0  0.25 0.2 0  0.15 0.2 0  0.2489897948556636 0.21 0  0.2489897948556636 0.19 0  0.6 0.2 0  0 0.3807142857143437 0  0 0.3514285714286952 0  0 0.3221428571430699 0  0 0.29285714285744 0  0 0.2635714285718054 0  0 0.2342857142861561 0  0 0.2050000000005308 0  0 0.175714285714732 0  0 0.1464285714289574 0  0 0.1171428571431897 0  0 0.08785714285737878 0  0 0.05857142857161107 0  0 0.02928571428580012 0  0.03015443760436003 0 0  0.06140001986583606 0 0  0.09377624077125973 0 0  0.1273239957535082 0 0  0.1620856860351972 0 0  0.1981052433264291 0 0  0.235428184091502 0 0  0.2741016576309132 0 0  0.3141745521465447 0 0  0.3556974926295285 0 0  0.3987229542472677 0 0  0.4433053055141081 0 0  0.4895008759286886 0 0  0.5373680609405097 0 0  0.5869673343216626 0 0  0.6383613676634521 0 0  0.6916151138468254 0 0  0.7467958595648856 0 0  0.8039733463919316 0 0  0.8632198139502143 0 0  0.9246101326867038 0 0  0.9882218810934433 0 0  1.054135445558498 0 0  1.122434100542598 0 0  1.193204177141305 0 0  1.266535089879536 0 0  1.342519516046404 0 0  1.421253448503939 0 0  1.502836389106271 0 0  1.587371439758838 0 0  1.674965418777374 0 0  1.765729001825544 0 0  1.859776908880082 0 0  1.957227977487062 0 0  2.058205329869943 0 0  2.162836591189951 0 0  2.271253957290865 0 0  2.383594446803425 0 0  2.5 0.1024999999997612 0  2.5 0.2049999999994743 0  2.5 0.3074999999997183 0  2.383594446803656 0.41 0  2.271253957291315 0.41 0  2.162836591190598 0.41 0  2.058205329870775 0.41 0  1.957227977488067 0.41 0  1.859776908881246 0.41 0  1.765729001826854 0.41 0  1.674965418778818 0.41 0  1.58737143976041 0.41 0  1.502836389107956 0.41 0  1.421253448505726 0.41 0  1.342519516048286 0.41 0  1.266535089881505 0.41 0  1.193204177143353 0.41 0  1.122434100544716 0.41 0  1.05413544556068 0.41 0  0.9882218810956305 0.41 0  0.9246101326886647 0.41 0  0.8632198139519631 0.41 0  0.8039733463934788 0.41 0  0.7467958595662458 0.41 0  0.6916151138480078 0.41 0  0.6383613676644679 0.41 0  0.5869673343225223 0.41 0  0.5373680609412221 0.41 0  0.4895008759292634 0.41 0  0.4433053055145528 0.41 0  0.3987229542475914 0.41 0  0.3556974926297398 0.41 0  0.3141745521466497 0.41 0  0.2741016576310038 0.41 0  0.2354281840915826 0.41 0  0.1981052433265003 0.41 0  0.1620856860352591 0.41 0  0.1273239957535623 0.41 0  0.09377624077128965 0.41 0  0.06140001986584975 0.41 0  0.03015443760436654 0.41 0  0.2497468076502589 0.2050254481002335 0  0.2497468076502614 0.1949745518997913 0  0.2469965252529372 0.1829317073451959 0  0.2439893735792749 0.1762316384219906 0  0.2400332147834255 0.1700443375285386 0  0.2352133972704371 0.1645032867342007 0  0.2296339016332438 0.1597280261969788 0  0.2234150974217223 0.1558215752574715 0  0.2166911463437691 0.1528682099456123 0  0.2096071079204251 0.1509316448471593 0  0.2023158100364996 0.1500536585536553 0  0.194974551899914 0.1502531923497262 0  0.1877417105387872 0.1515259415822739 0  0.1807733240461124 0.153844448527136 0  0.1742197252835808 0.15715869474974 0  0.1682222986673531 0.1613971801805478 0  0.162910430003803 0.1664684656256651 0  0.1583987151779087 0.1722631454351573 0  0.1547844879126891 0.178656207771761 0  0.1521457199348551 0.1855097315605723 0  0.1505393388476355 0.1926758619366523 0  0.1505393388476328 0.2073241380633295 0  0.1521457199348437 0.2144902684393899 0  0.1547844879126531 0.221343792228163 0  0.1583987151778488 0.2277368545647528 0  0.1629104300036858 0.2335315343742052 0  0.1682222986671726 0.2386028198193036 0  0.1742197252833576 0.2428413052501257 0  0.1807733240458683 0.2461555514727623 0  0.1877417105384929 0.2484740584176516 0  0.1949745518995776 0.2497468076502398 0  0.202315810036185 0.2499463414463592 0  0.2096071079201568 0.2490683551528932 0  0.2166911463435495 0.2471317900544655 0  0.2234150974215506 0.2441784247426195 0  0.2296339016331197 0.2402719738031125 0  0.2352133972703547 0.2354967132658811 0  0.2400332147833751 0.2299556624715287 0  0.2439893735792577 0.2237683615780412 0  0.246996525252926 0.2170682926548348 0  0.25645809709277 0.21 0  0.2639263993298655 0.21 0  0.271394701566961 0.21 0  0.2788630038040554 0.21 0  0.2863313060411479 0.21 0  0.2937996082782405 0.21 0  0.301267910515333 0.21 0  0.3087362127524279 0.21 0  0.3162045149895234 0.21 0  0.3236728172265972 0.21 0  0.3311411194636928 0.21 0  0.3386094217007701 0.21 0  0.3460777239378666 0.21 0  0.3535460261749672 0.21 0  0.3610143284120516 0.21 0  0.3684826306491596 0.21 0  0.3759509328862226 0.21 0  0.383419235123329 0.21 0  0.3908875373604028 0.21 0  0.3983558395975142 0.21 0  0.4058241418345938 0.21 0  0.4132924440716992 0.21 0  0.4207607463087888 0.21 0  0.4282290485459029 0.21 0  0.4356973507830418 0.21 0  0.4431656530201649 0.21 0  0.4506339552573136 0.21 0  0.4581022574944306 0.21 0  0.4655705597315852 0.21 0  0.4730388619686996 0.21 0  0.480507164205851 0.21 0  0.4879754664429498 0.21 0  0.4954437686800938 0.21 0  0.502912070917267 0.21 0  0.5103803731544119 0.21 0  0.5178486753915261 0.21 0  0.5253169776286404 0.21 0  0.5327852798657868 0.21 0  0.5402535821029386 0.21 0  0.54772188434007 0.21 0  0.5551901865771842 0.21 0  0.5626584888143201 0.21 0  0.5701267910514778 0.21 0  0.5775950932886138 0.21 0  0.5850633955257281 0.21 0  0.5925316977628483 0.21 0  0.6 0.2050000000000054 0  0.6 0.1950000000000217 0  0.5925316977628897 0.19 0  0.5850633955257988 0.19 0  0.5775950932887378 0.19 0  0.5701267910515998 0.19 0  0.5626584888145268 0.19 0  0.5551901865773963 0.19 0  0.547721884340339 0.19 0  0.5402535821032429 0.19 0  0.5327852798661811 0.19 0  0.5253169776290537 0.19 0  0.5178486753919799 0.19 0  0.5103803731549078 0.19 0  0.502912070917822 0.19 0  0.4954437686807294 0.19 0  0.4879754664436223 0.19 0  0.4805071642065402 0.19 0  0.4730388619694271 0.19 0  0.4655705597323621 0.19 0  0.4581022574952563 0.19 0  0.4506339552581777 0.19 0  0.4431656530210671 0.19 0  0.4356973507839815 0.19 0  0.4282290485468779 0.19 0  0.4207607463097617 0.19 0  0.4132924440726327 0.19 0  0.4058241418354857 0.19 0  0.3983558395983636 0.19 0  0.3908875373612097 0.19 0  0.3834192351240934 0.19 0  0.3759509328869369 0.19 0  0.3684826306498175 0.19 0  0.361014328412667 0.19 0  0.3535460261755617 0.19 0  0.3460777239384295 0.19 0  0.3386094217012945 0.19 0  0.3311411194641595 0.19 0  0.3236728172270245 0.19 0  0.3162045149898895 0.19 0  0.3087362127527544 0.19 0  0.3012679105156187 0.19 0  0.2937996082784807 0.19 0  0.2863313060413428 0.19 0  0.2788630038042048 0.19 0  0.2713947015670686 0.19 0  0.2639263993299336 0.19 0  0.2564580970927985 0.19 0  0.2607803159922026 0.2000727136295815 0  0.5887803774232762 0.2001272386983733 0  0.5745072403740523 0.2002044435018727 0  0.5511891430099709 0.2001122610077113 0  0.2751288526855082 0.20000000000002 0  0.5365194309847112 0.1999999999999436 0  0.2894621222999649 0.1998691686390484 0  0.5215828265105155 0.1999999999999228 0  0.3127789816668748 0.1998657885438805 0  0.3274069683451451 0.2000000000000796 0  0.5066462220363641 0.199999999999908 0  0.3650630746574081 0.199866017807523 0  0.476773013087985 0.1999999999998713 0  0.3417402379596385 0.1998691686391011 0  0.3796850840047755 0.200000000000134 0  0.4618364086138087 0.1999999999998546 0  0.4917096175621762 0.1999999999998808 0  0.3946216884789568 0.2000000000001512 0  0.446899804139621 0.1999999999998389 0  0.4089549580935208 0.1998691686391595 0  0.4322718174608562 0.200127451265745 0  0.4201487168029707 0.1999966199048527 0  0.3528922713220932 0.2000185703532356 0  0.5633122436674589 0.1999814296467508 0  0.3006558810093873 0.1999966199048318 0  0.5815926498168407 0.1966545283159175 0  0.2677053789419034 0.1964246479135325 0  0.5290511287476175 0.1970915826863981 0  0.5439877332217911 0.197091582686394 0  0.2825131256993216 0.2035478995978015 0  0.3199386661080599 0.202908417313604 0  0.4842413153250809 0.1970915826863873 0  0.5141145242734466 0.1970915826863843 0  0.3722167817676917 0.2029084173136195 0  0.4693047108508938 0.1970915826863783 0  0.3348752705822316 0.202908417313609 0  0.3871533862418661 0.2029084173136212 0  0.4543681063767183 0.1970915826863795 0  0.4991779197992749 0.1970915826863902 0  0.4020059614928624 0.203547899597858 0  0.4394315019025246 0.1970915826863714 0  0.2550657455369551 0.2034088125358657 0  0.2548908499171161 0.1966940311614271 0  0.5946539510196798 0.2024302972968126 0  0.267698176732111 0.2039977513680092 0  0.4261685417851465 0.196409292431739 0  0.3590076176283495 0.196411355804271 0  0.5571672426447437 0.2036011176410121 0  0.3066757059912147 0.1964092924317024 0  0.594380730180568 0.1966558399668133 0  0.4842413153245942 0.2040749161535287 0  0.4693047108503577 0.2040749161535231 0  0.3871533862424271 0.1959250838464788 0  0.372246743208829 0.1959123236376545 0  0.5141145242731028 0.2040749161535395 0  0.4543681063761134 0.2040749161535186 0  0.4019979587101454 0.1959834479682427 0  0.4394608940728603 0.2040870543693135 0  0.5439623148931173 0.2040856076781014 0  0.5290511287473298 0.2040749161535501 0  0.4991779197988497 0.2040749161535382 0  0.3347912413592433 0.1959225448935183 0  0.3199680582793816 0.1959123018030061 0  0.2825051229162361 0.1959834479681729 0  0.3590471196690275 0.2036304442587945 0  0.5571594006495384 0.1963685282145804 0  0.3067669986803285 0.203627750582736 0  0.4262598344738712 0.2036568242185335 0  0.5814408164431408 0.2041285596160068 0  0.5688286748170428 0.1961819304477386 0  0.4145905603063645 0.2038180695522843 0  0.3473758401724931 0.2038180695522752 0  0.2950977245128307 0.2038180695522663 0  0.5688286748170693 0.203818069552238 0  0.2950977245127906 0.1961819304477774 0  0.3473758401723931 0.1961819304478349 0  0.4145905603061963 0.1961819304479011 0  0.2601812407614425 0.2056861609747042
[...]
<PointData  Vectors="f_46-0"> 
<DataArray  type="Float64"  Name="f_46-0"  NumberOfComponents="3" format="ascii">0.0000000000000000e+00 0.0000000000000000e+00 0.0000000000000000e+00  0.0000000000000000e+00 0.0000000000000000e+00 0.0000000000000000e+00  0.0000000000000000e+00 0.0000000000000000e+00 0.0000000000000000e+00  0.0000000000000000e+00 0.0000000000000000e+00 0.0000000000000000e+00  7.2896195494248544e-05 -4.8082571229092865e-04 0.0000000000000000e+00  1.0989561169910203e-04 -4.7488301320548586e-04 0.0000000000000000e+00  0.0000000000000000e+00 0.0000000000000000e+00 0.0000000000000000e+00  0.0000000000000000e+00 0.0000000000000000e+00 0.0000000000000000e+00  0.0000000000000000e+00 0.0000000000000000e+00 0.0000000000000000e+00  0.0000000000000000e+00 0.0000000000000000e+00 0.0000000000000000e+00  9.1292651204619437e-05 -4.7785039564549080e-04 0.0000000000000000e+00  6.8720167503945065e-02 0.0000000000000000e+00 0.0000000000000000e+00  1.2686800154575317e-01 0.0000000000000000e+00 0.0000000000000000e+00  1.7444350212541063e-01 0.0000000000000000e+00 0.0000000000000000e+00  2.1144666924297253e-01 0.0000000000000000e+00 0.0000000000000000e+00  2.3787750289843404e-01 0.0000000000000000e+00 0.0000000000000000e+00  2.5373600309179373e-01 0.0000000000000000e+00 0.0000000000000000e+00  2.5902216982303561e-01 0.0000000000000000e+00 0.0000000000000000e+00  2.5373600309211436e-01 0.0000000000000000e+00 0.0000000000000000e+00  2.3787750289898485e-01 0.0000000000000000e+00 0.0000000000000000e+00  2.1144666924365457e-01 0.0000000000000000e+00 0.0000000000000000e+00  1.7444350212605855e-01 0.0000000000000000e+00 0.0000000000000000e+00  1.2686800154630604e-01 0.0000000000000000e+00 0.0000000000000000e+00  6.8720167504256593e-02 0.0000000000000000e+00 0.0000000000000000e+00  0.0000000000000000e+00 0.0000000000000000e+00 0.0000000000000000e+00  0.0000000000000000e+00 0.0000000000000000e+00 0.0000000000000000e+00  0.0000000000000000e+00 0.0000000000000000e+00 0.0000000000000000e+00  0.0000000000000000e+00 0.0000000000000000e+00 0.0000000000000000e+00  0.0000000000000000e+00 0.0000000000000000e+00 0.0000000000000000e+00  0.0000000000000000e+00 0.0000000000000000e+00 0.0000000000000000e+00  0.0000000000000000e+00 0.0000000000000000e+00 0.0000000000000000e+00  0.0000000000000000e+00 0.0000000000000000e+00 0.0000000000000000e+00  0.0000000000000000e+00 0.0000000000000000e+00 0.0000000000000000e+00  0.0000000000000000e+00 0.0000000000000000e+00 0.0000000000000000e+00  0.0000000000000000e+00 0.0000000000000000e+00 0.0000000000000000e+00  0.0000000000000000e+00 0.0000000000000000e+00 0.0000000000000000e+00  0.0000000000000000e+00 0.0000000000000000e+00 0.0000000000000000e+00  0.0000000000000000e+00 0.0000000000000000e+00 0.0000000000000000e+00  0.0000000000000000e+00 0.0000000000000000e+00 0.0000000000000000e+00  0.0000000000000000e+00 0.0000000000000000e+00 0.0000000000000000e+00  0.0000000000000000e+00 0.0000000000000000e+00 0.0000000000000000e+00  0.0000000000000000e+00 0.0000000000000000e+00 0.0000000000000000e+00  0.0000000000000000e+00 0.0000000000000000e+00 0.0000000000000000e+00  0.0000000000000000e+00 0.0000000000000000e+00 0.0000000000000000e+00  0.0000000000000000e+00 0.0000000000000000e+00 0.0000000000000000e+00  0.0000000000000000e+00 0.0000000000000000e+00 0.0000000000000000e+00  0.0000000000000000e+00 0.0000000000000000e+00 0.0000000000000000e+00  0.0000000000000000e+00 0.0000000000000000e+00 0.0000000000000000e+00  0.0000000000000000e+00 0.0000000000000000e+00 0.0000000000000000e+00  0.0000000000000000e+00 0.0000000000000000e+00 0.0000000000000000e+00  0.0000000000000000e+00 0.0000000000000000e+00 0.0000000000000000e+00  0.0000000000000000e+00 0.0000000000000000e+00 0.0000000000000000e+00  0.0000000000000000e+00 0.0000000000000000e+00 0.0000000000000000e+00  0.0000000000000000e+00 0.0000000000000000e+00 0.0000000000000000e+00  0.0000000000000000e+00 0.0000000000000000e+00 0.0000000000000000e+00  0.0000000000000000e+00 0.0000000000000000e+00 0.0000000000000000e+00  0.0000000000000000e+00 0.0000000000000000e+00 0.0000000000000000e+00  0.0000000000000000e+00 0.0000000000000000e+00 0.0000000000000000e+00  0.0000000000000000e+00 0.0000000000000000e+00 0.0000000000000000e+00  0.0000000000000000e+00 0.0000000000000000e+00 0.0000000000000000e+00  0.0000000000000000e+00 0.0000000000000000e+00 0.0000000000000000e+00  0.0000000000000000e+00 0.0000000000000000e+00 0.0000000000000000e+00  2.4361903728315615e-01 1.8270816877874255e-02 0.0000000000000000e+00  1.9584230070004904e-01 6.9696037243866167e-04 0.0000000000000000e+00  2.4777611886505754e-01 -2.6209875011000115e-02 0.0000000000000000e+00  0.0000000000000000e+00 0.0000000000000000e+00 0.0000000000000000e+00  0.0000000000000000e+00 0.0000000000000000e+00 0.0000000000000000e+00  0.0000000000000000e+00 0.0000000000000000e+00 0.0000000000000000e+00  0.0000000000000000e+00 0.0000000000000000e+00 0.0000000000000000e+00  0.0000000000000000e+00 0.0000000000000000e+00 0.0000000000000000e+00  0.0000000000000000e+00 0.0000000000000000e+00 0.0000000000000000e+00  0.0000000000000000e+00 0.0000000000000000e+00 0.0000000000000000e+00  0.0000000000000000e+00 0.0000000000000000e+00 0.0000000000000000e+00  0.0000000000000000e+00 0.0000000000000000e+00 0.0000000000000000e+00  0.0000000000000000e+00 0.0000000000000000e+00 0.0000000000000000e+00  0.0000000000000000e+00 0.0000000000000000e+00 0.0000000000000000e+00  0.0000000000000000e+00 0.0000000000000000e+00 0.0000000000000000e+00  0.0000000000000000e+00 0.0000000000000000e+00 0.0000000000000000e+00  0.0000000000000000e+00 0.0000000000000000e+00 0.0000000000000000e+00  0.0000000000000000e+00 0.0000000000000000e+00 0.0000000000000000e+00  0.0000000000000000e+00 0.0000000000000000e+00 0.0000000000000000e+00  0.0000000000000000e+00 0.0000000000000000e+00 0.0000000000000000e+00  0.0000000000000000e+00 0.0000000000000000e+00 0.0000000000000000e+00  0.0000000000000000e+00 0.0000000000000000e+00 0.0000000000000000e+00  0.0000000000000000e+00 0.0000000000000000e+00 0.0000000000000000e+00  0.0000000000000000e+00 0.0000000000000000e+00 0.0000000000000000e+00  0.0000000000000000e+00 0.0000000000000000e+00 0.0000000000000000e+00  0.0000000000000000e+00 0.0000000000000000e+00 0.0000000000000000e+00  0.0000000000000000e+00 0.0000000000000000e+00 0.0000000000000000e+00  0.0000000000000000e+00 0.0000000000000000e+00 0.0000000000000000e+00  0.0000000000000000e+00 0.0000000000000000e+00 0.0000000000000000e+00  0.0000000000000000e+00 0.0000000000000000e+00 0.0000000000000000e+00  0.0000000000000000e+00 0.0000000000000000e+00 0.0000000000000000e+00  0.0000000000000000e+00 0.0000000000000000e+00 0.0000000000000000e+00  0.0000000000000000e+00 0.0000000000000000e+00 0.0000000000000000e+00  0.0000000000000000e+00 0.0000000000000000e+00 0.0000000000000000e+00  0.0000000000000000e+00 0.0000000000000000e+00 0.0000000000000000e+00  0.0000000000000000e+00 0.0000000000000000e+00 0.0000000000000000e+00  0.0000000000000000e+00 0.0000000000000000e+00 0.0000000000000000e+00  0.0000000000000000e+00 0.0000000000000000e+00 0.0000000000000000e+00  0.0000000000000000e+00 0.0000000000000000e+00 0.0000000000000000e+00  0.0000000000000000e+00 0.0000000000000000e+00 0.0000000000000000e+00  0.0000000000000000e+00 0.0000000000000000e+00 0.0000000000000000e+00  0.0000000000000000e+00 0.0000000000000000e+00 0.0000000000000000e+00  0.0000000000000000e+00 0.0000000000000000e+00 0.0000000000000000e+00  -1.3532094353176784e-13 0.0000000000000000e+00 0.0000000000000000e+00  0.0000000000000000e+00 0.0000000000000000e+00 0.0000000000000000e+00  0.0000000000000000e+00 0.0000000000000000e+00 0.0000000000000000e+00  0.0000000000000000e+00 0.0000000000000000e+00 0.0000000000000000e+00  0.0000000000000000e+00 0.0000000000000000e+00 0.0000000000000000e+00  0.0000000000000000e+00 0.0000000000000000e+00 0.0000000000000000e+00  0.0000000000000000e+00 0.0000000000000000e+00 0.0000000000000000e+00  0.0000000000000000e+00 0.0000000000000000e+00 0.0000000000000000e+00  0.0000000000000000e+00 0.0000000000000000e+00 0.0000000000000000e+00  0.0000000000000000e+00 0.0000000000000000e+00 0.0000000000000000e+00  0.0000000000000000e+00 0.0000000000000000e+00 0.0000000000000000e+00  0.0000000000000000e+00 0.0000000000000000e+00 0.0000000000000000e+00  0.0000000000000000e+00 0.0000000000000000e+00 0.0000000000000000e+00  0.0000000000000000e+00 0.0000000000000000e+00 0.0000000000000000e+00  0.0000000000000000e+00 0.0000000000000000e+00 0.0000000000000000e+00  0.0000000000000000e+00 0.0000000000000000e+00 0.0000000000000000e+00  0.0000000000000000e+00 0.0000000000000000e+00 0.0000000000000000e+00  0.0000000000000000e+00 0.0000000000000000e+00 0.0000000000000000e+00  0.0000000000000000e+00 0.0000000000000000e+00 0.0000000000000000e+00  0.0000000000000000e+00 0.0000000000000000e+00 0.0000000000000000e+00  0.0000000000000000e+00 0.0000000000000000e+00 0.0000000000000000e+00  0.0000000000000000e+00 0.0000000000000000e+00 0.0000000000000000e+00  0.0000000000000000e+00 0.0000000000000000e+00 0.0000000000000000e+00  0.0000000000000000e+00 0.0000000000000000e+00 0.0000000000000000e+00  0.0000000000000000e+00 0.0000000000000000e+00 0.0000000000000000e+00  0.0000000000000000e+00 0.0000000000000000e+00 0.0000000000000000e+00  0.0000000000000000e+00 0.0000000000000000e+00 0.0000000000000000e+00  0.0000000000000000e+00 0.0000000000000000e+00 0.0000000000000000e+00  0.0000000000000000e+00 0.0000000000000000e+00 0.0000000000000000e+00  0.0000000000000000e+00 0.0000000000000000e+00 0.0000000000000000e+00  0.0000000000000000e+00 0.0000000000000000e+00 0.0000000000000000e+00  0.0000000000000000e+00 0.0000000000000000e+00 0.0000000000000000e+00  0.0000000000000000e+00 0.0000000000000000e+00 0.0000000000000000e+00  0.0000000000000000e+00 0.0000000000000000e+00 0.0000000000000000e+00  0.0000000000000000e+00 0.0000000000000000e+00 0.0000000000000000e+00  0.0000000000000000e+00 0.0000000000000000e+00 0.0000000000000000e+00  0.0000000000000000e+00 0.0000000000000000e+00 0.0000000000000000e+00  2.3808983166069846e-15 0.0000000000000000e+00 0.0000000000000000e+00  2.6060661732003850e-06 3.5578508876302362e-06 0.0000000000000000e+00  5.3123241932764376e-06 2.8696312207539849e-06 0.0000000000000000e+00  7.7814196570490307e-06 1.2239800261704103e-06 0.0000000000000000e+00  1.0294974598100562e-05 -1.2958083021003702e-06 0.0000000000000000e+00  1.2670917512674327e-05 -4.4861716484920829e-06 0.0000000000000000e+00  1.5272677780938279e-05 -8.3382778254302256e-06 0.0000000000000000e+00  1.7730135621234425e-05 -1.2729850771916268e-05 0.0000000000000000e+00  2.0243449246771988e-05 -1.7838061051863148e-05 0.0000000000000000e+00  2.2929924305196773e-05 -2.3492605566862481e-05 0.0000000000000000e+00  2.5430283516431210e-05 -2.9736925290508545e-05 0.0000000000000000e+00  2.8137950776919135e-05 -3.6551654847341428e-05 0.0000000000000000e+00  3.0640228074148507e-05 -4.3918515641305704e-05 0.0000000000000000e+00  3.3298312139732076e-05 -5.1812991792781309e-05 0.0000000000000000e+00  3.5793168163243673e-05 -6.0137755610312957e-05 0.0000000000000000e+00  3.8288496697322103e-05 -6.9007587356832698e-05 0.0000000000000000e+00  4.0874433468739190e-05 -7.8283379539577551e-05 0.0000000000000000e+00  4.3294654286287302e-05 -8.7987069717503915e-05 0.0000000000000000e+00  4.5829421333027391e-05 -9.8103637397808476e-05 0.0000000000000000e+00  4.8201751235688011e-05 -1.0859304621178282e-04 0.0000000000000000e+00  5.0663890403288101e-05 -1.1943010275425666e-04 0.0000000000000000e+00  5.3011899078126867e-05 -1.3060459962155568e-04 0.0000000000000000e+00  5.5409430143512976e-05 -1.4210161971827797e-04 0.0000000000000000e+00  5.7706964996281931e-05 -1.5383107426673672e-04 0.0000000000000000e+00  5.9997770302663108e-05 -1.6586701759513337e-04 0.0000000000000000e+00  6.2321305387572830e-05 -1.7809973768867100e-04 0.0000000000000000e+00  6.4580676933440802e-05 -1.9057464785167088e-04 0.0000000000000000e+00  6.6841723948939390e-05 -2.0324374320950772e-04 0.0000000000000000e+00  6.9065381926536489e-05 -2.1608456587714108e-04 0.0000000000000000e+00  7.1289171191775871e-05 -2.2909080276047668e-04 0.0000000000000000e+00  7.3482523695784043e-05 -2.4222735328786668e-04 0.0000000000000000e+00  7.5674415682202507e-05 -2.5549635965202910e-04 0.0000000000000000e+00  7.7844167994732039e-05 -2.6886262238168593e-04 0.0000000000000000e+00  8.0008905774402758e-05 -2.8232709507887356e-04 0.0000000000000000e+00  8.2158957677285992e-05 -2.9586748014351225e-04 0.0000000000000000e+00  8.4309692727291039e-05 -3.0947513800610657e-04 0.0000000000000000e+00  8.6446099902398249e-05 -3.2313282735202680e-04 0.0000000000000000e+00  8.8581108893895323e-05 -3.3683968721122669e-04 0.0000000000000000e+00  9.0707819661937225e-05 -3.5057801771746122e-04 0.0000000000000000e+00  9.2836306737021583e-05 -3.6434872238265756e-04 0.0000000000000000e+00  9.4961113899274738e-05 -3.7813389711900002e-04 0.0000000000000000e+00  9.7086745013943006e-05 -3.9193896460706668e-04 0.0000000000000000e+00  9.9208127963746617e-05 -4.0575112493346482e-04 0.0000000000000000e+00  1.0133919291850084e-04 -4.1957108214344015e-04 0.0000000000000000e+00  1.0347015649634720e-04 -4.3339565448744730e-04 0.0000000000000000e+00  1.0559928843508290e-04 -4.4721954724624512e-04 0.0000000000000000e+00  1.0773474432290582e-04 -4.6104901721582165e-04 0.0000000000000000e+00  1.0056560795187426e-04 -4.7636136418509637e-04 0.0000000000000000e+00  8.2068177196295303e-05 -4.7934181740097621e-04 0.0000000000000000e+00  7.0743873873033760e-05 -4.6702385356131565e-04 0.0000000000000000e+00  6.8620227208328083e-05 -4.5323209124475641e-04 0.0000000000000000e+00  6.6502005091413342e-05 -4.3944011376869497e-04 0.0000000000000000e+00  6.4390102495357550e-05 -4.2565934740396031e-04 0.0000000000000000e+00  6.2280109919601558e-05 -4.1188293959997191e-04 0.0000000000000000e+00  6.0187731177262831e-05 -3.9811551039588581e-04 0.0000000000000000e+00  5.8106308568647524e-05 -3.8436064457124684e-04 0.0000000000000000e+00  5.6032440660629705e-05 -3.7061669131669702e-04 0.0000000000000000e+00  5.3980444579553423e-05 -3.5689809184830996e-04 0.0000000000000000e+00  5.1934780140307479e-05 -3.4320624785145933e-04 0.0000000000000000e+00  4.9921467829156252e-05 -3.2955130052653229e-04 0.0000000000000000e+00  4.7912834570424228e-05 -3.1593956440095192e-04 0.0000000000000000e+00  4.5945586290455408e-05 -3.0238250952371767e-04 0.0000000000000000e+00  4.3977878401749039e-05 -2.8889203730223033e-04 0.0000000000000000e+00  4.2063094529146243e-05 -2.7547896321476154e-04 0.0000000000000000e+00  4.0142359553886084e-05 -2.6215963094637521e-04 0.0000000000000000e+00  3.8289032352984934e-05 -2.4894533242403143e-04 0.0000000000000000e+00  3.6422472489085459e-05 -2.3585528330093846e-04 0.0000000000000000e+00  3.4636571231204054e-05 -2.2290103999888494e-04 0.0000000000000000e+00  3.2826559283234776e-05 -2.1010710808300412e-04 0.0000000000000000e+00  3.1113672912025009e-05 -1.9748774931478095e-04 0.0000000000000000e+00  2.9365784137579742e-05 -1.8506922207793739e-04 0.0000000000000000e+00  2.7726006244890115e-05 -1.7287151584547729e-04 0.0000000000000000e+00  2.6054451446258894e-05 -1.6088834951931240e-04 0.0000000000000000e+00  2.4422040801641336e-05 -1.4920909678504629e-04 0.0000000000000000e+00  2.2884416158548526e-05 -1.3775062355785131e-04 0.0000000000000000e+00  2.1333959951708365e-05 -1.2663627085001945e-04 0.0000000000000000e+00  1.9859554330834616e-05 -1.1582676857569747e-04 0.0000000000000000e+00  1.8385366370791738e-05 -1.0539379395469794e-04 0.0000000000000000e+00  1.6987187275938082e-05 -9.5319804658058459e-05 0.0000000000000000e+00  1.5587662976738892e-05 -8.5650986285691201e-05 0.0000000000000000e+00  1.4313377742973108e-05 -7.6449919521732600e-05 0.0000000000000000e+00  1.2964942946875912e-05 -6.7632722630797681e-05 0.0000000000000000e+00  1.1660031561271773e-05 -5.9372744707048734e-05 0.0000000000000000e+00  1.0502667566908025e-05 -5.1516320036585611e-05 0.0000000000000000e+00  9.3221824148376819e-06 -4.4254716815325589e-05 0.0000000000000000e+00  8.2444067579294756e-06 -3.7517828880922653e-05 0.0000000000000000e+00  7.1700684690317553e-06 -3.1367442381700336e-05 0.0000000000000000e+00  6.2701096143797721e-06 -2.5869639920510169e-05 0.0000000000000000e+00  5.2869082247290196e-06 -2.0899622383598256e-05 0.0000000000000000e+00  4.3813095243886612e-06 -1.6674454583256281e-05 0.0000000000000000e+00  3.6895505105927952e-06 -1.2977654467422345e-05 0.0000000000000000e+00  2.9846014388140898e-06 -1.0052300308171893e-05 0.0000000000000000e+00  2.4212170120917520e-06 -7.7869719445796526e-06 0.0000000000000000e+00  1.6911265173427436e-06 -6.0722715948422306e-06 0.0000000000000000e+00  9.5118943523676424e-07 -4.7762413555573310e-06 0.0000000000000000e+00  3.5793849879758483e-06 -5.9011092239271771e-07 0.0000000000000000e+00  8.8352304982145872e-05 -4.5705891057928964e-04 0.0000000000000000e+00  8.4440905983220003e-05 -4.3064362953063935e-04 0.0000000000000000e+00  7.7673531322439252e-05 -3.8759731203629025e-04 0.0000000000000000e+00  5.9041843532975191e-06 -3.9427276953772072e-06 0.0000000000000000e+00  7.3344634530475236e-05 -3.6058954462266936e-04 0.0000000000000000e+00  8.8147428336790395e-06 -9.8451403610705953e-06 0.0000000000000000e+00  6.9176516913879894e-05 -3.3314949354679559e-04 0.0000000000000000e+00  1.4104976128689240e-05 -2.4453057285551226e-05 0.0000000000000000e+00  1.7765467424066768e-05 -3.6586096704799806e-05 0.0000000000000000e+00  6.5038128987254156e-05 -3.0586664657246475e-04 0.0000000000000000e+00  2.7139279377327820e-05 -7.7440508811608315e-05 0.0000000000000000e+00  5.6854467484260031e-05 -2.5211602805727182e-04 0.0000000000000000e+00  2.1214311257748617e-05 -5.0656436942251441e-05 0.0000000000000000e+00  3.1086743985184142e-05 -9.6399181701842737e-05 0.0000000000000000e+00  5.2810541549498371e-05 -2.2586528827232859e-04 0.0000000000000000e+00  6.0930330274040661e-05 -2.7882264082455165e-04 0.0000000000000000e+00  3.4977349479965265e-05 -1.1735442262074877e-04 0.0000000000000000e+00  4.8796566408457583e-05 -2.0020753663745939e-04 0.0000000000000000e+00  3.8535629402867894e-05 -1.3879651532040777e-04 0.0000000000000000e+00  4.5104942903293964e-05 -1.7575719847537897e-04 0.0000000000000000e+00  4.1676782887620264e-05 -1.5626349937087605e-04 0.0000000000000000e+00  2.4202673541767027e-05 -6.2902631705800193e-05 0.0000000000000000e+00  8.0850512016606319e-05 -4.1002484552814814e-04 0.0000000000000000e+00  1.1380864269542772e-05 -1.6134496586584751e-05 0.0000000000000000e+00  7.9892882473343451e-05 -4.4481424380731226e-04 0.0000000000000000e+00  3.7499362712021849e-06 -3.6754042520739868e-06 0.0000000000000000e+00  6.5926056141537049e-05 -3.4777994099744906e-04 0.0000000000000000e+00  7.0088044225212831e-05 -3.7525881223199510e-04 0.0000000000000000e+00  8.8364240035839553e-06 -5.1912886768038891e-06 0.0000000000000000e+00  1.8339453514891567e-05 -2.8995563480684773e-05 0.0000000000000000e+00  5.3708315538456740e-05 -2.6639527008269259e-04 0.0000000000000000e+00  6.1806065404862825e-05 -3.2042544582368444e-04 0.0000000000000000e+00  3.2909615146350612e-05 -8.5458564118318512e-05 0.0000000000000000e+00  4.9739799877644147e-05 -2.3991830106105845e-04 0.0000000000000000e+00  2.2443589918988474e-05 -4.2579644647068826e-05 0.0000000000000000e+00  3.7082851842156582e-05 -1.0567205743151450e-04 0.0000000000000000e+00  4.5829152299145942e-05 -2.1396291648908831e-04 0.0000000000000000e+00  5.7732155054560122e-05 -2.9326712560776171e-04 0.0000000000000000e+00  4.2175994184790220e-05 -1.2699344580836009e-04 0.0000000000000000e+00  4.1974159273291796e-05 -1.8867593097966553e-04 0.0000000000000000e+00  2.3539779080856513e-06 8.7924028388702349e-07 0.0000000000000000e+00  2.0123004956806032e-06 -9.7670531995917887e-07 0.0000000000000000e+00  9.4280425022820011e-05 -4.6723075153876157e-04 0.0000000000000000e+00  5.4499352902911329e-06 -1.0779642287469199e-07 0.0000000000000000e+00  3.750831