<?xml version="1.0"?>
<VTKFile type="UnstructuredGrid"  version="0.1"  >
<UnstructuredGrid>
<Piece  NumberOfPoints="1419" NumberOfCells="2698">
<Points>
<DataArray  type="Float64"  NumberOfComponents="3"  format="ascii">0 0 0  0 0.41 0  2.5 0 0  2.5 0.41 0  0.6 0.19 0  0.6 0.21 0  0.25 0.2 0  0.15 0.2 0  0.2489897948556636 0.21 0  0.2489897948556636 0.19 0  0.6 0.2 0  0 0.3807142857143437 0  0 0.3514285714286952 0  0 0.3221428571430699 0  0 0.29285714285744 0  0 0.2635714285718054 0  0 0.2342857142861561 0  0 0.2050000000005308 0  0 0.175714285714732 0  0 0.1464285714289574 0  0 0.1171428571431897 0  0 0.08785714285737878 0  0 0.05857142857161107 0  0 0.02928571428580012 0  0.03015443760436003 0 0  0.06140001986583606 0 0  0.09377624077125973 0 0  0.1273239957535082 0 0  0.1620856860351972 0 0  0.1981052433264291 0 0  0.235428184091502 0 0  0.2741016576309132 0 0  0.3141745521465447 0 0  0.3556974926295285 0 0  0.3987229542472677 0 0  0.4433053055141081 0 0  0.4895008759286886 0 0  0.5373680609405097 0 0  0.5869673343216626 0 0  0.6383613676634521 0 0  0.6916151138468254 0 0  0.7467958595648856 0 0  0.8039733463919316 0 0  0.8632198139502143 0 0  0.9246101326867038 0 0  0.9882218810934433 0 0  1.054135445558498 0 0  1.122434100542598 0 0  1.193204177141305 0 0  1.266535089879536 0 0  1.342519516046404 0 0  1.421253448503939 0 0  1.502836389106271 0 0  1.587371439758838 0 0  1.674965418777374 0 0  1.765729001825544 0 0  1.859776908880082 0 0  1.957227977487062 0 0  2.058205329869943 0 0  2.162836591189951 0 0  2.271253957290865 0 0  2.383594446803425 0 0  2.5 0.1024999999997612 0  2.5 0.2049999999994743 0  2.5 0.3074999999997183 0  2.383594446803656 0.41 0  2.271253957291315 0.41 0  2.162836591190598 0.41 0  2.058205329870775 0.41 0  1.957227977488067 0.41 0  1.859776908881246 0.41 0  1.765729001826854 0.41 0  1.674965418778818 0.41 0  1.58737143976041 0.41 0  1.502836389107956 0.41 0  1.421253448505726 0.41 0  1.342519516048286 0.41 0  1.266535089881505 0.41 0  1.193204177143353 0.41 0  1.122434100544716 0.41 0  1.05413544556068 0.41 0  0.9882218810956305 0.41 0  0.9246101326886647 0.41 0  0.8632198139519631 0.41 0  0.8039733463934788 0.41 0  0.7467958595662458 0.41 0  0.6916151138480078 0.41 0  0.6383613676644679 0.41 0  0.5869673343225223 0.41 0  0.5373680609412221 0.41 0  0.4895008759292634 0.41 0  0.4433053055145528 0.41 0  0.3987229542475914 0.41 0  0.3556974926297398 0.41 0  0.3141745521466497 0.41 0  0.2741016576310038 0.41 0  0.2354281840915826 0.41 0  0.1981052433265003 0.41 0  0.1620856860352591 0.41 0  0.1273239957535623 0.41 0  0.09377624077128965 0.41 0  0.06140001986584975 0.41 0  0.03015443760436654 0.41 0  0.2497468076502589 0.2050254481002335 0  0.2497468076502614 0.1949745518997913 0  0.2469965252529372 0.1829317073451959 0  0.2439893735792749 0.1762316384219906 0  0.2400332147834255 0.1700443375285386 0  0.2352133972704371 0.1645032867342007 0  0.2296339016332438 0.1597280261969788 0  0.2234150974217223 0.1558215752574715 0  0.2166911463437691 0.1528682099456123 0  0.2096071079204251 0.1509316448471593 0  0.2023158100364996 0.1500536585536553 0  0.194974551899914 0.1502531923497262 0  0.1877417105387872 0.1515259415822739 0  0.1807733240461124 0.153844448527136 0  0.1742197252835808 0.15715869474974 0  0.1682222986673531 0.1613971801805478 0  0.162910430003803 0.1664684656256651 0  0.1583987151779087 0.1722631454351573 0  0.1547844879126891 0.178656207771761 0  0.1521457199348551 0.1855097315605723 0  0.1505393388476355 0.1926758619366523 0  0.1505393388476328 0.2073241380633295 0  0.1521457199348437 0.2144902684393899 0  0.1547844879126531 0.221343792228163 0  0.1583987151778488 0.2277368545647528 0  0.1629104300036858 0.2335315343742052 0  0.1682222986671726 0.2386028198193036 0  0.1742197252833576 0.2428413052501257 0  0.1807733240458683 0.2461555514727623 0  0.1877417105384929 0.2484740584176516 0  0.1949745518995776 0.2497468076502398 0  0.202315810036185 0.2499463414463592 0  0.2096071079201568 0.2490683551528932 0  0.2166911463435495 0.2471317900544655 0  0.2234150974215506 0.2441784247426195 0  0.2296339016331197 0.2402719738031125 0  0.2352133972703547 0.2354967132658811 0  0.2400332147833751 0.2299556624715287 0  0.2439893735792577 0.2237683615780412 0  0.246996525252926 0.2170682926548348 0  0.25645809709277 0.21 0  0.2639263993298655 0.21 0  0.271394701566961 0.21 0  0.2788630038040554 0.21 0  0.2863313060411479 0.21 0  0.2937996082782405 0.21 0  0.301267910515333 0.21 0  0.3087362127524279 0.21 0  0.3162045149895234 0.21 0  0.3236728172265972 0.21 0  0.3311411194636928 0.21 0  0.3386094217007701 0.21 0  0.3460777239378666 0.21 0  0.3535460261749672 0.21 0  0.3610143284120516 0.21 0  0.3684826306491596 0.21 0  0.3759509328862226 0.21 0  0.383419235123329 0.21 0  0.3908875373604028 0.21 0  0.3983558395975142 0.21 0  0.4058241418345938 0.21 0  0.4132924440716992 0.21 0  0.4207607463087888 0.21 0  0.4282290485459029 0.21 0  0.4356973507830418 0.21 0  0.4431656530201649 0.21 0  0.4506339552573136 0.21 0  0.4581022574944306 0.21 0  0.4655705597315852 0.21 0  0.4730388619686996 0.21 0  0.480507164205851 0.21 0  0.4879754664429498 0.21 0  0.4954437686800938 0.21 0  0.502912070917267 0.21 0  0.5103803731544119 0.21 0  0.5178486753915261 0.21 0  0.5253169776286404 0.21 0  0.5327852798657868 0.21 0  0.5402535821029386 0.21 0  0.54772188434007 0.21 0  0.5551901865771842 0.21 0  0.5626584888143201 0.21 0  0.5701267910514778 0.21 0  0.5775950932886138 0.21 0  0.5850633955257281 0.21 0  0.5925316977628483 0.21 0  0.6 0.2050000000000054 0  0.6 0.1950000000000217 0  0.5925316977628897 0.19 0  0.5850633955257988 0.19 0  0.5775950932887378 0.19 0  0.5701267910515998 0.19 0  0.5626584888145268 0.19 0  0.5551901865773963 0.19 0  0.547721884340339 0.19 0  0.5402535821032429 0.19 0  0.5327852798661811 0.19 0  0.5253169776290537 0.19 0  0.5178486753919799 0.19 0  0.5103803731549078 0.19 0  0.502912070917822 0.19 0  0.4954437686807294 0.19 0  0.4879754664436223 0.19 0  0.4805071642065402 0.19 0  0.4730388619694271 0.19 0  0.4655705597323621 0.19 0  0.4581022574952563 0.19 0  0.4506339552581777 0.19 0  0.4431656530210671 0.19 0  0.4356973507839815 0.19 0  0.4282290485468779 0.19 0  0.4207607463097617 0.19 0  0.4132924440726327 0.19 0  0.4058241418354857 0.19 0  0.3983558395983636 0.19 0  0.3908875373612097 0.19 0  0.3834192351240934 0.19 0  0.3759509328869369 0.19 0  0.3684826306498175 0.19 0  0.361014328412667 0.19 0  0.3535460261755617 0.19 0  0.3460777239384295 0.19 0  0.3386094217012945 0.19 0  0.3311411194641595 0.19 0  0.3236728172270245 0.19 0  0.3162045149898895 0.19 0  0.3087362127527544 0.19 0  0.3012679105156187 0.19 0  0.2937996082784807 0.19 0  0.2863313060413428 0.19 0  0.2788630038042048 0.19 0  0.2713947015670686 0.19 0  0.2639263993299336 0.19 0  0.2564580970927985 0.19 0  0.2607803159922026 0.2000727136295815 0  0.5887803774232762 0.2001272386983733 0  0.5745072403740523 0.2002044435018727 0  0.5511891430099709 0.2001122610077113 0  0.2751288526855082 0.20000000000002 0  0.5365194309847112 0.1999999999999436 0  0.2894621222999649 0.1998691686390484 0  0.5215828265105155 0.1999999999999228 0  0.3127789816668748 0.1998657885438805 0  0.3274069683451451 0.2000000000000796 0  0.5066462220363641 0.199999999999908 0  0.3650630746574081 0.199866017807523 0  0.476773013087985 0.1999999999998713 0  0.3417402379596385 0.1998691686391011 0  0.3796850840047755 0.200000000000134 0  0.4618364086138087 0.1999999999998546 0  0.4917096175621762 0.1999999999998808 0  0.3946216884789568 0.2000000000001512 0  0.446899804139621 0.1999999999998389 0  0.4089549580935208 0.1998691686391595 0  0.4322718174608562 0.200127451265745 0  0.4201487168029707 0.1999966199048527 0  0.3528922713220932 0.2000185703532356 0  0.5633122436674589 0.1999814296467508 0  0.3006558810093873 0.1999966199048318 0  0.5815926498168407 0.1966545283159175 0  0.2677053789419034 0.1964246479135325 0  0.5290511287476175 0.1970915826863981 0  0.5439877332217911 0.197091582686394 0  0.2825131256993216 0.2035478995978015 0  0.3199386661080599 0.202908417313604 0  0.4842413153250809 0.1970915826863873 0  0.5141145242734466 0.1970915826863843 0  0.3722167817676917 0.2029084173136195 0  0.4693047108508938 0.1970915826863783 0  0.3348752705822316 0.202908417313609 0  0.3871533862418661 0.2029084173136212 0  0.4543681063767183 0.1970915826863795 0  0.4991779197992749 0.1970915826863902 0  0.4020059614928624 0.203547899597858 0  0.4394315019025246 0.1970915826863714 0  0.2550657455369551 0.2034088125358657 0  0.2548908499171161 0.1966940311614271 0  0.5946539510196798 0.2024302972968126 0  0.267698176732111 0.2039977513680092 0  0.4261685417851465 0.196409292431739 0  0.3590076176283495 0.196411355804271 0  0.5571672426447437 0.2036011176410121 0  0.3066757059912147 0.1964092924317024 0  0.594380730180568 0.1966558399668133 0  0.4842413153245942 0.2040749161535287 0  0.4693047108503577 0.2040749161535231 0  0.3871533862424271 0.1959250838464788 0  0.372246743208829 0.1959123236376545 0  0.5141145242731028 0.2040749161535395 0  0.4543681063761134 0.2040749161535186 0  0.4019979587101454 0.1959834479682427 0  0.4394608940728603 0.2040870543693135 0  0.5439623148931173 0.2040856076781014 0  0.5290511287473298 0.2040749161535501 0  0.4991779197988497 0.2040749161535382 0  0.3347912413592433 0.1959225448935183 0  0.3199680582793816 0.1959123018030061 0  0.2825051229162361 0.1959834479681729 0  0.3590471196690275 0.2036304442587945 0  0.5571594006495384 0.1963685282145804 0  0.3067669986803285 0.203627750582736 0  0.4262598344738712 0.2036568242185335 0  0.5814408164431408 0.2041285596160068 0  0.5688286748170428 0.1961819304477386 0  0.4145905603063645 0.2038180695522843 0  0.3473758401724931 0.2038180695522752 0  0.2950977245128307 0.2038180695522663 0  0.5688286748170693 0.203818069552238 0  0.2950977245127906 0.1961819304477774 0  0.3473758401723931 0.1961819304478349 0  0.4145905603061963 0.1961819304479011 0  0.2601812407614425 0.2056861609747042
[...]
<PointData  Vectors="f_46-0"> 
<DataArray  type="Float64"  Name="f_46-0"  NumberOfComponents="3" format="ascii">0.0000000000000000e+00 0.0000000000000000e+00 0.0000000000000000e+00  0.0000000000000000e+00 0.0000000000000000e+00 0.0000000000000000e+00  0.0000000000000000e+00 0.0000000000000000e+00 0.0000000000000000e+00  0.0000000000000000e+00 0.0000000000000000e+00 0.0000000000000000e+00  4.7714114625550938e-05 -2.2632702949904821e-04 0.0000000000000000e+00  6.4327316313132435e-05 -2.2968784258126492e-04 0.0000000000000000e+00  0.0000000000000000e+00 0.0000000000000000e+00 0.0000000000000000e+00  0.0000000000000000e+00 0.0000000000000000e+00 0.0000000000000000e+00  0.0000000000000000e+00 0.0000000000000000e+00 0.0000000000000000e+00  0.0000000000000000e+00 0.0000000000000000e+00 0.0000000000000000e+00  5.5282826582555092e-05 -2.2801463117047162e-04 0.0000000000000000e+00  3.2216135797883599e-02 0.0000000000000000e+00 0.0000000000000000e+00  5.9475943011481368e-02 0.0000000000000000e+00 0.0000000000000000e+00  8.1779421640786887e-02 0.0000000000000000e+00 0.0000000000000000e+00  9.9126571685825990e-02 0.0000000000000000e+00 0.0000000000000000e+00  1.1151739314659644e-01 0.0000000000000000e+00 0.0000000000000000e+00  1.1895188602309748e-01 0.0000000000000000e+00 0.0000000000000000e+00  1.2143005031532167e-01 0.0000000000000000e+00 0.0000000000000000e+00  1.1895188602324779e-01 0.0000000000000000e+00 0.0000000000000000e+00  1.1151739314685462e-01 0.0000000000000000e+00 0.0000000000000000e+00  9.9126571686145734e-02 0.0000000000000000e+00 0.0000000000000000e+00  8.1779421641090644e-02 0.0000000000000000e+00 0.0000000000000000e+00  5.9475943011740556e-02 0.0000000000000000e+00 0.0000000000000000e+00  3.2216135798029642e-02 0.0000000000000000e+00 0.0000000000000000e+00  0.0000000000000000e+00 0.0000000000000000e+00 0.0000000000000000e+00  0.0000000000000000e+00 0.0000000000000000e+00 0.0000000000000000e+00  0.0000000000000000e+00 0.0000000000000000e+00 0.0000000000000000e+00  0.0000000000000000e+00 0.0000000000000000e+00 0.0000000000000000e+00  0.0000000000000000e+00 0.0000000000000000e+00 0.0000000000000000e+00  0.0000000000000000e+00 0.0000000000000000e+00 0.0000000000000000e+00  0.0000000000000000e+00 0.0000000000000000e+00 0.0000000000000000e+00  0.0000000000000000e+00 0.0000000000000000e+00 0.0000000000000000e+00  0.0000000000000000e+00 0.0000000000000000e+00 0.0000000000000000e+00  0.0000000000000000e+00 0.0000000000000000e+00 0.0000000000000000e+00  0.0000000000000000e+00 0.0000000000000000e+00 0.0000000000000000e+00  0.0000000000000000e+00 0.0000000000000000e+00 0.0000000000000000e+00  0.0000000000000000e+00 0.0000000000000000e+00 0.0000000000000000e+00  0.0000000000000000e+00 0.0000000000000000e+00 0.0000000000000000e+00  0.0000000000000000e+00 0.0000000000000000e+00 0.0000000000000000e+00  0.0000000000000000e+00 0.0000000000000000e+00 0.0000000000000000e+00  0.0000000000000000e+00 0.0000000000000000e+00 0.0000000000000000e+00  0.0000000000000000e+00 0.0000000000000000e+00 0.0000000000000000e+00  0.0000000000000000e+00 0.0000000000000000e+00 0.0000000000000000e+00  0.0000000000000000e+00 0.0000000000000000e+00 0.0000000000000000e+00  0.0000000000000000e+00 0.0000000000000000e+00 0.0000000000000000e+00  0.0000000000000000e+00 0.0000000000000000e+00 0.0000000000000000e+00  0.0000000000000000e+00 0.0000000000000000e+00 0.0000000000000000e+00  0.0000000000000000e+00 0.0000000000000000e+00 0.0000000000000000e+00  0.0000000000000000e+00 0.0000000000000000e+00 0.0000000000000000e+00  0.0000000000000000e+00 0.0000000000000000e+00 0.0000000000000000e+00  0.0000000000000000e+00 0.0000000000000000e+00 0.0000000000000000e+00  0.0000000000000000e+00 0.0000000000000000e+00 0.0000000000000000e+00  0.0000000000000000e+00 0.0000000000000000e+00 0.0000000000000000e+00  0.0000000000000000e+00 0.0000000000000000e+00 0.0000000000000000e+00  0.0000000000000000e+00 0.0000000000000000e+00 0.0000000000000000e+00  0.0000000000000000e+00 0.0000000000000000e+00 0.0000000000000000e+00  0.0000000000000000e+00 0.0000000000000000e+00 0.0000000000000000e+00  0.0000000000000000e+00 0.0000000000000000e+00 0.0000000000000000e+00  0.0000000000000000e+00 0.0000000000000000e+00 0.0000000000000000e+00  0.0000000000000000e+00 0.0000000000000000e+00 0.0000000000000000e+00  0.0000000000000000e+00 0.0000000000000000e+00 0.0000000000000000e+00  0.0000000000000000e+00 0.0000000000000000e+00 0.0000000000000000e+00  1.1598823874542342e-01 1.3768283181526259e-02 0.0000000000000000e+00  8.8878284468653215e-02 1.5727033877827750e-03 0.0000000000000000e+00  1.1728244069783995e-01 -1.4388859816495857e-02 0.0000000000000000e+00  0.0000000000000000e+00 0.0000000000000000e+00 0.0000000000000000e+00  0.0000000000000000e+00 0.0000000000000000e+00 0.0000000000000000e+00  0.0000000000000000e+00 0.0000000000000000e+00 0.0000000000000000e+00  0.0000000000000000e+00 0.0000000000000000e+00 0.0000000000000000e+00  0.0000000000000000e+00 0.0000000000000000e+00 0.0000000000000000e+00  0.0000000000000000e+00 0.0000000000000000e+00 0.0000000000000000e+00  0.0000000000000000e+00 0.0000000000000000e+00 0.0000000000000000e+00  0.0000000000000000e+00 0.0000000000000000e+00 0.0000000000000000e+00  0.0000000000000000e+00 0.0000000000000000e+00 0.0000000000000000e+00  0.0000000000000000e+00 0.0000000000000000e+00 0.0000000000000000e+00  0.0000000000000000e+00 0.0000000000000000e+00 0.0000000000000000e+00  0.0000000000000000e+00 0.0000000000000000e+00 0.0000000000000000e+00  0.0000000000000000e+00 0.0000000000000000e+00 0.0000000000000000e+00  0.0000000000000000e+00 0.0000000000000000e+00 0.0000000000000000e+00  0.0000000000000000e+00 0.0000000000000000e+00 0.0000000000000000e+00  0.0000000000000000e+00 0.0000000000000000e+00 0.0000000000000000e+00  0.0000000000000000e+00 0.0000000000000000e+00 0.0000000000000000e+00  0.0000000000000000e+00 0.0000000000000000e+00 0.0000000000000000e+00  0.0000000000000000e+00 0.0000000000000000e+00 0.0000000000000000e+00  0.0000000000000000e+00 0.0000000000000000e+00 0.0000000000000000e+00  0.0000000000000000e+00 0.0000000000000000e+00 0.0000000000000000e+00  0.0000000000000000e+00 0.0000000000000000e+00 0.0000000000000000e+00  0.0000000000000000e+00 0.0000000000000000e+00 0.0000000000000000e+00  0.0000000000000000e+00 0.0000000000000000e+00 0.0000000000000000e+00  0.0000000000000000e+00 0.0000000000000000e+00 0.0000000000000000e+00  0.0000000000000000e+00 0.0000000000000000e+00 0.0000000000000000e+00  0.0000000000000000e+00 0.0000000000000000e+00 0.0000000000000000e+00  0.0000000000000000e+00 0.0000000000000000e+00 0.0000000000000000e+00  0.0000000000000000e+00 0.0000000000000000e+00 0.0000000000000000e+00  0.0000000000000000e+00 0.0000000000000000e+00 0.0000000000000000e+00  0.0000000000000000e+00 0.0000000000000000e+00 0.0000000000000000e+00  0.0000000000000000e+00 0.0000000000000000e+00 0.0000000000000000e+00  0.0000000000000000e+00 0.0000000000000000e+00 0.0000000000000000e+00  0.0000000000000000e+00 0.0000000000000000e+00 0.0000000000000000e+00  0.0000000000000000e+00 0.0000000000000000e+00 0.0000000000000000e+00  0.0000000000000000e+00 0.0000000000000000e+00 0.0000000000000000e+00  0.0000000000000000e+00 0.0000000000000000e+00 0.0000000000000000e+00  0.0000000000000000e+00 0.0000000000000000e+00 0.0000000000000000e+00  0.0000000000000000e+00 0.0000000000000000e+00 0.0000000000000000e+00  0.0000000000000000e+00 0.0000000000000000e+00 0.0000000000000000e+00  2.4994326734018554e-16 0.0000000000000000e+00 0.0000000000000000e+00  0.0000000000000000e+00 0.0000000000000000e+00 0.0000000000000000e+00  0.0000000000000000e+00 0.0000000000000000e+00 0.0000000000000000e+00  0.0000000000000000e+00 0.0000000000000000e+00 0.0000000000000000e+00  0.0000000000000000e+00 0.0000000000000000e+00 0.0000000000000000e+00  0.0000000000000000e+00 0.0000000000000000e+00 0.0000000000000000e+00  0.0000000000000000e+00 0.0000000000000000e+00 0.0000000000000000e+00  0.0000000000000000e+00 0.0000000000000000e+00 0.0000000000000000e+00  0.0000000000000000e+00 0.0000000000000000e+00 0.0000000000000000e+00  0.0000000000000000e+00 0.0000000000000000e+00 0.0000000000000000e+00  0.0000000000000000e+00 0.0000000000000000e+00 0.0000000000000000e+00  0.0000000000000000e+00 0.0000000000000000e+00 0.0000000000000000e+00  0.0000000000000000e+00 0.0000000000000000e+00 0.0000000000000000e+00  0.0000000000000000e+00 0.0000000000000000e+00 0.0000000000000000e+00  0.0000000000000000e+00 0.0000000000000000e+00 0.0000000000000000e+00  0.0000000000000000e+00 0.0000000000000000e+00 0.0000000000000000e+00  0.0000000000000000e+00 0.0000000000000000e+00 0.0000000000000000e+00  0.0000000000000000e+00 0.0000000000000000e+00 0.0000000000000000e+00  0.0000000000000000e+00 0.0000000000000000e+00 0.0000000000000000e+00  0.0000000000000000e+00 0.0000000000000000e+00 0.0000000000000000e+00  0.0000000000000000e+00 0.0000000000000000e+00 0.0000000000000000e+00  0.0000000000000000e+00 0.0000000000000000e+00 0.0000000000000000e+00  0.0000000000000000e+00 0.0000000000000000e+00 0.0000000000000000e+00  0.0000000000000000e+00 0.0000000000000000e+00 0.0000000000000000e+00  0.0000000000000000e+00 0.0000000000000000e+00 0.0000000000000000e+00  0.0000000000000000e+00 0.0000000000000000e+00 0.0000000000000000e+00  0.0000000000000000e+00 0.0000000000000000e+00 0.0000000000000000e+00  0.0000000000000000e+00 0.0000000000000000e+00 0.0000000000000000e+00  0.0000000000000000e+00 0.0000000000000000e+00 0.0000000000000000e+00  0.0000000000000000e+00 0.0000000000000000e+00 0.0000000000000000e+00  0.0000000000000000e+00 0.0000000000000000e+00 0.0000000000000000e+00  0.0000000000000000e+00 0.0000000000000000e+00 0.0000000000000000e+00  0.0000000000000000e+00 0.0000000000000000e+00 0.0000000000000000e+00  0.0000000000000000e+00 0.0000000000000000e+00 0.0000000000000000e+00  0.0000000000000000e+00 0.0000000000000000e+00 0.0000000000000000e+00  0.0000000000000000e+00 0.0000000000000000e+00 0.0000000000000000e+00  0.0000000000000000e+00 0.0000000000000000e+00 0.0000000000000000e+00  -3.8064551762378636e-12 1.7249872011210703e-18 0.0000000000000000e+00  2.4203713088196825e-06 -4.4300577561550280e-06 0.0000000000000000e+00  5.1268328732899994e-06 -5.3841722507444166e-06 0.0000000000000000e+00  8.0084163169396659e-06 -6.5044079441354168e-06 0.0000000000000000e+00  1.1024331570647549e-05 -7.9319510864612089e-06 0.0000000000000000e+00  1.3946327428954228e-05 -9.6976848319308952e-06 0.0000000000000000e+00  1.6877264558812724e-05 -1.1889692392483133e-05 0.0000000000000000e+00  1.9654767908114407e-05 -1.4354739715462103e-05 0.0000000000000000e+00  2.2348656313554454e-05 -1.7185844646461177e-05 0.0000000000000000e+00  2.5051230022596292e-05 -2.0302212262894900e-05 0.0000000000000000e+00  2.7560093035645465e-05 -2.3673606342374942e-05 0.0000000000000000e+00  3.0076279877183283e-05 -2.7361495159630638e-05 0.0000000000000000e+00  3.2411903727920764e-05 -3.1250373868029621e-05 0.0000000000000000e+00  3.4719537662597310e-05 -3.5399712112043254e-05 0.0000000000000000e+00  3.6893028781995505e-05 -3.9731354799065984e-05 0.0000000000000000e+00  3.8975431788305982e-05 -4.4275850060533925e-05 0.0000000000000000e+00  4.1031234048414358e-05 -4.8999346211071885e-05 0.0000000000000000e+00  4.2933763237084553e-05 -5.3846393429417868e-05 0.0000000000000000e+00  4.4800122990969729e-05 -5.8895403050912216e-05 0.0000000000000000e+00  4.6531612947042601e-05 -6.4020419884670964e-05 0.0000000000000000e+00  4.8220887276152279e-05 -6.9316447422284211e-05 0.0000000000000000e+00  4.9794223905079690e-05 -7.4670815019336378e-05 0.0000000000000000e+00  5.1295571373071946e-05 -8.0157032733958405e-05 0.0000000000000000e+00  5.2711169393611541e-05 -8.5712881644863014e-05 0.0000000000000000e+00  5.4043745631412974e-05 -9.1349093864024676e-05 0.0000000000000000e+00  5.5329129999248283e-05 -9.7062390192170146e-05 0.0000000000000000e+00  5.6509676903784595e-05 -1.0280569960708280e-04 0.0000000000000000e+00  5.7614155842181730e-05 -1.0865355968299537e-04 0.0000000000000000e+00  5.8637517564068874e-05 -1.1449452940319487e-04 0.0000000000000000e+00  5.9585892439700922e-05 -1.2042445110289284e-04 0.0000000000000000e+00  6.0456075017790176e-05 -1.2634004216953960e-04 0.0000000000000000e+00  6.1253579104456112e-05 -1.3233007738183391e-04 0.0000000000000000e+00  6.1972793798605402e-05 -1.3829402651307555e-04 0.0000000000000000e+00  6.2621522272260821e-05 -1.4432488083101477e-04 0.0000000000000000e+00  6.3192188774419003e-05 -1.5032017770850097e-04 0.0000000000000000e+00  6.3688461664611288e-05 -1.5638047141891434e-04 0.0000000000000000e+00  6.4111977127884881e-05 -1.6240094146331561e-04 0.0000000000000000e+00  6.4464010389820160e-05 -1.6847728440236675e-04 0.0000000000000000e+00  6.4742737386392572e-05 -1.7451285797225822e-04 0.0000000000000000e+00  6.4947589563759344e-05 -1.8060185661082222e-04 0.0000000000000000e+00  6.5075117565467489e-05 -1.8664799484809783e-04 0.0000000000000000e+00  6.5117926994510213e-05 -1.9272754148059266e-04 0.0000000000000000e+00  6.5100607107546090e-05 -1.9879297612500035e-04 0.0000000000000000e+00  6.5000223760922505e-05 -2.0486923800166167e-04 0.0000000000000000e+00  6.4855103535222078e-05 -2.1094380151620270e-04 0.0000000000000000e+00  6.4620375131454777e-05 -2.1699141954634375e-04 0.0000000000000000e+00  6.4395888354608485e-05 -2.2313209752487548e-04 0.0000000000000000e+00  5.9556439878246929e-05 -2.2883948176478572e-04 0.0000000000000000e+00  5.1276252953692689e-05 -2.2719622678332138e-04 0.0000000000000000e+00  4.7808123732007232e-05 -2.2051368818568323e-04 0.0000000000000000e+00  4.8072158449329019e-05 -2.1426656006587932e-04 0.0000000000000000e+00  4.8329311985661309e-05 -2.0797299372965407e-04 0.0000000000000000e+00  4.8498647068485269e-05 -2.0172310512284010e-04 0.0000000000000000e+00  4.8617767964703188e-05 -1.9547988605823045e-04 0.0000000000000000e+00  4.8647798437375742e-05 -1.8924383903361195e-04 0.0000000000000000e+00  4.8618018755045024e-05 -1.8302713604856640e-04 0.0000000000000000e+00  4.8502081253226929e-05 -1.7678464653124131e-04 0.0000000000000000e+00  4.8315756123288521e-05 -1.7059575612532888e-04 0.0000000000000000e+00  4.8056012952648118e-05 -1.6436242181090428e-04 0.0000000000000000e+00  4.7729652100842918e-05 -1.5818712081280183e-04 0.0000000000000000e+00  4.7331172977001197e-05 -1.5196944437167803e-04 0.0000000000000000e+00  4.6867787803281957e-05 -1.4581259028115121e-04 0.0000000000000000e+00  4.6334151419396573e-05 -1.3962086807862070e-04 0.0000000000000000e+00  4.5741060467977083e-05 -1.3349375961871875e-04 0.0000000000000000e+00  4.5075930925507875e-05 -1.2733754955063410e-04 0.0000000000000000e+00  4.4356216547338749e-05 -1.2125215038740825e-04 0.0000000000000000e+00  4.3563865747583401e-05 -1.1514537776396763e-04 0.0000000000000000e+00  4.2721387969519724e-05 -1.0912021388004337e-04 0.0000000000000000e+00  4.1805214383417333e-05 -1.0308886395571724e-04 0.0000000000000000e+00  4.0845799692524371e-05 -9.7150544572203307e-05 0.0000000000000000e+00  3.9808418410377548e-05 -9.1221229201705819e-05 0.0000000000000000e+00  3.8723425329413076e-05 -8.5383999699607457e-05 0.0000000000000000e+00  3.7576017546919180e-05 -7.9596793705176292e-05 0.0000000000000000e+00  3.6362810440689359e-05 -7.3903620400291064e-05 0.0000000000000000e+00  3.5133288147447082e-05 -6.8285997666851653e-05 0.0000000000000000e+00  3.3819810937862572e-05 -6.2751258370117235e-05 0.0000000000000000e+00  3.2465983787052055e-05 -5.7360626586551321e-05 0.0000000000000000e+00  3.1046659854876686e-05 -5.2049195220257422e-05 0.0000000000000000e+00  2.9589010794666184e-05 -4.6909925012262081e-05 0.0000000000000000e+00  2.8065725470262189e-05 -4.1870126596931950e-05 0.0000000000000000e+00  2.6517720005370721e-05 -3.7040354156728959e-05 0.0000000000000000e+00  2.4896346399161156e-05 -3.2343007777017893e-05 0.0000000000000000e+00  2.3220781516102353e-05 -2.7881070223705028e-05 0.0000000000000000e+00  2.1564775122887410e-05 -2.3587806973664571e-05 0.0000000000000000e+00  1.9820985142983462e-05 -1.9533774447599492e-05 0.0000000000000000e+00  1.8057200297219383e-05 -1.5755334946262862e-05 0.0000000000000000e+00  1.6225539728866643e-05 -1.2205269192743508e-05 0.0000000000000000e+00  1.4401500310596674e-05 -8.9937208175827938e-06 0.0000000000000000e+00  1.2484178447150588e-05 -6.0322342315690560e-06 0.0000000000000000e+00  1.0521550279524516e-05 -3.4561228361591292e-06 0.0000000000000000e+00  8.6243822517861313e-06 -1.1690095791731188e-06 0.0000000000000000e+00  6.6352309601825730e-06 7.5502824194908891e-07 0.0000000000000000e+00  4.7475635642083790e-06 2.2653984414999135e-06 0.0000000000000000e+00  2.8879433909527587e-06 3.2446219713767564e-06 0.0000000000000000e+00  1.3546052165384883e-06 3.5618716706371345e-06 0.0000000000000000e+00  2.3144807771168673e-06 -4.7676966052242545e-07 0.0000000000000000e+00  5.6050874953564286e-05 -2.1871650927198118e-04 0.0000000000000000e+00  5.6732908523034790e-05 -2.0693230785415347e-04 0.0000000000000000e+00  5.6868033178390216e-05 -1.8770774975009625e-04 0.0000000000000000e+00  7.5309073491756090e-06 -2.5492429470061352e-06 0.0000000000000000e+00  5.6522525306901472e-05 -1.7561828608582660e-04 0.0000000000000000e+00  1.2213221443669804e-05 -6.0299821341312482e-06 0.0000000000000000e+00  5.5988295151681612e-05 -1.6334988588930427e-04 0.0000000000000000e+00  1.9467775179474449e-05 -1.4515952869411207e-05 0.0000000000000000e+00  2.3788008711814253e-05 -2.1382590046118833e-05 0.0000000000000000e+00  5.5168424660600478e-05 -1.5111155089523852e-04 0.0000000000000000e+00  3.3556134086978041e-05 -4.3065727032301815e-05 0.0000000000000000e+00  5.2685168993275897e-05 -1.2679380884078880e-04 0.0000000000000000e+00  2.7672564547313725e-05 -2.8958964759127658e-05 0.0000000000000000e+00  3.6995423337786952e-05 -5.2816193015162112e-05 0.0000000000000000e+00  5.1027257059330451e-05 -1.1476752874332996e-04 0.0000000000000000e+00  5.4066522614463872e-05 -1.3891842091061471e-04 0.0000000000000000e+00  4.0164767682948146e-05 -6.3271130816334501e-05 0.0000000000000000e+00  4.9093192332281421e-05 -1.0288625252807427e-04 0.0000000000000000e+00  4.2860767640265928e-05 -7.3687732072722065e-05 0.0000000000000000e+00  4.7040851030769154e-05 -9.1478467906872123e-05 0.0000000000000000e+00  4.4919746455287496e-05 -8.2151439378627238e-05 0.0000000000000000e+00  3.0626722698930710e-05 -3.5555964900523767e-05 0.0000000000000000e+00  5.6708693944935227e-05 -1.9766915375922278e-04 0.0000000000000000e+00  1.5780014046465439e-05 -9.8151049770885624e-06 0.0000000000000000e+00  5.3549470125519133e-05 -2.1229773199531423e-04 0.0000000000000000e+00  4.4524007971497437e-06 3.1353254868991999e-07 0.0000000000000000e+00  5.3906683540862158e-05 -1.6889798910402827e-04 0.0000000000000000e+00  5.4293540411088610e-05 -1.8121973076754239e-04 0.0000000000000000e+00  1.0832725120282970e-05 -5.7651283361308001e-06 0.0000000000000000e+00  2.2976292426626715e-05 -1.8959546546401618e-05 0.0000000000000000e+00  5.1057035856481171e-05 -1.3213645160125946e-04 0.0000000000000000e+00  5.3236084558633258e-05 -1.5660030650115127e-04 0.0000000000000000e+00  3.7228028991963801e-05 -4.8822502929498287e-05 0.0000000000000000e+00  4.9558498656176351e-05 -1.2001490454907574e-04 0.0000000000000000e+00  2.7406143030288397e-05 -2.6396380164142668e-05 0.0000000000000000e+00  4.0635724871481625e-05 -5.8976455573167114e-05 0.0000000000000000e+00  4.7791332270088895e-05 -1.0801395601778171e-04 0.0000000000000000e+00  5.2284338129685583e-05 -1.4433945531450181e-04 0.0000000000000000e+00  4.4210699073242665e-05 -6.9776243971255583e-05 0.0000000000000000e+00  4.5760099011677996e-05 -9.6185936452997789e-05 0.0000000000000000e+00  7.2453915707854490e-07 -1.0830148630211835e-06 0.0000000000000000e+00  5.1344143211491662e-07 8.0709494666266337e-07 0.0000000000000000e+00  5.7617699013271915e-05 -2.2389499893591739e-04 0.0000000000000000e+00  5.5174562912477902e-06 -3.1440517635911919e-06 0.0000000000000000e+00  4.32217580