<?xml version="1.0"?>
<VTKFile type="UnstructuredGrid"  version="0.1"  >
<UnstructuredGrid>
<Piece  NumberOfPoints="1419" NumberOfCells="2698">
<Points>
<DataArray  type="Float64"  NumberOfComponents="3"  format="ascii">0 0 0  0 0.41 0  2.5 0 0  2.5 0.41 0  0.6 0.19 0  0.6 0.21 0  0.25 0.2 0  0.15 0.2 0  0.2489897948556636 0.21 0  0.2489897948556636 0.19 0  0.6 0.2 0  0 0.3807142857143437 0  0 0.3514285714286952 0  0 0.3221428571430699 0  0 0.29285714285744 0  0 0.2635714285718054 0  0 0.2342857142861561 0  0 0.2050000000005308 0  0 0.175714285714732 0  0 0.1464285714289574 0  0 0.1171428571431897 0  0 0.08785714285737878 0  0 0.05857142857161107 0  0 0.02928571428580012 0  0.03015443760436003 0 0  0.06140001986583606 0 0  0.09377624077125973 0 0  0.1273239957535082 0 0  0.1620856860351972 0 0  0.1981052433264291 0 0  0.235428184091502 0 0  0.2741016576309132 0 0  0.3141745521465447 0 0  0.3556974926295285 0 0  0.3987229542472677 0 0  0.4433053055141081 0 0  0.4895008759286886 0 0  0.5373680609405097 0 0  0.5869673343216626 0 0  0.6383613676634521 0 0  0.6916151138468254 0 0  0.7467958595648856 0 0  0.8039733463919316 0 0  0.8632198139502143 0 0  0.9246101326867038 0 0  0.9882218810934433 0 0  1.054135445558498 0 0  1.122434100542598 0 0  1.193204177141305 0 0  1.266535089879536 0 0  1.342519516046404 0 0  1.421253448503939 0 0  1.502836389106271 0 0  1.587371439758838 0 0  1.674965418777374 0 0  1.765729001825544 0 0  1.859776908880082 0 0  1.957227977487062 0 0  2.058205329869943 0 0  2.162836591189951 0 0  2.271253957290865 0 0  2.383594446803425 0 0  2.5 0.1024999999997612 0  2.5 0.2049999999994743 0  2.5 0.3074999999997183 0  2.383594446803656 0.41 0  2.271253957291315 0.41 0  2.162836591190598 0.41 0  2.058205329870775 0.41 0  1.957227977488067 0.41 0  1.859776908881246 0.41 0  1.765729001826854 0.41 0  1.674965418778818 0.41 0  1.58737143976041 0.41 0  1.502836389107956 0.41 0  1.421253448505726 0.41 0  1.342519516048286 0.41 0  1.266535089881505 0.41 0  1.193204177143353 0.41 0  1.122434100544716 0.41 0  1.05413544556068 0.41 0  0.9882218810956305 0.41 0  0.9246101326886647 0.41 0  0.8632198139519631 0.41 0  0.8039733463934788 0.41 0  0.7467958595662458 0.41 0  0.6916151138480078 0.41 0  0.6383613676644679 0.41 0  0.5869673343225223 0.41 0  0.5373680609412221 0.41 0  0.4895008759292634 0.41 0  0.4433053055145528 0.41 0  0.3987229542475914 0.41 0  0.3556974926297398 0.41 0  0.3141745521466497 0.41 0  0.2741016576310038 0.41 0  0.2354281840915826 0.41 0  0.1981052433265003 0.41 0  0.1620856860352591 0.41 0  0.1273239957535623 0.41 0  0.09377624077128965 0.41 0  0.06140001986584975 0.41 0  0.03015443760436654 0.41 0  0.2497468076502589 0.2050254481002335 0  0.2497468076502614 0.1949745518997913 0  0.2469965252529372 0.1829317073451959 0  0.2439893735792749 0.1762316384219906 0  0.2400332147834255 0.1700443375285386 0  0.2352133972704371 0.1645032867342007 0  0.2296339016332438 0.1597280261969788 0  0.2234150974217223 0.1558215752574715 0  0.2166911463437691 0.1528682099456123 0  0.2096071079204251 0.1509316448471593 0  0.2023158100364996 0.1500536585536553 0  0.194974551899914 0.1502531923497262 0  0.1877417105387872 0.1515259415822739 0  0.1807733240461124 0.153844448527136 0  0.1742197252835808 0.15715869474974 0  0.1682222986673531 0.1613971801805478 0  0.162910430003803 0.1664684656256651 0  0.1583987151779087 0.1722631454351573 0  0.1547844879126891 0.178656207771761 0  0.1521457199348551 0.1855097315605723 0  0.1505393388476355 0.1926758619366523 0  0.1505393388476328 0.2073241380633295 0  0.1521457199348437 0.2144902684393899 0  0.1547844879126531 0.221343792228163 0  0.1583987151778488 0.2277368545647528 0  0.1629104300036858 0.2335315343742052 0  0.1682222986671726 0.2386028198193036 0  0.1742197252833576 0.2428413052501257 0  0.1807733240458683 0.2461555514727623 0  0.1877417105384929 0.2484740584176516 0  0.1949745518995776 0.2497468076502398 0  0.202315810036185 0.2499463414463592 0  0.2096071079201568 0.2490683551528932 0  0.2166911463435495 0.2471317900544655 0  0.2234150974215506 0.2441784247426195 0  0.2296339016331197 0.2402719738031125 0  0.2352133972703547 0.2354967132658811 0  0.2400332147833751 0.2299556624715287 0  0.2439893735792577 0.2237683615780412 0  0.246996525252926 0.2170682926548348 0  0.25645809709277 0.21 0  0.2639263993298655 0.21 0  0.271394701566961 0.21 0  0.2788630038040554 0.21 0  0.2863313060411479 0.21 0  0.2937996082782405 0.21 0  0.301267910515333 0.21 0  0.3087362127524279 0.21 0  0.3162045149895234 0.21 0  0.3236728172265972 0.21 0  0.3311411194636928 0.21 0  0.3386094217007701 0.21 0  0.3460777239378666 0.21 0  0.3535460261749672 0.21 0  0.3610143284120516 0.21 0  0.3684826306491596 0.21 0  0.3759509328862226 0.21 0  0.383419235123329 0.21 0  0.3908875373604028 0.21 0  0.3983558395975142 0.21 0  0.4058241418345938 0.21 0  0.4132924440716992 0.21 0  0.4207607463087888 0.21 0  0.4282290485459029 0.21 0  0.4356973507830418 0.21 0  0.4431656530201649 0.21 0  0.4506339552573136 0.21 0  0.4581022574944306 0.21 0  0.4655705597315852 0.21 0  0.4730388619686996 0.21 0  0.480507164205851 0.21 0  0.4879754664429498 0.21 0  0.4954437686800938 0.21 0  0.502912070917267 0.21 0  0.5103803731544119 0.21 0  0.5178486753915261 0.21 0  0.5253169776286404 0.21 0  0.5327852798657868 0.21 0  0.5402535821029386 0.21 0  0.54772188434007 0.21 0  0.5551901865771842 0.21 0  0.5626584888143201 0.21 0  0.5701267910514778 0.21 0  0.5775950932886138 0.21 0  0.5850633955257281 0.21 0  0.5925316977628483 0.21 0  0.6 0.2050000000000054 0  0.6 0.1950000000000217 0  0.5925316977628897 0.19 0  0.5850633955257988 0.19 0  0.5775950932887378 0.19 0  0.5701267910515998 0.19 0  0.5626584888145268 0.19 0  0.5551901865773963 0.19 0  0.547721884340339 0.19 0  0.5402535821032429 0.19 0  0.5327852798661811 0.19 0  0.5253169776290537 0.19 0  0.5178486753919799 0.19 0  0.5103803731549078 0.19 0  0.502912070917822 0.19 0  0.4954437686807294 0.19 0  0.4879754664436223 0.19 0  0.4805071642065402 0.19 0  0.4730388619694271 0.19 0  0.4655705597323621 0.19 0  0.4581022574952563 0.19 0  0.4506339552581777 0.19 0  0.4431656530210671 0.19 0  0.4356973507839815 0.19 0  0.4282290485468779 0.19 0  0.4207607463097617 0.19 0  0.4132924440726327 0.19 0  0.4058241418354857 0.19 0  0.3983558395983636 0.19 0  0.3908875373612097 0.19 0  0.3834192351240934 0.19 0  0.3759509328869369 0.19 0  0.3684826306498175 0.19 0  0.361014328412667 0.19 0  0.3535460261755617 0.19 0  0.3460777239384295 0.19 0  0.3386094217012945 0.19 0  0.3311411194641595 0.19 0  0.3236728172270245 0.19 0  0.3162045149898895 0.19 0  0.3087362127527544 0.19 0  0.3012679105156187 0.19 0  0.2937996082784807 0.19 0  0.2863313060413428 0.19 0  0.2788630038042048 0.19 0  0.2713947015670686 0.19 0  0.2639263993299336 0.19 0  0.2564580970927985 0.19 0  0.2607803159922026 0.2000727136295815 0  0.5887803774232762 0.2001272386983733 0  0.5745072403740523 0.2002044435018727 0  0.5511891430099709 0.2001122610077113 0  0.2751288526855082 0.20000000000002 0  0.5365194309847112 0.1999999999999436 0  0.2894621222999649 0.1998691686390484 0  0.5215828265105155 0.1999999999999228 0  0.3127789816668748 0.1998657885438805 0  0.3274069683451451 0.2000000000000796 0  0.5066462220363641 0.199999999999908 0  0.3650630746574081 0.199866017807523 0  0.476773013087985 0.1999999999998713 0  0.3417402379596385 0.1998691686391011 0  0.3796850840047755 0.200000000000134 0  0.4618364086138087 0.1999999999998546 0  0.4917096175621762 0.1999999999998808 0  0.3946216884789568 0.2000000000001512 0  0.446899804139621 0.1999999999998389 0  0.4089549580935208 0.1998691686391595 0  0.4322718174608562 0.200127451265745 0  0.4201487168029707 0.1999966199048527 0  0.3528922713220932 0.2000185703532356 0  0.5633122436674589 0.1999814296467508 0  0.3006558810093873 0.1999966199048318 0  0.5815926498168407 0.1966545283159175 0  0.2677053789419034 0.1964246479135325 0  0.5290511287476175 0.1970915826863981 0  0.5439877332217911 0.197091582686394 0  0.2825131256993216 0.2035478995978015 0  0.3199386661080599 0.202908417313604 0  0.4842413153250809 0.1970915826863873 0  0.5141145242734466 0.1970915826863843 0  0.3722167817676917 0.2029084173136195 0  0.4693047108508938 0.1970915826863783 0  0.3348752705822316 0.202908417313609 0  0.3871533862418661 0.2029084173136212 0  0.4543681063767183 0.1970915826863795 0  0.4991779197992749 0.1970915826863902 0  0.4020059614928624 0.203547899597858 0  0.4394315019025246 0.1970915826863714 0  0.2550657455369551 0.2034088125358657 0  0.2548908499171161 0.1966940311614271 0  0.5946539510196798 0.2024302972968126 0  0.267698176732111 0.2039977513680092 0  0.4261685417851465 0.196409292431739 0  0.3590076176283495 0.196411355804271 0  0.5571672426447437 0.2036011176410121 0  0.3066757059912147 0.1964092924317024 0  0.594380730180568 0.1966558399668133 0  0.4842413153245942 0.2040749161535287 0  0.4693047108503577 0.2040749161535231 0  0.3871533862424271 0.1959250838464788 0  0.372246743208829 0.1959123236376545 0  0.5141145242731028 0.2040749161535395 0  0.4543681063761134 0.2040749161535186 0  0.4019979587101454 0.1959834479682427 0  0.4394608940728603 0.2040870543693135 0  0.5439623148931173 0.2040856076781014 0  0.5290511287473298 0.2040749161535501 0  0.4991779197988497 0.2040749161535382 0  0.3347912413592433 0.1959225448935183 0  0.3199680582793816 0.1959123018030061 0  0.2825051229162361 0.1959834479681729 0  0.3590471196690275 0.2036304442587945 0  0.5571594006495384 0.1963685282145804 0  0.3067669986803285 0.203627750582736 0  0.4262598344738712 0.2036568242185335 0  0.5814408164431408 0.2041285596160068 0  0.5688286748170428 0.1961819304477386 0  0.4145905603063645 0.2038180695522843 0  0.3473758401724931 0.2038180695522752 0  0.2950977245128307 0.2038180695522663 0  0.5688286748170693 0.203818069552238 0  0.2950977245127906 0.1961819304477774 0  0.3473758401723931 0.1961819304478349 0  0.4145905603061963 0.1961819304479011 0  0.2601812407614425 0.2056861609747042
[...]
<PointData  Vectors="f_46-0"> 
<DataArray  type="Float64"  Name="f_46-0"  NumberOfComponents="3" format="ascii">0.0000000000000000e+00 0.0000000000000000e+00 0.0000000000000000e+00  0.0000000000000000e+00 0.0000000000000000e+00 0.0000000000000000e+00  0.0000000000000000e+00 0.0000000000000000e+00 0.0000000000000000e+00  0.0000000000000000e+00 0.0000000000000000e+00 0.0000000000000000e+00  6.3266549253669578e-05 -4.9107714024281327e-04 0.0000000000000000e+00  1.0094915502107359e-04 -4.8306637179502704e-04 0.0000000000000000e+00  0.0000000000000000e+00 0.0000000000000000e+00 0.0000000000000000e+00  0.0000000000000000e+00 0.0000000000000000e+00 0.0000000000000000e+00  0.0000000000000000e+00 0.0000000000000000e+00 0.0000000000000000e+00  0.0000000000000000e+00 0.0000000000000000e+00 0.0000000000000000e+00  8.2247978058001356e-05 -4.8706687871914088e-04 0.0000000000000000e+00  7.5962436338519915e-02 0.0000000000000000e+00 0.0000000000000000e+00  1.4023834400958457e-01 0.0000000000000000e+00 0.0000000000000000e+00  1.9282772301317874e-01 0.0000000000000000e+00 0.0000000000000000e+00  2.3373057334936354e-01 0.0000000000000000e+00 0.0000000000000000e+00  2.6294689501813345e-01 0.0000000000000000e+00 0.0000000000000000e+00  2.8047668801948683e-01 0.0000000000000000e+00 0.0000000000000000e+00  2.8631995235340613e-01 0.0000000000000000e+00 0.0000000000000000e+00  2.8047668801984127e-01 0.0000000000000000e+00 0.0000000000000000e+00  2.6294689501874224e-01 0.0000000000000000e+00 0.0000000000000000e+00  2.3373057335011746e-01 0.0000000000000000e+00 0.0000000000000000e+00  1.9282772301389500e-01 0.0000000000000000e+00 0.0000000000000000e+00  1.4023834401019575e-01 0.0000000000000000e+00 0.0000000000000000e+00  7.5962436338864292e-02 0.0000000000000000e+00 0.0000000000000000e+00  0.0000000000000000e+00 0.0000000000000000e+00 0.0000000000000000e+00  0.0000000000000000e+00 0.0000000000000000e+00 0.0000000000000000e+00  0.0000000000000000e+00 0.0000000000000000e+00 0.0000000000000000e+00  0.0000000000000000e+00 0.0000000000000000e+00 0.0000000000000000e+00  0.0000000000000000e+00 0.0000000000000000e+00 0.0000000000000000e+00  0.0000000000000000e+00 0.0000000000000000e+00 0.0000000000000000e+00  0.0000000000000000e+00 0.0000000000000000e+00 0.0000000000000000e+00  0.0000000000000000e+00 0.0000000000000000e+00 0.0000000000000000e+00  0.0000000000000000e+00 0.0000000000000000e+00 0.0000000000000000e+00  0.0000000000000000e+00 0.0000000000000000e+00 0.0000000000000000e+00  0.0000000000000000e+00 0.0000000000000000e+00 0.0000000000000000e+00  0.0000000000000000e+00 0.0000000000000000e+00 0.0000000000000000e+00  0.0000000000000000e+00 0.0000000000000000e+00 0.0000000000000000e+00  0.0000000000000000e+00 0.0000000000000000e+00 0.0000000000000000e+00  0.0000000000000000e+00 0.0000000000000000e+00 0.0000000000000000e+00  0.0000000000000000e+00 0.0000000000000000e+00 0.0000000000000000e+00  0.0000000000000000e+00 0.0000000000000000e+00 0.0000000000000000e+00  0.0000000000000000e+00 0.0000000000000000e+00 0.0000000000000000e+00  0.0000000000000000e+00 0.0000000000000000e+00 0.0000000000000000e+00  0.0000000000000000e+00 0.0000000000000000e+00 0.0000000000000000e+00  0.0000000000000000e+00 0.0000000000000000e+00 0.0000000000000000e+00  0.0000000000000000e+00 0.0000000000000000e+00 0.0000000000000000e+00  0.0000000000000000e+00 0.0000000000000000e+00 0.0000000000000000e+00  0.0000000000000000e+00 0.0000000000000000e+00 0.0000000000000000e+00  0.0000000000000000e+00 0.0000000000000000e+00 0.0000000000000000e+00  0.0000000000000000e+00 0.0000000000000000e+00 0.0000000000000000e+00  0.0000000000000000e+00 0.0000000000000000e+00 0.0000000000000000e+00  0.0000000000000000e+00 0.0000000000000000e+00 0.0000000000000000e+00  0.0000000000000000e+00 0.0000000000000000e+00 0.0000000000000000e+00  0.0000000000000000e+00 0.0000000000000000e+00 0.0000000000000000e+00  0.0000000000000000e+00 0.0000000000000000e+00 0.0000000000000000e+00  0.0000000000000000e+00 0.0000000000000000e+00 0.0000000000000000e+00  0.0000000000000000e+00 0.0000000000000000e+00 0.0000000000000000e+00  0.0000000000000000e+00 0.0000000000000000e+00 0.0000000000000000e+00  0.0000000000000000e+00 0.0000000000000000e+00 0.0000000000000000e+00  0.0000000000000000e+00 0.0000000000000000e+00 0.0000000000000000e+00  0.0000000000000000e+00 0.0000000000000000e+00 0.0000000000000000e+00  0.0000000000000000e+00 0.0000000000000000e+00 0.0000000000000000e+00  2.6658114896883678e-01 1.6090619587050888e-02 0.0000000000000000e+00  2.2083065446344419e-01 1.0930229587084051e-03 0.0000000000000000e+00  2.7225994907106599e-01 -2.6215583584766649e-02 0.0000000000000000e+00  0.0000000000000000e+00 0.0000000000000000e+00 0.0000000000000000e+00  0.0000000000000000e+00 0.0000000000000000e+00 0.0000000000000000e+00  0.0000000000000000e+00 0.0000000000000000e+00 0.0000000000000000e+00  0.0000000000000000e+00 0.0000000000000000e+00 0.0000000000000000e+00  0.0000000000000000e+00 0.0000000000000000e+00 0.0000000000000000e+00  0.0000000000000000e+00 0.0000000000000000e+00 0.0000000000000000e+00  0.0000000000000000e+00 0.0000000000000000e+00 0.0000000000000000e+00  0.0000000000000000e+00 0.0000000000000000e+00 0.0000000000000000e+00  0.0000000000000000e+00 0.0000000000000000e+00 0.0000000000000000e+00  0.0000000000000000e+00 0.0000000000000000e+00 0.0000000000000000e+00  0.0000000000000000e+00 0.0000000000000000e+00 0.0000000000000000e+00  0.0000000000000000e+00 0.0000000000000000e+00 0.0000000000000000e+00  0.0000000000000000e+00 0.0000000000000000e+00 0.0000000000000000e+00  0.0000000000000000e+00 0.0000000000000000e+00 0.0000000000000000e+00  0.0000000000000000e+00 0.0000000000000000e+00 0.0000000000000000e+00  0.0000000000000000e+00 0.0000000000000000e+00 0.0000000000000000e+00  0.0000000000000000e+00 0.0000000000000000e+00 0.0000000000000000e+00  0.0000000000000000e+00 0.0000000000000000e+00 0.0000000000000000e+00  0.0000000000000000e+00 0.0000000000000000e+00 0.0000000000000000e+00  0.0000000000000000e+00 0.0000000000000000e+00 0.0000000000000000e+00  0.0000000000000000e+00 0.0000000000000000e+00 0.0000000000000000e+00  0.0000000000000000e+00 0.0000000000000000e+00 0.0000000000000000e+00  0.0000000000000000e+00 0.0000000000000000e+00 0.0000000000000000e+00  0.0000000000000000e+00 0.0000000000000000e+00 0.0000000000000000e+00  0.0000000000000000e+00 0.0000000000000000e+00 0.0000000000000000e+00  0.0000000000000000e+00 0.0000000000000000e+00 0.0000000000000000e+00  0.0000000000000000e+00 0.0000000000000000e+00 0.0000000000000000e+00  0.0000000000000000e+00 0.0000000000000000e+00 0.0000000000000000e+00  0.0000000000000000e+00 0.0000000000000000e+00 0.0000000000000000e+00  0.0000000000000000e+00 0.0000000000000000e+00 0.0000000000000000e+00  0.0000000000000000e+00 0.0000000000000000e+00 0.0000000000000000e+00  0.0000000000000000e+00 0.0000000000000000e+00 0.0000000000000000e+00  0.0000000000000000e+00 0.0000000000000000e+00 0.0000000000000000e+00  0.0000000000000000e+00 0.0000000000000000e+00 0.0000000000000000e+00  0.0000000000000000e+00 0.0000000000000000e+00 0.0000000000000000e+00  0.0000000000000000e+00 0.0000000000000000e+00 0.0000000000000000e+00  0.0000000000000000e+00 0.0000000000000000e+00 0.0000000000000000e+00  0.0000000000000000e+00 0.0000000000000000e+00 0.0000000000000000e+00  0.0000000000000000e+00 0.0000000000000000e+00 0.0000000000000000e+00  0.0000000000000000e+00 0.0000000000000000e+00 0.0000000000000000e+00  -2.1453236884537750e-13 -3.0607242593031304e-13 0.0000000000000000e+00  0.0000000000000000e+00 0.0000000000000000e+00 0.0000000000000000e+00  0.0000000000000000e+00 0.0000000000000000e+00 0.0000000000000000e+00  0.0000000000000000e+00 0.0000000000000000e+00 0.0000000000000000e+00  0.0000000000000000e+00 0.0000000000000000e+00 0.0000000000000000e+00  -5.6351069263248615e-13 0.0000000000000000e+00 0.0000000000000000e+00  0.0000000000000000e+00 0.0000000000000000e+00 0.0000000000000000e+00  0.0000000000000000e+00 0.0000000000000000e+00 0.0000000000000000e+00  0.0000000000000000e+00 0.0000000000000000e+00 0.0000000000000000e+00  0.0000000000000000e+00 0.0000000000000000e+00 0.0000000000000000e+00  0.0000000000000000e+00 0.0000000000000000e+00 0.0000000000000000e+00  0.0000000000000000e+00 0.0000000000000000e+00 0.0000000000000000e+00  0.0000000000000000e+00 0.0000000000000000e+00 0.0000000000000000e+00  0.0000000000000000e+00 0.0000000000000000e+00 0.0000000000000000e+00  0.0000000000000000e+00 0.0000000000000000e+00 0.0000000000000000e+00  0.0000000000000000e+00 0.0000000000000000e+00 0.0000000000000000e+00  0.0000000000000000e+00 0.0000000000000000e+00 0.0000000000000000e+00  0.0000000000000000e+00 0.0000000000000000e+00 0.0000000000000000e+00  0.0000000000000000e+00 0.0000000000000000e+00 0.0000000000000000e+00  0.0000000000000000e+00 0.0000000000000000e+00 0.0000000000000000e+00  0.0000000000000000e+00 0.0000000000000000e+00 0.0000000000000000e+00  0.0000000000000000e+00 0.0000000000000000e+00 0.0000000000000000e+00  0.0000000000000000e+00 0.0000000000000000e+00 0.0000000000000000e+00  0.0000000000000000e+00 0.0000000000000000e+00 0.0000000000000000e+00  0.0000000000000000e+00 0.0000000000000000e+00 0.0000000000000000e+00  0.0000000000000000e+00 0.0000000000000000e+00 0.0000000000000000e+00  0.0000000000000000e+00 0.0000000000000000e+00 0.0000000000000000e+00  0.0000000000000000e+00 0.0000000000000000e+00 0.0000000000000000e+00  0.0000000000000000e+00 0.0000000000000000e+00 0.0000000000000000e+00  0.0000000000000000e+00 0.0000000000000000e+00 0.0000000000000000e+00  0.0000000000000000e+00 0.0000000000000000e+00 0.0000000000000000e+00  0.0000000000000000e+00 0.0000000000000000e+00 0.0000000000000000e+00  0.0000000000000000e+00 0.0000000000000000e+00 0.0000000000000000e+00  0.0000000000000000e+00 0.0000000000000000e+00 0.0000000000000000e+00  0.0000000000000000e+00 0.0000000000000000e+00 0.0000000000000000e+00  0.0000000000000000e+00 0.0000000000000000e+00 0.0000000000000000e+00  0.0000000000000000e+00 0.0000000000000000e+00 0.0000000000000000e+00  -2.1131228274600175e-17 0.0000000000000000e+00 0.0000000000000000e+00  2.0316081474916893e-06 5.8694480141430596e-06 0.0000000000000000e+00  4.0742254389359748e-06 5.4036843117536518e-06 0.0000000000000000e+00  5.7548475112100807e-06 3.8517244520529752e-06 0.0000000000000000e+00  7.4314596601517922e-06 1.3518520451657704e-06 0.0000000000000000e+00  8.9714314732593711e-06 -1.8397978070840673e-06 0.0000000000000000e+00  1.0775021304767677e-05 -5.6867104111462172e-06 0.0000000000000000e+00  1.2460738569796453e-05 -1.0097190494267450e-05 0.0000000000000000e+00  1.4251175255753585e-05 -1.5249196671418876e-05 0.0000000000000000e+00  1.6254289076074734e-05 -2.0961581952334800e-05 0.0000000000000000e+00  1.8117330712756401e-05 -2.7301994908571874e-05 0.0000000000000000e+00  2.0240021137126083e-05 -3.4208732222174625e-05 0.0000000000000000e+00  2.2193173970040924e-05 -4.1715864927427378e-05 0.0000000000000000e+00  2.4358394089462841e-05 -4.9756323014780582e-05 0.0000000000000000e+00  2.6382988322312796e-05 -5.8244683305856159e-05 0.0000000000000000e+00  2.8451296275061606e-05 -6.7307642393366242e-05 0.0000000000000000e+00  3.0642016909856547e-05 -7.6785812793822187e-05 0.0000000000000000e+00  3.2696734033797754e-05 -8.6729413101092765e-05 0.0000000000000000e+00  3.4904146721522508e-05 -9.7083601551795835e-05 0.0000000000000000e+00  3.6969790496855499e-05 -1.0785173153359904e-04 0.0000000000000000e+00  3.9157345165592700e-05 -1.1896308464661893e-04 0.0000000000000000e+00  4.1253246476726046e-05 -1.3044797731361733e-04 0.0000000000000000e+00  4.3432273109538328e-05 -1.4225746219543225e-04 0.0000000000000000e+00  4.5525616831818657e-05 -1.5430880991860020e-04 0.0000000000000000e+00  4.7640552043346668e-05 -1.6668148291683105e-04 0.0000000000000000e+00  4.9808496867084560e-05 -1.7924884265106710e-04 0.0000000000000000e+00  5.1940796117023956e-05 -1.9207786078608244e-04 0.0000000000000000e+00  5.4101653095956360e-05 -2.0508435092182219e-04 0.0000000000000000e+00  5.6249745692022829e-05 -2.1828263203660576e-04 0.0000000000000000e+00  5.8424831945186469e-05 -2.3162845475826628e-04 0.0000000000000000e+00  6.0595206419723293e-05 -2.4511991177299746e-04 0.0000000000000000e+00  6.2790694386394250e-05 -2.5872503116030829e-04 0.0000000000000000e+00  6.4992064876519159e-05 -2.7244220927809753e-04 0.0000000000000000e+00  6.7214520989031129e-05 -2.8623624542410431e-04 0.0000000000000000e+00  6.9452235826957814e-05 -3.0012218273340105e-04 0.0000000000000000e+00  7.1720138382438888e-05 -3.1405035908254388e-04 0.0000000000000000e+00  7.4002242916163422e-05 -3.2804403191154019e-04 0.0000000000000000e+00  7.6311682294060655e-05 -3.4206429118592162e-04 0.0000000000000000e+00  7.8642690150104570e-05 -3.5613128744814616e-04 0.0000000000000000e+00  8.1005919862897063e-05 -3.7020857516991659e-04 0.0000000000000000e+00  8.3397762653941127e-05 -3.8431613684038012e-04 0.0000000000000000e+00  8.5825343073830330e-05 -3.9842947753147698e-04 0.0000000000000000e+00  8.8274146585100722e-05 -4.1255523877704902e-04 0.0000000000000000e+00  9.0769172399679491e-05 -4.2668347670548511e-04 0.0000000000000000e+00  9.3283492266383954e-05 -4.4081676608286334e-04 0.0000000000000000e+00  9.5835137991985629e-05 -4.5496061084649781e-04 0.0000000000000000e+00  9.8400540478967835e-05 -4.6907934255609489e-04 0.0000000000000000e+00  9.1652649538503803e-05 -4.8506446569815002e-04 0.0000000000000000e+00  7.2805094915719874e-05 -4.8906928439647584e-04 0.0000000000000000e+00  6.0717445665037394e-05 -4.7691028285453958e-04 0.0000000000000000e+00  5.8150398295192472e-05 -4.6289032453675390e-04 0.0000000000000000e+00  5.5601094799189378e-05 -4.4888652289240473e-04 0.0000000000000000e+00  5.3095695311928977e-05 -4.3487612784227209e-04 0.0000000000000000e+00  5.0613452081114770e-05 -4.2086694200148207e-04 0.0000000000000000e+00  4.8187112406317027e-05 -4.0686297828526402e-04 0.0000000000000000e+00  4.5796095444260276e-05 -3.9286322058331130e-04 0.0000000000000000e+00  4.3448342634673951e-05 -3.7888245645350605e-04 0.0000000000000000e+00  4.1151297963303559e-05 -3.6490531726579274e-04 0.0000000000000000e+00  3.8891443818786461e-05 -3.5097093481922624e-04 0.0000000000000000e+00  3.6691924498602833e-05 -3.3705006755276935e-04 0.0000000000000000e+00  3.4527934753350844e-05 -3.2318797331150535e-04 0.0000000000000000e+00  3.2433684263808165e-05 -3.0935630432045707e-04 0.0000000000000000e+00  3.0368720095101418e-05 -2.9560531665029480e-04 0.0000000000000000e+00  2.8384422321742239e-05 -2.8190818656547849e-04 0.0000000000000000e+00  2.6424501302154738e-05 -2.6832006173822440e-04 0.0000000000000000e+00  2.4560271691979985e-05 -2.5481490822213808e-04 0.0000000000000000e+00  2.2712775548745049e-05 -2.4145116736448894e-04 0.0000000000000000e+00  2.0975429922486176e-05 -2.2820191399910996e-04 0.0000000000000000e+00  1.9242777907536872e-05 -2.1513087642587763e-04 0.0000000000000000e+00  1.7637778658584876e-05 -2.0221637864247804e-04 0.0000000000000000e+00  1.6026556110368101e-05 -1.8952372916703847e-04 0.0000000000000000e+00  1.4559417478613978e-05 -1.7704488372307782e-04 0.0000000000000000e+00  1.3083279057472530e-05 -1.6479175892220092e-04 0.0000000000000000e+00  1.1680728972856107e-05 -1.5285206817584898e-04 0.0000000000000000e+00  1.0397320343420892e-05 -1.4113895612670295e-04 0.0000000000000000e+00  9.1358839503182071e-06 -1.2979710963669389e-04 0.0000000000000000e+00  7.9833204587043635e-06 -1.1875636277804797e-04 0.0000000000000000e+00  6.8609266854150664e-06 -1.0813395510711700e-04 0.0000000000000000e+00  5.8491805890221233e-06 -9.7869858184889140e-05 0.0000000000000000e+00  4.8685040922469788e-06 -8.8056303552138461e-05 0.0000000000000000e+00  4.0566831199152520e-06 -7.8720514330401245e-05 0.0000000000000000e+00  3.1912990987836687e-06 -6.9799326875612502e-05 0.0000000000000000e+00  2.4111883494508840e-06 -6.1459588959764986e-05 0.0000000000000000e+00  1.8100297920543866e-06 -5.3544414923419849e-05 0.0000000000000000e+00  1.2324538237970533e-06 -4.6262694653590108e-05 0.0000000000000000e+00  8.0184047451869022e-07 -3.9504409359223040e-05 0.0000000000000000e+00  4.1575721711415349e-07 -3.3378975657853009e-05 0.0000000000000000e+00  2.5556097384808822e-07 -2.7912217728260480e-05 0.0000000000000000e+00  3.6274565999118457e-08 -2.2991303003002904e-05 0.0000000000000000e+00  -6.4804201810780761e-08 -1.8826998321794887e-05 0.0000000000000000e+00  7.1150541213805491e-08 -1.5190751277632124e-05 0.0000000000000000e+00  2.1708546754355159e-07 -1.2350398486330703e-05 0.0000000000000000e+00  4.8980094358925815e-07 -1.0160433238526306e-05 0.0000000000000000e+00  5.3740450516327912e-07 -8.4413030758776720e-06 0.0000000000000000e+00  4.3533733760960327e-07 -7.0000880115988404e-06 0.0000000000000000e+00  3.1067623279871727e-06 -5.2189266464686053e-07 0.0000000000000000e+00  7.8549474803846233e-05 -4.6587938229969531e-04 0.0000000000000000e+00  7.3774007745532245e-05 -4.3894876239482006e-04 0.0000000000000000e+00  6.5911338761527171e-05 -3.9505753913395177e-04 0.0000000000000000e+00  3.5425462042993553e-06 -3.7907879790726067e-06 0.0000000000000000e+00  6.1052312076756389e-05 -3.6751398661722632e-04 0.0000000000000000e+00  4.8405445545438351e-06 -9.6396077664014932e-06 0.0000000000000000e+00  5.6463859053156502e-05 -3.3950246204116996e-04 0.0000000000000000e+00  7.7526261150533225e-06 -2.4203224577491713e-05 0.0000000000000000e+00  1.0125645280001252e-05 -3.6374191328829557e-05 0.0000000000000000e+00  5.2023512396096703e-05 -3.1163233889425527e-04 0.0000000000000000e+00  1.6886244812192701e-05 -7.7826106664617727e-05 0.0000000000000000e+00  4.3583110547223244e-05 -2.5665580909985656e-04 0.0000000000000000e+00  1.2457716108107226e-05 -5.0622521338468785e-05 0.0000000000000000e+00  2.0076151421728115e-05 -9.7137028252281267e-05 0.0000000000000000e+00  3.9580584820292071e-05 -2.2977344393352103e-04 0.0000000000000000e+00  4.7730092862185178e-05 -2.8398350614760090e-04 0.0000000000000000e+00  2.3307275983117214e-05 -1.1856240870254213e-04 0.0000000000000000e+00  3.5719409799908283e-05 -2.0347946987513853e-04 0.0000000000000000e+00  2.6334584117244925e-05 -1.4054444783899805e-04 0.0000000000000000e+00  3.2286151820025324e-05 -1.7839204588016708e-04 0.0000000000000000e+00  2.9157267045797312e-05 -1.5842557090461743e-04 0.0000000000000000e+00  1.4703461578226739e-05 -6.3013370259528429e-05 0.0000000000000000e+00  6.9625504901116506e-05 -4.1794608492644992e-04 0.0000000000000000e+00  6.2362647591826318e-06 -1.5859142125817488e-05 0.0000000000000000e+00  6.9507767488740526e-05 -4.5371561309721236e-04 0.0000000000000000e+00  2.3151164430771153e-06 -4.5061498132156420e-06 0.0000000000000000e+00  5.3296235861989241e-05 -3.5478310895230010e-04 0.0000000000000000e+00  5.7940444774466888e-05 -3.8280754698510932e-04 0.0000000000000000e+00  5.6178158197135691e-06 -4.1237454185883832e-06 0.0000000000000000e+00  1.1353387100486734e-05 -2.8088718958743783e-05 0.0000000000000000e+00  4.0337182041091359e-05 -2.7166726746275058e-04 0.0000000000000000e+00  4.8812259820503043e-05 -3.2686900386284958e-04 0.0000000000000000e+00  2.2347828715321248e-05 -8.5433911441490606e-05 0.0000000000000000e+00  3.6352013215972154e-05 -2.4458206050772917e-04 0.0000000000000000e+00  1.4236042748561537e-05 -4.1812463500372081e-05 0.0000000000000000e+00  2.5817608407624953e-05 -1.0609601309393365e-04 0.0000000000000000e+00  3.2538601563182167e-05 -2.1801022380530202e-04 0.0000000000000000e+00  4.4491977184791063e-05 -2.9913405363180353e-04 0.0000000000000000e+00  3.0346600258275916e-05 -1.2782471792963069e-04 0.0000000000000000e+00  2.8892888625187398e-05 -1.9210650657152154e-04 0.0000000000000000e+00  2.3935172822605654e-06 1.4538838420101682e-06 0.0000000000000000e+00  2.0652306625421009e-06 -1.4581747073441860e-06 0.0000000000000000e+00  8.4953001083559211e-05 -4.7603925073796168e-04 0.0000000000000000e+00  3.9736791474632334e-06 1.0282289332946622e-06 0.0000000000000000e+00  2.4677