<?xml version="1.0"?>
<VTKFile type="UnstructuredGrid"  version="0.1"  >
<UnstructuredGrid>
<Piece  NumberOfPoints="1419" NumberOfCells="2698">
<Points>
<DataArray  type="Float64"  NumberOfComponents="3"  format="ascii">0 0 0  0 0.41 0  2.5 0 0  2.5 0.41 0  0.6 0.19 0  0.6 0.21 0  0.25 0.2 0  0.15 0.2 0  0.2489897948556636 0.21 0  0.2489897948556636 0.19 0  0.6 0.2 0  0 0.3807142857143437 0  0 0.3514285714286952 0  0 0.3221428571430699 0  0 0.29285714285744 0  0 0.2635714285718054 0  0 0.2342857142861561 0  0 0.2050000000005308 0  0 0.175714285714732 0  0 0.1464285714289574 0  0 0.1171428571431897 0  0 0.08785714285737878 0  0 0.05857142857161107 0  0 0.02928571428580012 0  0.03015443760436003 0 0  0.06140001986583606 0 0  0.09377624077125973 0 0  0.1273239957535082 0 0  0.1620856860351972 0 0  0.1981052433264291 0 0  0.235428184091502 0 0  0.2741016576309132 0 0  0.3141745521465447 0 0  0.3556974926295285 0 0  0.3987229542472677 0 0  0.4433053055141081 0 0  0.4895008759286886 0 0  0.5373680609405097 0 0  0.5869673343216626 0 0  0.6383613676634521 0 0  0.6916151138468254 0 0  0.7467958595648856 0 0  0.8039733463919316 0 0  0.8632198139502143 0 0  0.9246101326867038 0 0  0.9882218810934433 0 0  1.054135445558498 0 0  1.122434100542598 0 0  1.193204177141305 0 0  1.266535089879536 0 0  1.342519516046404 0 0  1.421253448503939 0 0  1.502836389106271 0 0  1.587371439758838 0 0  1.674965418777374 0 0  1.765729001825544 0 0  1.859776908880082 0 0  1.957227977487062 0 0  2.058205329869943 0 0  2.162836591189951 0 0  2.271253957290865 0 0  2.383594446803425 0 0  2.5 0.1024999999997612 0  2.5 0.2049999999994743 0  2.5 0.3074999999997183 0  2.383594446803656 0.41 0  2.271253957291315 0.41 0  2.162836591190598 0.41 0  2.058205329870775 0.41 0  1.957227977488067 0.41 0  1.859776908881246 0.41 0  1.765729001826854 0.41 0  1.674965418778818 0.41 0  1.58737143976041 0.41 0  1.502836389107956 0.41 0  1.421253448505726 0.41 0  1.342519516048286 0.41 0  1.266535089881505 0.41 0  1.193204177143353 0.41 0  1.122434100544716 0.41 0  1.05413544556068 0.41 0  0.9882218810956305 0.41 0  0.9246101326886647 0.41 0  0.8632198139519631 0.41 0  0.8039733463934788 0.41 0  0.7467958595662458 0.41 0  0.6916151138480078 0.41 0  0.6383613676644679 0.41 0  0.5869673343225223 0.41 0  0.5373680609412221 0.41 0  0.4895008759292634 0.41 0  0.4433053055145528 0.41 0  0.3987229542475914 0.41 0  0.3556974926297398 0.41 0  0.3141745521466497 0.41 0  0.2741016576310038 0.41 0  0.2354281840915826 0.41 0  0.1981052433265003 0.41 0  0.1620856860352591 0.41 0  0.1273239957535623 0.41 0  0.09377624077128965 0.41 0  0.06140001986584975 0.41 0  0.03015443760436654 0.41 0  0.2497468076502589 0.2050254481002335 0  0.2497468076502614 0.1949745518997913 0  0.2469965252529372 0.1829317073451959 0  0.2439893735792749 0.1762316384219906 0  0.2400332147834255 0.1700443375285386 0  0.2352133972704371 0.1645032867342007 0  0.2296339016332438 0.1597280261969788 0  0.2234150974217223 0.1558215752574715 0  0.2166911463437691 0.1528682099456123 0  0.2096071079204251 0.1509316448471593 0  0.2023158100364996 0.1500536585536553 0  0.194974551899914 0.1502531923497262 0  0.1877417105387872 0.1515259415822739 0  0.1807733240461124 0.153844448527136 0  0.1742197252835808 0.15715869474974 0  0.1682222986673531 0.1613971801805478 0  0.162910430003803 0.1664684656256651 0  0.1583987151779087 0.1722631454351573 0  0.1547844879126891 0.178656207771761 0  0.1521457199348551 0.1855097315605723 0  0.1505393388476355 0.1926758619366523 0  0.1505393388476328 0.2073241380633295 0  0.1521457199348437 0.2144902684393899 0  0.1547844879126531 0.221343792228163 0  0.1583987151778488 0.2277368545647528 0  0.1629104300036858 0.2335315343742052 0  0.1682222986671726 0.2386028198193036 0  0.1742197252833576 0.2428413052501257 0  0.1807733240458683 0.2461555514727623 0  0.1877417105384929 0.2484740584176516 0  0.1949745518995776 0.2497468076502398 0  0.202315810036185 0.2499463414463592 0  0.2096071079201568 0.2490683551528932 0  0.2166911463435495 0.2471317900544655 0  0.2234150974215506 0.2441784247426195 0  0.2296339016331197 0.2402719738031125 0  0.2352133972703547 0.2354967132658811 0  0.2400332147833751 0.2299556624715287 0  0.2439893735792577 0.2237683615780412 0  0.246996525252926 0.2170682926548348 0  0.25645809709277 0.21 0  0.2639263993298655 0.21 0  0.271394701566961 0.21 0  0.2788630038040554 0.21 0  0.2863313060411479 0.21 0  0.2937996082782405 0.21 0  0.301267910515333 0.21 0  0.3087362127524279 0.21 0  0.3162045149895234 0.21 0  0.3236728172265972 0.21 0  0.3311411194636928 0.21 0  0.3386094217007701 0.21 0  0.3460777239378666 0.21 0  0.3535460261749672 0.21 0  0.3610143284120516 0.21 0  0.3684826306491596 0.21 0  0.3759509328862226 0.21 0  0.383419235123329 0.21 0  0.3908875373604028 0.21 0  0.3983558395975142 0.21 0  0.4058241418345938 0.21 0  0.4132924440716992 0.21 0  0.4207607463087888 0.21 0  0.4282290485459029 0.21 0  0.4356973507830418 0.21 0  0.4431656530201649 0.21 0  0.4506339552573136 0.21 0  0.4581022574944306 0.21 0  0.4655705597315852 0.21 0  0.4730388619686996 0.21 0  0.480507164205851 0.21 0  0.4879754664429498 0.21 0  0.4954437686800938 0.21 0  0.502912070917267 0.21 0  0.5103803731544119 0.21 0  0.5178486753915261 0.21 0  0.5253169776286404 0.21 0  0.5327852798657868 0.21 0  0.5402535821029386 0.21 0  0.54772188434007 0.21 0  0.5551901865771842 0.21 0  0.5626584888143201 0.21 0  0.5701267910514778 0.21 0  0.5775950932886138 0.21 0  0.5850633955257281 0.21 0  0.5925316977628483 0.21 0  0.6 0.2050000000000054 0  0.6 0.1950000000000217 0  0.5925316977628897 0.19 0  0.5850633955257988 0.19 0  0.5775950932887378 0.19 0  0.5701267910515998 0.19 0  0.5626584888145268 0.19 0  0.5551901865773963 0.19 0  0.547721884340339 0.19 0  0.5402535821032429 0.19 0  0.5327852798661811 0.19 0  0.5253169776290537 0.19 0  0.5178486753919799 0.19 0  0.5103803731549078 0.19 0  0.502912070917822 0.19 0  0.4954437686807294 0.19 0  0.4879754664436223 0.19 0  0.4805071642065402 0.19 0  0.4730388619694271 0.19 0  0.4655705597323621 0.19 0  0.4581022574952563 0.19 0  0.4506339552581777 0.19 0  0.4431656530210671 0.19 0  0.4356973507839815 0.19 0  0.4282290485468779 0.19 0  0.4207607463097617 0.19 0  0.4132924440726327 0.19 0  0.4058241418354857 0.19 0  0.3983558395983636 0.19 0  0.3908875373612097 0.19 0  0.3834192351240934 0.19 0  0.3759509328869369 0.19 0  0.3684826306498175 0.19 0  0.361014328412667 0.19 0  0.3535460261755617 0.19 0  0.3460777239384295 0.19 0  0.3386094217012945 0.19 0  0.3311411194641595 0.19 0  0.3236728172270245 0.19 0  0.3162045149898895 0.19 0  0.3087362127527544 0.19 0  0.3012679105156187 0.19 0  0.2937996082784807 0.19 0  0.2863313060413428 0.19 0  0.2788630038042048 0.19 0  0.2713947015670686 0.19 0  0.2639263993299336 0.19 0  0.2564580970927985 0.19 0  0.2607803159922026 0.2000727136295815 0  0.5887803774232762 0.2001272386983733 0  0.5745072403740523 0.2002044435018727 0  0.5511891430099709 0.2001122610077113 0  0.2751288526855082 0.20000000000002 0  0.5365194309847112 0.1999999999999436 0  0.2894621222999649 0.1998691686390484 0  0.5215828265105155 0.1999999999999228 0  0.3127789816668748 0.1998657885438805 0  0.3274069683451451 0.2000000000000796 0  0.5066462220363641 0.199999999999908 0  0.3650630746574081 0.199866017807523 0  0.476773013087985 0.1999999999998713 0  0.3417402379596385 0.1998691686391011 0  0.3796850840047755 0.200000000000134 0  0.4618364086138087 0.1999999999998546 0  0.4917096175621762 0.1999999999998808 0  0.3946216884789568 0.2000000000001512 0  0.446899804139621 0.1999999999998389 0  0.4089549580935208 0.1998691686391595 0  0.4322718174608562 0.200127451265745 0  0.4201487168029707 0.1999966199048527 0  0.3528922713220932 0.2000185703532356 0  0.5633122436674589 0.1999814296467508 0  0.3006558810093873 0.1999966199048318 0  0.5815926498168407 0.1966545283159175 0  0.2677053789419034 0.1964246479135325 0  0.5290511287476175 0.1970915826863981 0  0.5439877332217911 0.197091582686394 0  0.2825131256993216 0.2035478995978015 0  0.3199386661080599 0.202908417313604 0  0.4842413153250809 0.1970915826863873 0  0.5141145242734466 0.1970915826863843 0  0.3722167817676917 0.2029084173136195 0  0.4693047108508938 0.1970915826863783 0  0.3348752705822316 0.202908417313609 0  0.3871533862418661 0.2029084173136212 0  0.4543681063767183 0.1970915826863795 0  0.4991779197992749 0.1970915826863902 0  0.4020059614928624 0.203547899597858 0  0.4394315019025246 0.1970915826863714 0  0.2550657455369551 0.2034088125358657 0  0.2548908499171161 0.1966940311614271 0  0.5946539510196798 0.2024302972968126 0  0.267698176732111 0.2039977513680092 0  0.4261685417851465 0.196409292431739 0  0.3590076176283495 0.196411355804271 0  0.5571672426447437 0.2036011176410121 0  0.3066757059912147 0.1964092924317024 0  0.594380730180568 0.1966558399668133 0  0.4842413153245942 0.2040749161535287 0  0.4693047108503577 0.2040749161535231 0  0.3871533862424271 0.1959250838464788 0  0.372246743208829 0.1959123236376545 0  0.5141145242731028 0.2040749161535395 0  0.4543681063761134 0.2040749161535186 0  0.4019979587101454 0.1959834479682427 0  0.4394608940728603 0.2040870543693135 0  0.5439623148931173 0.2040856076781014 0  0.5290511287473298 0.2040749161535501 0  0.4991779197988497 0.2040749161535382 0  0.3347912413592433 0.1959225448935183 0  0.3199680582793816 0.1959123018030061 0  0.2825051229162361 0.1959834479681729 0  0.3590471196690275 0.2036304442587945 0  0.5571594006495384 0.1963685282145804 0  0.3067669986803285 0.203627750582736 0  0.4262598344738712 0.2036568242185335 0  0.5814408164431408 0.2041285596160068 0  0.5688286748170428 0.1961819304477386 0  0.4145905603063645 0.2038180695522843 0  0.3473758401724931 0.2038180695522752 0  0.2950977245128307 0.2038180695522663 0  0.5688286748170693 0.203818069552238 0  0.2950977245127906 0.1961819304477774 0  0.3473758401723931 0.1961819304478349 0  0.4145905603061963 0.1961819304479011 0  0.2601812407614425 0.2056861609747042
[...]
<PointData  Vectors="f_46-0"> 
<DataArray  type="Float64"  Name="f_46-0"  NumberOfComponents="3" format="ascii">0.0000000000000000e+00 0.0000000000000000e+00 0.0000000000000000e+00  0.0000000000000000e+00 0.0000000000000000e+00 0.0000000000000000e+00  0.0000000000000000e+00 0.0000000000000000e+00 0.0000000000000000e+00  0.0000000000000000e+00 0.0000000000000000e+00 0.0000000000000000e+00  7.0617862873196456e-05 -3.8208974983756634e-04 0.0000000000000000e+00  1.0002934757320692e-04 -3.8054696631091805e-04 0.0000000000000000e+00  0.0000000000000000e+00 0.0000000000000000e+00 0.0000000000000000e+00  0.0000000000000000e+00 0.0000000000000000e+00 0.0000000000000000e+00  0.0000000000000000e+00 0.0000000000000000e+00 0.0000000000000000e+00  0.0000000000000000e+00 0.0000000000000000e+00 0.0000000000000000e+00  8.4854005530415384e-05 -3.8131918176618899e-04 0.0000000000000000e+00  5.1974569433937232e-02 0.0000000000000000e+00 0.0000000000000000e+00  9.5953051262659725e-02 0.0000000000000000e+00 0.0000000000000000e+00  1.3193544548615713e-01 0.0000000000000000e+00 0.0000000000000000e+00  1.5992175210447113e-01 0.0000000000000000e+00 0.0000000000000000e+00  1.7991197111759810e-01 0.0000000000000000e+00 0.0000000000000000e+00  1.9190610252553689e-01 0.0000000000000000e+00 0.0000000000000000e+00  1.9590414632827535e-01 0.0000000000000000e+00 0.0000000000000000e+00  1.9190610252577933e-01 0.0000000000000000e+00 0.0000000000000000e+00  1.7991197111801463e-01 0.0000000000000000e+00 0.0000000000000000e+00  1.5992175210498699e-01 0.0000000000000000e+00 0.0000000000000000e+00  1.3193544548664718e-01 0.0000000000000000e+00 0.0000000000000000e+00  9.5953051263077890e-02 0.0000000000000000e+00 0.0000000000000000e+00  5.1974569434172849e-02 0.0000000000000000e+00 0.0000000000000000e+00  0.0000000000000000e+00 0.0000000000000000e+00 0.0000000000000000e+00  0.0000000000000000e+00 0.0000000000000000e+00 0.0000000000000000e+00  0.0000000000000000e+00 0.0000000000000000e+00 0.0000000000000000e+00  0.0000000000000000e+00 0.0000000000000000e+00 0.0000000000000000e+00  0.0000000000000000e+00 0.0000000000000000e+00 0.0000000000000000e+00  0.0000000000000000e+00 0.0000000000000000e+00 0.0000000000000000e+00  0.0000000000000000e+00 0.0000000000000000e+00 0.0000000000000000e+00  0.0000000000000000e+00 0.0000000000000000e+00 0.0000000000000000e+00  0.0000000000000000e+00 0.0000000000000000e+00 0.0000000000000000e+00  0.0000000000000000e+00 0.0000000000000000e+00 0.0000000000000000e+00  0.0000000000000000e+00 0.0000000000000000e+00 0.0000000000000000e+00  0.0000000000000000e+00 0.0000000000000000e+00 0.0000000000000000e+00  0.0000000000000000e+00 0.0000000000000000e+00 0.0000000000000000e+00  0.0000000000000000e+00 0.0000000000000000e+00 0.0000000000000000e+00  0.0000000000000000e+00 0.0000000000000000e+00 0.0000000000000000e+00  0.0000000000000000e+00 0.0000000000000000e+00 0.0000000000000000e+00  0.0000000000000000e+00 0.0000000000000000e+00 0.0000000000000000e+00  0.0000000000000000e+00 0.0000000000000000e+00 0.0000000000000000e+00  0.0000000000000000e+00 0.0000000000000000e+00 0.0000000000000000e+00  0.0000000000000000e+00 0.0000000000000000e+00 0.0000000000000000e+00  0.0000000000000000e+00 0.0000000000000000e+00 0.0000000000000000e+00  0.0000000000000000e+00 0.0000000000000000e+00 0.0000000000000000e+00  0.0000000000000000e+00 0.0000000000000000e+00 0.0000000000000000e+00  0.0000000000000000e+00 0.0000000000000000e+00 0.0000000000000000e+00  0.0000000000000000e+00 0.0000000000000000e+00 0.0000000000000000e+00  0.0000000000000000e+00 0.0000000000000000e+00 0.0000000000000000e+00  0.0000000000000000e+00 0.0000000000000000e+00 0.0000000000000000e+00  0.0000000000000000e+00 0.0000000000000000e+00 0.0000000000000000e+00  0.0000000000000000e+00 0.0000000000000000e+00 0.0000000000000000e+00  0.0000000000000000e+00 0.0000000000000000e+00 0.0000000000000000e+00  0.0000000000000000e+00 0.0000000000000000e+00 0.0000000000000000e+00  0.0000000000000000e+00 0.0000000000000000e+00 0.0000000000000000e+00  0.0000000000000000e+00 0.0000000000000000e+00 0.0000000000000000e+00  0.0000000000000000e+00 0.0000000000000000e+00 0.0000000000000000e+00  0.0000000000000000e+00 0.0000000000000000e+00 0.0000000000000000e+00  0.0000000000000000e+00 0.0000000000000000e+00 0.0000000000000000e+00  0.0000000000000000e+00 0.0000000000000000e+00 0.0000000000000000e+00  0.0000000000000000e+00 0.0000000000000000e+00 0.0000000000000000e+00  1.8606836746789432e-01 1.8291856746685466e-02 0.0000000000000000e+00  1.4525956839923976e-01 1.3584205453893361e-03 0.0000000000000000e+00  1.8843055175516127e-01 -2.1974979806421290e-02 0.0000000000000000e+00  0.0000000000000000e+00 0.0000000000000000e+00 0.0000000000000000e+00  0.0000000000000000e+00 0.0000000000000000e+00 0.0000000000000000e+00  0.0000000000000000e+00 0.0000000000000000e+00 0.0000000000000000e+00  0.0000000000000000e+00 0.0000000000000000e+00 0.0000000000000000e+00  0.0000000000000000e+00 0.0000000000000000e+00 0.0000000000000000e+00  0.0000000000000000e+00 0.0000000000000000e+00 0.0000000000000000e+00  0.0000000000000000e+00 0.0000000000000000e+00 0.0000000000000000e+00  0.0000000000000000e+00 0.0000000000000000e+00 0.0000000000000000e+00  0.0000000000000000e+00 0.0000000000000000e+00 0.0000000000000000e+00  0.0000000000000000e+00 0.0000000000000000e+00 0.0000000000000000e+00  0.0000000000000000e+00 0.0000000000000000e+00 0.0000000000000000e+00  0.0000000000000000e+00 0.0000000000000000e+00 0.0000000000000000e+00  0.0000000000000000e+00 0.0000000000000000e+00 0.0000000000000000e+00  0.0000000000000000e+00 0.0000000000000000e+00 0.0000000000000000e+00  0.0000000000000000e+00 0.0000000000000000e+00 0.0000000000000000e+00  0.0000000000000000e+00 0.0000000000000000e+00 0.0000000000000000e+00  0.0000000000000000e+00 0.0000000000000000e+00 0.0000000000000000e+00  0.0000000000000000e+00 0.0000000000000000e+00 0.0000000000000000e+00  0.0000000000000000e+00 0.0000000000000000e+00 0.0000000000000000e+00  0.0000000000000000e+00 0.0000000000000000e+00 0.0000000000000000e+00  0.0000000000000000e+00 0.0000000000000000e+00 0.0000000000000000e+00  0.0000000000000000e+00 0.0000000000000000e+00 0.0000000000000000e+00  0.0000000000000000e+00 0.0000000000000000e+00 0.0000000000000000e+00  0.0000000000000000e+00 0.0000000000000000e+00 0.0000000000000000e+00  0.0000000000000000e+00 0.0000000000000000e+00 0.0000000000000000e+00  0.0000000000000000e+00 0.0000000000000000e+00 0.0000000000000000e+00  0.0000000000000000e+00 0.0000000000000000e+00 0.0000000000000000e+00  0.0000000000000000e+00 0.0000000000000000e+00 0.0000000000000000e+00  0.0000000000000000e+00 0.0000000000000000e+00 0.0000000000000000e+00  0.0000000000000000e+00 0.0000000000000000e+00 0.0000000000000000e+00  0.0000000000000000e+00 0.0000000000000000e+00 0.0000000000000000e+00  0.0000000000000000e+00 0.0000000000000000e+00 0.0000000000000000e+00  0.0000000000000000e+00 0.0000000000000000e+00 0.0000000000000000e+00  0.0000000000000000e+00 0.0000000000000000e+00 0.0000000000000000e+00  0.0000000000000000e+00 0.0000000000000000e+00 0.0000000000000000e+00  0.0000000000000000e+00 0.0000000000000000e+00 0.0000000000000000e+00  0.0000000000000000e+00 0.0000000000000000e+00 0.0000000000000000e+00  0.0000000000000000e+00 0.0000000000000000e+00 0.0000000000000000e+00  0.0000000000000000e+00 0.0000000000000000e+00 0.0000000000000000e+00  0.0000000000000000e+00 0.0000000000000000e+00 0.0000000000000000e+00  1.7513991674147267e-15 0.0000000000000000e+00 0.0000000000000000e+00  0.0000000000000000e+00 0.0000000000000000e+00 0.0000000000000000e+00  0.0000000000000000e+00 0.0000000000000000e+00 0.0000000000000000e+00  0.0000000000000000e+00 0.0000000000000000e+00 0.0000000000000000e+00  0.0000000000000000e+00 0.0000000000000000e+00 0.0000000000000000e+00  7.9465762515578156e-18 0.0000000000000000e+00 0.0000000000000000e+00  0.0000000000000000e+00 0.0000000000000000e+00 0.0000000000000000e+00  0.0000000000000000e+00 0.0000000000000000e+00 0.0000000000000000e+00  0.0000000000000000e+00 0.0000000000000000e+00 0.0000000000000000e+00  0.0000000000000000e+00 0.0000000000000000e+00 0.0000000000000000e+00  0.0000000000000000e+00 0.0000000000000000e+00 0.0000000000000000e+00  0.0000000000000000e+00 0.0000000000000000e+00 0.0000000000000000e+00  0.0000000000000000e+00 0.0000000000000000e+00 0.0000000000000000e+00  0.0000000000000000e+00 0.0000000000000000e+00 0.0000000000000000e+00  0.0000000000000000e+00 0.0000000000000000e+00 0.0000000000000000e+00  0.0000000000000000e+00 0.0000000000000000e+00 0.0000000000000000e+00  0.0000000000000000e+00 0.0000000000000000e+00 0.0000000000000000e+00  0.0000000000000000e+00 0.0000000000000000e+00 0.0000000000000000e+00  0.0000000000000000e+00 0.0000000000000000e+00 0.0000000000000000e+00  0.0000000000000000e+00 0.0000000000000000e+00 0.0000000000000000e+00  0.0000000000000000e+00 0.0000000000000000e+00 0.0000000000000000e+00  0.0000000000000000e+00 0.0000000000000000e+00 0.0000000000000000e+00  0.0000000000000000e+00 0.0000000000000000e+00 0.0000000000000000e+00  0.0000000000000000e+00 0.0000000000000000e+00 0.0000000000000000e+00  0.0000000000000000e+00 0.0000000000000000e+00 0.0000000000000000e+00  0.0000000000000000e+00 0.0000000000000000e+00 0.0000000000000000e+00  0.0000000000000000e+00 0.0000000000000000e+00 0.0000000000000000e+00  0.0000000000000000e+00 0.0000000000000000e+00 0.0000000000000000e+00  0.0000000000000000e+00 0.0000000000000000e+00 0.0000000000000000e+00  0.0000000000000000e+00 0.0000000000000000e+00 0.0000000000000000e+00  0.0000000000000000e+00 0.0000000000000000e+00 0.0000000000000000e+00  0.0000000000000000e+00 0.0000000000000000e+00 0.0000000000000000e+00  0.0000000000000000e+00 0.0000000000000000e+00 0.0000000000000000e+00  0.0000000000000000e+00 0.0000000000000000e+00 0.0000000000000000e+00  0.0000000000000000e+00 0.0000000000000000e+00 0.0000000000000000e+00  0.0000000000000000e+00 0.0000000000000000e+00 0.0000000000000000e+00  0.0000000000000000e+00 0.0000000000000000e+00 0.0000000000000000e+00  1.2268867112988689e-15 0.0000000000000000e+00 0.0000000000000000e+00  2.8891111596131883e-06 -5.6362169820091519e-07 0.0000000000000000e+00  5.9977708070110293e-06 -1.4349086446688492e-06 0.0000000000000000e+00  9.0905734471302531e-06 -2.8877349998680681e-06 0.0000000000000000e+00  1.2283744355716885e-05 -4.9533204679529378e-06 0.0000000000000000e+00  1.5352448272088409e-05 -7.5425271846868875e-06 0.0000000000000000e+00  1.8540045449051381e-05 -1.0702695329205862e-05 0.0000000000000000e+00  2.1564039246558625e-05 -1.4287302820171181e-05 0.0000000000000000e+00  2.4561492783821494e-05 -1.8442601779700497e-05 0.0000000000000000e+00  2.7647411620963522e-05 -2.3040558644768882e-05 0.0000000000000000e+00  3.0520510507486883e-05 -2.8084796890515402e-05 0.0000000000000000e+00  3.3498951430365038e-05 -3.3609784908247572e-05 0.0000000000000000e+00  3.6264312831441006e-05 -3.9534514480244659e-05 0.0000000000000000e+00  3.9091091416231426e-05 -4.5888774381530381e-05 0.0000000000000000e+00  4.1755562821491428e-05 -5.2575974682377117e-05 0.0000000000000000e+00  4.4367483692729916e-05 -5.9675614955730287e-05 0.0000000000000000e+00  4.7013957490264415e-05 -6.7097148367465311e-05 0.0000000000000000e+00  4.9484561080674342e-05 -7.4821596493254252e-05 0.0000000000000000e+00  5.1998975180869527e-05 -8.2888443692754002e-05 0.0000000000000000e+00  5.4349108172411740e-05 -9.1205558786500488e-05 0.0000000000000000e+00  5.6727752261907261e-05 -9.9814934480313094e-05 0.0000000000000000e+00  5.8978396688504788e-05 -1.0864952195316887e-04 0.0000000000000000e+00  6.1219258099929285e-05 -1.1774485570815389e-04 0.0000000000000000e+00  6.3355403417063446e-05 -1.2701581763626790e-04 0.0000000000000000e+00  6.5442287266129017e-05 -1.3651359632268597e-04 0.0000000000000000e+00  6.7523887767794171e-05 -1.4617339881835056e-04 0.0000000000000000e+00  6.9509153924579044e-05 -1.5599782846464970e-04 0.0000000000000000e+00  7.1453777156944127e-05 -1.6600204270193140e-04 0.0000000000000000e+00  7.3330312580040726e-05 -1.7611081056099776e-04 0.0000000000000000e+00  7.5165227083934640e-05 -1.8637587644728659e-04 0.0000000000000000e+00  7.6936778611663123e-05 -1.9671794966063090e-04 0.0000000000000000e+00  7.8666319328234274e-05 -2.0718969281854484e-04 0.0000000000000000e+00  8.0336476902675985e-05 -2.1771217865371184e-04 0.0000000000000000e+00  8.1963144472452937e-05 -2.2833993634267412e-04 0.0000000000000000e+00  8.3534200118423870e-05 -2.3899963443115057e-04 0.0000000000000000e+00  8.5062108208299559e-05 -2.4974498818947490e-04 0.0000000000000000e+00  8.6537511557343525e-05 -2.6050304865833147e-04 0.0000000000000000e+00  8.7969806816408236e-05 -2.7132908389601584e-04 0.0000000000000000e+00  8.9352703348336693e-05 -2.8215448411969909e-04 0.0000000000000000e+00  9.0692688524489151e-05 -2.9303490524612373e-04 0.0000000000000000e+00  9.1983546955365280e-05 -3.0390182149667676e-04 0.0000000000000000e+00  9.3224327129287567e-05 -3.1480317667524426e-04 0.0000000000000000e+00  9.4425618440752268e-05 -3.2570164206196237e-04 0.0000000000000000e+00  9.5582123291519376e-05 -3.3661260972363385e-04 0.0000000000000000e+00  9.6711081770812834e-05 -3.4752562598957978e-04 0.0000000000000000e+00  9.7783658336284666e-05 -3.5842136461257878e-04 0.0000000000000000e+00  9.8858588348228881e-05 -3.6937068506426491e-04 0.0000000000000000e+00  9.2287802246887485e-05 -3.8092349327392060e-04 0.0000000000000000e+00  7.7596963761040585e-05 -3.8171999961295316e-04 0.0000000000000000e+00  6.9465427334606381e-05 -3.7131621683372102e-04 0.0000000000000000e+00  6.8419008354959096e-05 -3.6031679930501227e-04 0.0000000000000000e+00  6.7365904884788237e-05 -3.4929081649122748e-04 0.0000000000000000e+00  6.6263939826192875e-05 -3.3829798270644773e-04 0.0000000000000000e+00  6.5133329412033351e-05 -3.2731227746251218e-04 0.0000000000000000e+00  6.3960779796424811e-05 -3.1633779443099552e-04 0.0000000000000000e+00  6.2760732330017932e-05 -3.0538403669596779e-04 0.0000000000000000e+00  6.1514609552326983e-05 -2.9442500357877856e-04 0.0000000000000000e+00  6.0242238432249574e-05 -2.8351571230017834e-04 0.0000000000000000e+00  5.8930114997386396e-05 -2.7260111136823102e-04 0.0000000000000000e+00  5.7600966283403577e-05 -2.6174683408320218e-04 0.0000000000000000e+00  5.6231143220357202e-05 -2.5089966430923377e-04 0.0000000000000000e+00  5.4850889060335373e-05 -2.4012691698741453e-04 0.0000000000000000e+00  5.3427572179557757e-05 -2.2938118586848864e-04 0.0000000000000000e+00  5.2003915257595153e-05 -2.1872674630387819e-04 0.0000000000000000e+00  5.0532240739659249e-05 -2.0811939257068195e-04 0.0000000000000000e+00  4.9071323401782769e-05 -1.9762360524155234e-04 0.0000000000000000e+00  4.7557163807173099e-05 -1.8719718354874614e-04 0.0000000000000000e+00  4.6063259984498532e-05 -1.7690672519635853e-04 0.0000000000000000e+00  4.4508998169043183e-05 -1.6671480845160890e-04 0.0000000000000000e+00  4.2987548324595215e-05 -1.5668685336284578e-04 0.0000000000000000e+00  4.1396900771200774e-05 -1.4678768859902413e-04 0.0000000000000000e+00  3.9841096416723083e-05 -1.3707593445830282e-04 0.0000000000000000e+00  3.8227505837471090e-05 -1.2752125786111008e-04 0.0000000000000000e+00  3.6596050832940897e-05 -1.1819982604036318e-04 0.0000000000000000e+00  3.5007609894453333e-05 -1.0905070596503173e-04 0.0000000000000000e+00  3.3359801936497660e-05 -1.0014592779619187e-04 0.0000000000000000e+00  3.1728620980823253e-05 -9.1497799897649767e-05 0.0000000000000000e+00  3.0056633720911415e-05 -8.3103826944659742e-05 0.0000000000000000e+00  2.8401060992650331e-05 -7.5008306553091042e-05 0.0000000000000000e+00  2.6703009276857238e-05 -6.7189140080064556e-05 0.0000000000000000e+00  2.5053384985013872e-05 -5.9744366543719275e-05 0.0000000000000000e+00  2.3317952019274880e-05 -5.2579502922502782e-05 0.0000000000000000e+00  2.1568818626512949e-05 -4.5845318858237664e-05 0.0000000000000000e+00  1.9904662154938733e-05 -3.9419442452424325e-05 0.0000000000000000e+00  1.8167533766841962e-05 -3.3437964965428315e-05 0.0000000000000000e+00  1.6463853241494865e-05 -2.7890456133780390e-05 0.0000000000000000e+00  1.4711727388608554e-05 -2.2769710203399137e-05 0.0000000000000000e+00  1.3040840176177395e-05 -1.8180066633769014e-05 0.0000000000000000e+00  1.1265054598227958e-05 -1.4000908358738577e-05 0.0000000000000000e+00  9.4912328371079208e-06 -1.0421546585602080e-05 0.0000000000000000e+00  7.8555766321587955e-06 -7.2775951441189825e-06 0.0000000000000000e+00  6.1556997216037781e-06 -4.7327092508148371e-06 0.0000000000000000e+00  4.5782184285833228e-06 -2.7580182970108038e-06 0.0000000000000000e+00  2.9322288860845449e-06 -1.3563636541608818e-06 0.0000000000000000e+00  1.4661226079769403e-06 -5.2707945406761643e-07 0.0000000000000000e+00  3.4779534560001856e-06 -5.5706305660405960e-07 0.0000000000000000e+00  8.3629739868486283e-05 -3.6481086126610262e-04 0.0000000000000000e+00  8.1796657817906931e-05 -3.4385289540870585e-04 0.0000000000000000e+00  7.8026577181395737e-05 -3.0969590014515966e-04 0.0000000000000000e+00  7.9990859646127789e-06 -3.3921183441602787e-06 0.0000000000000000e+00  7.5364088888204406e-05 -2.8826392321636726e-04 0.0000000000000000e+00  1.2533288209765785e-05 -8.3021277697043553e-06 0.0000000000000000e+00  7.2674724259150770e-05 -2.6651704306432676e-04 0.0000000000000000e+00  1.9943521189719829e-05 -2.0421842786373679e-05 0.0000000000000000e+00  2.4592824283781887e-05 -3.0419791631751970e-05 0.0000000000000000e+00  6.9835507544559533e-05 -2.4490288858238613e-04 0.0000000000000000e+00  3.5669097059699315e-05 -6.3476917102792444e-05 0.0000000000000000e+00  6.3718952379139719e-05 -2.0234030625314951e-04 0.0000000000000000e+00  2.8856786982265138e-05 -4.1835533433520481e-05 0.0000000000000000e+00  3.9906783527164415e-05 -7.8727062507416242e-05 0.0000000000000000e+00  6.0446421942899237e-05 -1.8155602385513906e-04 0.0000000000000000e+00  6.6849346377417210e-05 -2.2348530522664701e-04 0.0000000000000000e+00  4.3964563563495473e-05 -9.5463705884697540e-05 0.0000000000000000e+00  5.7031250760899685e-05 -1.6123798001954712e-04 0.0000000000000000e+00  4.7569526897572751e-05 -1.1249517994459472e-04 0.0000000000000000e+00  5.3721701793835626e-05 -1.4189600977331033e-04 0.0000000000000000e+00  5.0545494632254160e-05 -1.2640195735293778e-04 0.0000000000000000e+00  3.2275310581916629e-05 -5.1798550514459920e-05 0.0000000000000000e+00  7.9753020829763187e-05 -3.2746084556901846e-04 0.0000000000000000e+00  1.6157364863807673e-05 -1.3586686814784931e-05 0.0000000000000000e+00  7.7587841130248339e-05 -3.5458665719464917e-04 0.0000000000000000e+00  4.9657590435925780e-06 -1.7093775268611317e-06 0.0000000000000000e+00  6.9814311498998138e-05 -2.7757171438579515e-04 0.0000000000000000e+00  7.2410455167902317e-05 -2.9938161190622907e-04 0.0000000000000000e+00  1.1554256473965441e-05 -5.7729366749697291e-06 0.0000000000000000e+00  2.4244262821163162e-05 -2.5168758274097158e-05 0.0000000000000000e+00  6.1201014243799268e-05 -2.1302273866715364e-04 0.0000000000000000e+00  6.7077781308414838e-05 -2.5586834264674054e-04 0.0000000000000000e+00  4.0841362880396350e-05 -7.0793683461578210e-05 0.0000000000000000e+00  5.8071956149938427e-05 -1.9203207925807200e-04 0.0000000000000000e+00  2.9180209301762003e-05 -3.6236017330107052e-05 0.0000000000000000e+00  4.5192327103673754e-05 -8.6947518054935734e-05 0.0000000000000000e+00  5.4820129036773014e-05 -1.7145312341109223e-04 0.0000000000000000e+00  6.4204771867806633e-05 -2.3432817422590533e-04 0.0000000000000000e+00  5.0113476908957895e-05 -1.0409051729735751e-04 0.0000000000000000e+00  5.1446580204686598e-05 -1.5139797235217165e-04 0.0000000000000000e+00  1.7865205372526649e-06 -1.3521967996608723e-07 0.0000000000000000e+00  1.4910927973017041e-06 -6.1321330723983481e-08 0.0000000000000000e+00  8.7760859206500747e-05 -3.7321924156517909e-04 0.0000000000000000e+00  6.4133496616838687e-06 -1.7497569401148535e-06 0.0000000000000000e+00  4.748