<?xml version="1.0"?>
<VTKFile type="UnstructuredGrid"  version="0.1"  >
<UnstructuredGrid>
<Piece  NumberOfPoints="1419" NumberOfCells="2698">
<Points>
<DataArray  type="Float64"  NumberOfComponents="3"  format="ascii">0 0 0  0 0.41 0  2.5 0 0  2.5 0.41 0  0.6 0.19 0  0.6 0.21 0  0.25 0.2 0  0.15 0.2 0  0.2489897948556636 0.21 0  0.2489897948556636 0.19 0  0.6 0.2 0  0 0.3807142857143437 0  0 0.3514285714286952 0  0 0.3221428571430699 0  0 0.29285714285744 0  0 0.2635714285718054 0  0 0.2342857142861561 0  0 0.2050000000005308 0  0 0.175714285714732 0  0 0.1464285714289574 0  0 0.1171428571431897 0  0 0.08785714285737878 0  0 0.05857142857161107 0  0 0.02928571428580012 0  0.03015443760436003 0 0  0.06140001986583606 0 0  0.09377624077125973 0 0  0.1273239957535082 0 0  0.1620856860351972 0 0  0.1981052433264291 0 0  0.235428184091502 0 0  0.2741016576309132 0 0  0.3141745521465447 0 0  0.3556974926295285 0 0  0.3987229542472677 0 0  0.4433053055141081 0 0  0.4895008759286886 0 0  0.5373680609405097 0 0  0.5869673343216626 0 0  0.6383613676634521 0 0  0.6916151138468254 0 0  0.7467958595648856 0 0  0.8039733463919316 0 0  0.8632198139502143 0 0  0.9246101326867038 0 0  0.9882218810934433 0 0  1.054135445558498 0 0  1.122434100542598 0 0  1.193204177141305 0 0  1.266535089879536 0 0  1.342519516046404 0 0  1.421253448503939 0 0  1.502836389106271 0 0  1.587371439758838 0 0  1.674965418777374 0 0  1.765729001825544 0 0  1.859776908880082 0 0  1.957227977487062 0 0  2.058205329869943 0 0  2.162836591189951 0 0  2.271253957290865 0 0  2.383594446803425 0 0  2.5 0.1024999999997612 0  2.5 0.2049999999994743 0  2.5 0.3074999999997183 0  2.383594446803656 0.41 0  2.271253957291315 0.41 0  2.162836591190598 0.41 0  2.058205329870775 0.41 0  1.957227977488067 0.41 0  1.859776908881246 0.41 0  1.765729001826854 0.41 0  1.674965418778818 0.41 0  1.58737143976041 0.41 0  1.502836389107956 0.41 0  1.421253448505726 0.41 0  1.342519516048286 0.41 0  1.266535089881505 0.41 0  1.193204177143353 0.41 0  1.122434100544716 0.41 0  1.05413544556068 0.41 0  0.9882218810956305 0.41 0  0.9246101326886647 0.41 0  0.8632198139519631 0.41 0  0.8039733463934788 0.41 0  0.7467958595662458 0.41 0  0.6916151138480078 0.41 0  0.6383613676644679 0.41 0  0.5869673343225223 0.41 0  0.5373680609412221 0.41 0  0.4895008759292634 0.41 0  0.4433053055145528 0.41 0  0.3987229542475914 0.41 0  0.3556974926297398 0.41 0  0.3141745521466497 0.41 0  0.2741016576310038 0.41 0  0.2354281840915826 0.41 0  0.1981052433265003 0.41 0  0.1620856860352591 0.41 0  0.1273239957535623 0.41 0  0.09377624077128965 0.41 0  0.06140001986584975 0.41 0  0.03015443760436654 0.41 0  0.2497468076502589 0.2050254481002335 0  0.2497468076502614 0.1949745518997913 0  0.2469965252529372 0.1829317073451959 0  0.2439893735792749 0.1762316384219906 0  0.2400332147834255 0.1700443375285386 0  0.2352133972704371 0.1645032867342007 0  0.2296339016332438 0.1597280261969788 0  0.2234150974217223 0.1558215752574715 0  0.2166911463437691 0.1528682099456123 0  0.2096071079204251 0.1509316448471593 0  0.2023158100364996 0.1500536585536553 0  0.194974551899914 0.1502531923497262 0  0.1877417105387872 0.1515259415822739 0  0.1807733240461124 0.153844448527136 0  0.1742197252835808 0.15715869474974 0  0.1682222986673531 0.1613971801805478 0  0.162910430003803 0.1664684656256651 0  0.1583987151779087 0.1722631454351573 0  0.1547844879126891 0.178656207771761 0  0.1521457199348551 0.1855097315605723 0  0.1505393388476355 0.1926758619366523 0  0.1505393388476328 0.2073241380633295 0  0.1521457199348437 0.2144902684393899 0  0.1547844879126531 0.221343792228163 0  0.1583987151778488 0.2277368545647528 0  0.1629104300036858 0.2335315343742052 0  0.1682222986671726 0.2386028198193036 0  0.1742197252833576 0.2428413052501257 0  0.1807733240458683 0.2461555514727623 0  0.1877417105384929 0.2484740584176516 0  0.1949745518995776 0.2497468076502398 0  0.202315810036185 0.2499463414463592 0  0.2096071079201568 0.2490683551528932 0  0.2166911463435495 0.2471317900544655 0  0.2234150974215506 0.2441784247426195 0  0.2296339016331197 0.2402719738031125 0  0.2352133972703547 0.2354967132658811 0  0.2400332147833751 0.2299556624715287 0  0.2439893735792577 0.2237683615780412 0  0.246996525252926 0.2170682926548348 0  0.25645809709277 0.21 0  0.2639263993298655 0.21 0  0.271394701566961 0.21 0  0.2788630038040554 0.21 0  0.2863313060411479 0.21 0  0.2937996082782405 0.21 0  0.301267910515333 0.21 0  0.3087362127524279 0.21 0  0.3162045149895234 0.21 0  0.3236728172265972 0.21 0  0.3311411194636928 0.21 0  0.3386094217007701 0.21 0  0.3460777239378666 0.21 0  0.3535460261749672 0.21 0  0.3610143284120516 0.21 0  0.3684826306491596 0.21 0  0.3759509328862226 0.21 0  0.383419235123329 0.21 0  0.3908875373604028 0.21 0  0.3983558395975142 0.21 0  0.4058241418345938 0.21 0  0.4132924440716992 0.21 0  0.4207607463087888 0.21 0  0.4282290485459029 0.21 0  0.4356973507830418 0.21 0  0.4431656530201649 0.21 0  0.4506339552573136 0.21 0  0.4581022574944306 0.21 0  0.4655705597315852 0.21 0  0.4730388619686996 0.21 0  0.480507164205851 0.21 0  0.4879754664429498 0.21 0  0.4954437686800938 0.21 0  0.502912070917267 0.21 0  0.5103803731544119 0.21 0  0.5178486753915261 0.21 0  0.5253169776286404 0.21 0  0.5327852798657868 0.21 0  0.5402535821029386 0.21 0  0.54772188434007 0.21 0  0.5551901865771842 0.21 0  0.5626584888143201 0.21 0  0.5701267910514778 0.21 0  0.5775950932886138 0.21 0  0.5850633955257281 0.21 0  0.5925316977628483 0.21 0  0.6 0.2050000000000054 0  0.6 0.1950000000000217 0  0.5925316977628897 0.19 0  0.5850633955257988 0.19 0  0.5775950932887378 0.19 0  0.5701267910515998 0.19 0  0.5626584888145268 0.19 0  0.5551901865773963 0.19 0  0.547721884340339 0.19 0  0.5402535821032429 0.19 0  0.5327852798661811 0.19 0  0.5253169776290537 0.19 0  0.5178486753919799 0.19 0  0.5103803731549078 0.19 0  0.502912070917822 0.19 0  0.4954437686807294 0.19 0  0.4879754664436223 0.19 0  0.4805071642065402 0.19 0  0.4730388619694271 0.19 0  0.4655705597323621 0.19 0  0.4581022574952563 0.19 0  0.4506339552581777 0.19 0  0.4431656530210671 0.19 0  0.4356973507839815 0.19 0  0.4282290485468779 0.19 0  0.4207607463097617 0.19 0  0.4132924440726327 0.19 0  0.4058241418354857 0.19 0  0.3983558395983636 0.19 0  0.3908875373612097 0.19 0  0.3834192351240934 0.19 0  0.3759509328869369 0.19 0  0.3684826306498175 0.19 0  0.361014328412667 0.19 0  0.3535460261755617 0.19 0  0.3460777239384295 0.19 0  0.3386094217012945 0.19 0  0.3311411194641595 0.19 0  0.3236728172270245 0.19 0  0.3162045149898895 0.19 0  0.3087362127527544 0.19 0  0.3012679105156187 0.19 0  0.2937996082784807 0.19 0  0.2863313060413428 0.19 0  0.2788630038042048 0.19 0  0.2713947015670686 0.19 0  0.2639263993299336 0.19 0  0.2564580970927985 0.19 0  0.2607803159922026 0.2000727136295815 0  0.5887803774232762 0.2001272386983733 0  0.5745072403740523 0.2002044435018727 0  0.5511891430099709 0.2001122610077113 0  0.2751288526855082 0.20000000000002 0  0.5365194309847112 0.1999999999999436 0  0.2894621222999649 0.1998691686390484 0  0.5215828265105155 0.1999999999999228 0  0.3127789816668748 0.1998657885438805 0  0.3274069683451451 0.2000000000000796 0  0.5066462220363641 0.199999999999908 0  0.3650630746574081 0.199866017807523 0  0.476773013087985 0.1999999999998713 0  0.3417402379596385 0.1998691686391011 0  0.3796850840047755 0.200000000000134 0  0.4618364086138087 0.1999999999998546 0  0.4917096175621762 0.1999999999998808 0  0.3946216884789568 0.2000000000001512 0  0.446899804139621 0.1999999999998389 0  0.4089549580935208 0.1998691686391595 0  0.4322718174608562 0.200127451265745 0  0.4201487168029707 0.1999966199048527 0  0.3528922713220932 0.2000185703532356 0  0.5633122436674589 0.1999814296467508 0  0.3006558810093873 0.1999966199048318 0  0.5815926498168407 0.1966545283159175 0  0.2677053789419034 0.1964246479135325 0  0.5290511287476175 0.1970915826863981 0  0.5439877332217911 0.197091582686394 0  0.2825131256993216 0.2035478995978015 0  0.3199386661080599 0.202908417313604 0  0.4842413153250809 0.1970915826863873 0  0.5141145242734466 0.1970915826863843 0  0.3722167817676917 0.2029084173136195 0  0.4693047108508938 0.1970915826863783 0  0.3348752705822316 0.202908417313609 0  0.3871533862418661 0.2029084173136212 0  0.4543681063767183 0.1970915826863795 0  0.4991779197992749 0.1970915826863902 0  0.4020059614928624 0.203547899597858 0  0.4394315019025246 0.1970915826863714 0  0.2550657455369551 0.2034088125358657 0  0.2548908499171161 0.1966940311614271 0  0.5946539510196798 0.2024302972968126 0  0.267698176732111 0.2039977513680092 0  0.4261685417851465 0.196409292431739 0  0.3590076176283495 0.196411355804271 0  0.5571672426447437 0.2036011176410121 0  0.3066757059912147 0.1964092924317024 0  0.594380730180568 0.1966558399668133 0  0.4842413153245942 0.2040749161535287 0  0.4693047108503577 0.2040749161535231 0  0.3871533862424271 0.1959250838464788 0  0.372246743208829 0.1959123236376545 0  0.5141145242731028 0.2040749161535395 0  0.4543681063761134 0.2040749161535186 0  0.4019979587101454 0.1959834479682427 0  0.4394608940728603 0.2040870543693135 0  0.5439623148931173 0.2040856076781014 0  0.5290511287473298 0.2040749161535501 0  0.4991779197988497 0.2040749161535382 0  0.3347912413592433 0.1959225448935183 0  0.3199680582793816 0.1959123018030061 0  0.2825051229162361 0.1959834479681729 0  0.3590471196690275 0.2036304442587945 0  0.5571594006495384 0.1963685282145804 0  0.3067669986803285 0.203627750582736 0  0.4262598344738712 0.2036568242185335 0  0.5814408164431408 0.2041285596160068 0  0.5688286748170428 0.1961819304477386 0  0.4145905603063645 0.2038180695522843 0  0.3473758401724931 0.2038180695522752 0  0.2950977245128307 0.2038180695522663 0  0.5688286748170693 0.203818069552238 0  0.2950977245127906 0.1961819304477774 0  0.3473758401723931 0.1961819304478349 0  0.4145905603061963 0.1961819304479011 0  0.2601812407614425 0.2056861609747042
[...]
<PointData  Vectors="f_46-0"> 
<DataArray  type="Float64"  Name="f_46-0"  NumberOfComponents="3" format="ascii">0.0000000000000000e+00 0.0000000000000000e+00 0.0000000000000000e+00  0.0000000000000000e+00 0.0000000000000000e+00 0.0000000000000000e+00  0.0000000000000000e+00 0.0000000000000000e+00 0.0000000000000000e+00  0.0000000000000000e+00 0.0000000000000000e+00 0.0000000000000000e+00  6.6921193800327828e-05 -4.9275878841717046e-04 0.0000000000000000e+00  1.0469109084143915e-04 -4.8526374867109543e-04 0.0000000000000000e+00  0.0000000000000000e+00 0.0000000000000000e+00 0.0000000000000000e+00  0.0000000000000000e+00 0.0000000000000000e+00 0.0000000000000000e+00  0.0000000000000000e+00 0.0000000000000000e+00 0.0000000000000000e+00  0.0000000000000000e+00 0.0000000000000000e+00 0.0000000000000000e+00  8.5877092913414096e-05 -4.8900654754282060e-04 0.0000000000000000e+00  7.4239338652790615e-02 0.0000000000000000e+00 0.0000000000000000e+00  1.3705724058977636e-01 0.0000000000000000e+00 0.0000000000000000e+00  1.8845370581094259e-01 0.0000000000000000e+00 0.0000000000000000e+00  2.2842873431634858e-01 0.0000000000000000e+00 0.0000000000000000e+00  2.5698232610598948e-01 0.0000000000000000e+00 0.0000000000000000e+00  2.7411448117986326e-01 0.0000000000000000e+00 0.0000000000000000e+00  2.7982519953795298e-01 0.0000000000000000e+00 0.0000000000000000e+00  2.7411448118020965e-01 0.0000000000000000e+00 0.0000000000000000e+00  2.5698232610658439e-01 0.0000000000000000e+00 0.0000000000000000e+00  2.2842873431708546e-01 0.0000000000000000e+00 0.0000000000000000e+00  1.8845370581164247e-01 0.0000000000000000e+00 0.0000000000000000e+00  1.3705724059037369e-01 0.0000000000000000e+00 0.0000000000000000e+00  7.4239338653127179e-02 0.0000000000000000e+00 0.0000000000000000e+00  0.0000000000000000e+00 0.0000000000000000e+00 0.0000000000000000e+00  0.0000000000000000e+00 0.0000000000000000e+00 0.0000000000000000e+00  0.0000000000000000e+00 0.0000000000000000e+00 0.0000000000000000e+00  0.0000000000000000e+00 0.0000000000000000e+00 0.0000000000000000e+00  0.0000000000000000e+00 0.0000000000000000e+00 0.0000000000000000e+00  0.0000000000000000e+00 0.0000000000000000e+00 0.0000000000000000e+00  0.0000000000000000e+00 0.0000000000000000e+00 0.0000000000000000e+00  0.0000000000000000e+00 0.0000000000000000e+00 0.0000000000000000e+00  0.0000000000000000e+00 0.0000000000000000e+00 0.0000000000000000e+00  0.0000000000000000e+00 0.0000000000000000e+00 0.0000000000000000e+00  0.0000000000000000e+00 0.0000000000000000e+00 0.0000000000000000e+00  0.0000000000000000e+00 0.0000000000000000e+00 0.0000000000000000e+00  0.0000000000000000e+00 0.0000000000000000e+00 0.0000000000000000e+00  0.0000000000000000e+00 0.0000000000000000e+00 0.0000000000000000e+00  0.0000000000000000e+00 0.0000000000000000e+00 0.0000000000000000e+00  0.0000000000000000e+00 0.0000000000000000e+00 0.0000000000000000e+00  0.0000000000000000e+00 0.0000000000000000e+00 0.0000000000000000e+00  0.0000000000000000e+00 0.0000000000000000e+00 0.0000000000000000e+00  0.0000000000000000e+00 0.0000000000000000e+00 0.0000000000000000e+00  0.0000000000000000e+00 0.0000000000000000e+00 0.0000000000000000e+00  0.0000000000000000e+00 0.0000000000000000e+00 0.0000000000000000e+00  0.0000000000000000e+00 0.0000000000000000e+00 0.0000000000000000e+00  0.0000000000000000e+00 0.0000000000000000e+00 0.0000000000000000e+00  0.0000000000000000e+00 0.0000000000000000e+00 0.0000000000000000e+00  0.0000000000000000e+00 0.0000000000000000e+00 0.0000000000000000e+00  0.0000000000000000e+00 0.0000000000000000e+00 0.0000000000000000e+00  0.0000000000000000e+00 0.0000000000000000e+00 0.0000000000000000e+00  0.0000000000000000e+00 0.0000000000000000e+00 0.0000000000000000e+00  0.0000000000000000e+00 0.0000000000000000e+00 0.0000000000000000e+00  0.0000000000000000e+00 0.0000000000000000e+00 0.0000000000000000e+00  0.0000000000000000e+00 0.0000000000000000e+00 0.0000000000000000e+00  0.0000000000000000e+00 0.0000000000000000e+00 0.0000000000000000e+00  0.0000000000000000e+00 0.0000000000000000e+00 0.0000000000000000e+00  0.0000000000000000e+00 0.0000000000000000e+00 0.0000000000000000e+00  0.0000000000000000e+00 0.0000000000000000e+00 0.0000000000000000e+00  0.0000000000000000e+00 0.0000000000000000e+00 0.0000000000000000e+00  0.0000000000000000e+00 0.0000000000000000e+00 0.0000000000000000e+00  0.0000000000000000e+00 0.0000000000000000e+00 0.0000000000000000e+00  2.6138413061064630e-01 1.6853199604470927e-02 0.0000000000000000e+00  2.1443344189874991e-01 8.7445474208662998e-04 0.0000000000000000e+00  2.6662023323985490e-01 -2.6449440384091791e-02 0.0000000000000000e+00  0.0000000000000000e+00 0.0000000000000000e+00 0.0000000000000000e+00  0.0000000000000000e+00 0.0000000000000000e+00 0.0000000000000000e+00  0.0000000000000000e+00 0.0000000000000000e+00 0.0000000000000000e+00  0.0000000000000000e+00 0.0000000000000000e+00 0.0000000000000000e+00  0.0000000000000000e+00 0.0000000000000000e+00 0.0000000000000000e+00  0.0000000000000000e+00 0.0000000000000000e+00 0.0000000000000000e+00  0.0000000000000000e+00 0.0000000000000000e+00 0.0000000000000000e+00  0.0000000000000000e+00 0.0000000000000000e+00 0.0000000000000000e+00  0.0000000000000000e+00 0.0000000000000000e+00 0.0000000000000000e+00  0.0000000000000000e+00 0.0000000000000000e+00 0.0000000000000000e+00  0.0000000000000000e+00 0.0000000000000000e+00 0.0000000000000000e+00  0.0000000000000000e+00 0.0000000000000000e+00 0.0000000000000000e+00  0.0000000000000000e+00 0.0000000000000000e+00 0.0000000000000000e+00  0.0000000000000000e+00 0.0000000000000000e+00 0.0000000000000000e+00  0.0000000000000000e+00 0.0000000000000000e+00 0.0000000000000000e+00  0.0000000000000000e+00 0.0000000000000000e+00 0.0000000000000000e+00  0.0000000000000000e+00 0.0000000000000000e+00 0.0000000000000000e+00  0.0000000000000000e+00 0.0000000000000000e+00 0.0000000000000000e+00  0.0000000000000000e+00 0.0000000000000000e+00 0.0000000000000000e+00  0.0000000000000000e+00 0.0000000000000000e+00 0.0000000000000000e+00  0.0000000000000000e+00 0.0000000000000000e+00 0.0000000000000000e+00  0.0000000000000000e+00 0.0000000000000000e+00 0.0000000000000000e+00  0.0000000000000000e+00 0.0000000000000000e+00 0.0000000000000000e+00  0.0000000000000000e+00 0.0000000000000000e+00 0.0000000000000000e+00  0.0000000000000000e+00 0.0000000000000000e+00 0.0000000000000000e+00  0.0000000000000000e+00 0.0000000000000000e+00 0.0000000000000000e+00  0.0000000000000000e+00 0.0000000000000000e+00 0.0000000000000000e+00  0.0000000000000000e+00 0.0000000000000000e+00 0.0000000000000000e+00  0.0000000000000000e+00 0.0000000000000000e+00 0.0000000000000000e+00  0.0000000000000000e+00 0.0000000000000000e+00 0.0000000000000000e+00  0.0000000000000000e+00 0.0000000000000000e+00 0.0000000000000000e+00  0.0000000000000000e+00 0.0000000000000000e+00 0.0000000000000000e+00  0.0000000000000000e+00 0.0000000000000000e+00 0.0000000000000000e+00  0.0000000000000000e+00 0.0000000000000000e+00 0.0000000000000000e+00  0.0000000000000000e+00 0.0000000000000000e+00 0.0000000000000000e+00  0.0000000000000000e+00 0.0000000000000000e+00 0.0000000000000000e+00  0.0000000000000000e+00 0.0000000000000000e+00 0.0000000000000000e+00  0.0000000000000000e+00 0.0000000000000000e+00 0.0000000000000000e+00  0.0000000000000000e+00 0.0000000000000000e+00 0.0000000000000000e+00  0.0000000000000000e+00 0.0000000000000000e+00 0.0000000000000000e+00  2.5960523255313272e-12 5.1061728254112367e-13 0.0000000000000000e+00  0.0000000000000000e+00 0.0000000000000000e+00 0.0000000000000000e+00  0.0000000000000000e+00 0.0000000000000000e+00 0.0000000000000000e+00  0.0000000000000000e+00 0.0000000000000000e+00 0.0000000000000000e+00  0.0000000000000000e+00 0.0000000000000000e+00 0.0000000000000000e+00  1.3645905682234778e-12 0.0000000000000000e+00 0.0000000000000000e+00  0.0000000000000000e+00 0.0000000000000000e+00 0.0000000000000000e+00  0.0000000000000000e+00 0.0000000000000000e+00 0.0000000000000000e+00  0.0000000000000000e+00 0.0000000000000000e+00 0.0000000000000000e+00  0.0000000000000000e+00 0.0000000000000000e+00 0.0000000000000000e+00  0.0000000000000000e+00 0.0000000000000000e+00 0.0000000000000000e+00  0.0000000000000000e+00 0.0000000000000000e+00 0.0000000000000000e+00  0.0000000000000000e+00 0.0000000000000000e+00 0.0000000000000000e+00  0.0000000000000000e+00 0.0000000000000000e+00 0.0000000000000000e+00  0.0000000000000000e+00 0.0000000000000000e+00 0.0000000000000000e+00  0.0000000000000000e+00 0.0000000000000000e+00 0.0000000000000000e+00  0.0000000000000000e+00 0.0000000000000000e+00 0.0000000000000000e+00  0.0000000000000000e+00 0.0000000000000000e+00 0.0000000000000000e+00  0.0000000000000000e+00 0.0000000000000000e+00 0.0000000000000000e+00  0.0000000000000000e+00 0.0000000000000000e+00 0.0000000000000000e+00  0.0000000000000000e+00 0.0000000000000000e+00 0.0000000000000000e+00  0.0000000000000000e+00 0.0000000000000000e+00 0.0000000000000000e+00  0.0000000000000000e+00 0.0000000000000000e+00 0.0000000000000000e+00  0.0000000000000000e+00 0.0000000000000000e+00 0.0000000000000000e+00  0.0000000000000000e+00 0.0000000000000000e+00 0.0000000000000000e+00  0.0000000000000000e+00 0.0000000000000000e+00 0.0000000000000000e+00  0.0000000000000000e+00 0.0000000000000000e+00 0.0000000000000000e+00  0.0000000000000000e+00 0.0000000000000000e+00 0.0000000000000000e+00  0.0000000000000000e+00 0.0000000000000000e+00 0.0000000000000000e+00  0.0000000000000000e+00 0.0000000000000000e+00 0.0000000000000000e+00  0.0000000000000000e+00 0.0000000000000000e+00 0.0000000000000000e+00  0.0000000000000000e+00 0.0000000000000000e+00 0.0000000000000000e+00  0.0000000000000000e+00 0.0000000000000000e+00 0.0000000000000000e+00  0.0000000000000000e+00 0.0000000000000000e+00 0.0000000000000000e+00  0.0000000000000000e+00 0.0000000000000000e+00 0.0000000000000000e+00  0.0000000000000000e+00 0.0000000000000000e+00 0.0000000000000000e+00  0.0000000000000000e+00 0.0000000000000000e+00 0.0000000000000000e+00  2.8192605075603746e-13 0.0000000000000000e+00 0.0000000000000000e+00  2.2290033991685112e-06 5.2511260529465615e-06 0.0000000000000000e+00  4.4948194468077299e-06 4.7058496967420718e-06 0.0000000000000000e+00  6.4301472319449317e-06 3.0959459467980510e-06 0.0000000000000000e+00  8.3757559147559713e-06 5.4589005163764137e-07 0.0000000000000000e+00  1.0182608163224606e-05 -2.6996132143695484e-06 0.0000000000000000e+00  1.2245548146068456e-05 -6.6107378792387641e-06 0.0000000000000000e+00  1.4181405356402758e-05 -1.1084806893952627e-05 0.0000000000000000e+00  1.6209030976649567e-05 -1.6301160817458764e-05 0.0000000000000000e+00  1.8439898119355369e-05 -2.2079231060346918e-05 0.0000000000000000e+00  2.0515164617492542e-05 -2.8479776729096778e-05 0.0000000000000000e+00  2.2836736609661548e-05 -3.5452884156697555e-05 0.0000000000000000e+00  2.4975904484435398e-05 -4.3016771274577173e-05 0.0000000000000000e+00  2.7311435662479176e-05 -5.1116373000367101e-05 0.0000000000000000e+00  2.9497811465399885e-05 -5.9661776246127682e-05 0.0000000000000000e+00  3.1714598046334699e-05 -6.8776739764510398e-05 0.0000000000000000e+00  3.4044420852829556e-05 -7.8306689726265433e-05 0.0000000000000000e+00  3.6227984910684962e-05 -8.8293233538074936e-05 0.0000000000000000e+00  3.8553036664620397e-05 -9.8693138853668864e-05 0.0000000000000000e+00  4.0729252086471295e-05 -1.0949624164377808e-04 0.0000000000000000e+00  4.3017891987379655e-05 -1.2064504339692438e-04 0.0000000000000000e+00  4.5207813861011159e-05 -1.3215753795469076e-04 0.0000000000000000e+00  4.7470928024428061e-05 -1.4399452007233930e-04 0.0000000000000000e+00  4.9644027215395716e-05 -1.5607068015182046e-04 0.0000000000000000e+00  5.1830565089536250e-05 -1.6846384942860270e-04 0.0000000000000000e+00  5.4064136888041968e-05 -1.8105200926371652e-04 0.0000000000000000e+00  5.6253954034796467e-05 -1.9389585001518476e-04 0.0000000000000000e+00  5.8464638657579229e-05 -2.0692129196282096e-04 0.0000000000000000e+00  6.0655632894359548e-05 -2.2013218632987208e-04 0.0000000000000000e+00  6.2866011382860343e-05 -2.3349492102582966e-04 0.0000000000000000e+00  6.5064520465524559e-05 -2.4699816070938564e-04 0.0000000000000000e+00  6.7280665473391839e-05 -2.6061956249472145e-04 0.0000000000000000e+00  6.9494961492997751e-05 -2.7434802584574855e-04 0.0000000000000000e+00  7.1723000025663151e-05 -2.8815855254767125e-04 0.0000000000000000e+00  7.3958079423870786e-05 -3.0205577823835816e-04 0.0000000000000000e+00  7.6215114466264932e-05 -3.1600152548019939e-04 0.0000000000000000e+00  7.8478466141741380e-05 -3.3000780164355145e-04 0.0000000000000000e+00  8.0761119647408891e-05 -3.4404645196615128e-04 0.0000000000000000e+00  8.3057079883207377e-05 -3.5812705364932220e-04 0.0000000000000000e+00  8.5376774639426528e-05 -3.7222372722729952e-04 0.0000000000000000e+00  8.7716116895432419e-05 -3.8634580723037636e-04 0.0000000000000000e+00  9.0081406257769322e-05 -4.0047729456120149e-04 0.0000000000000000e+00  9.2460861712622162e-05 -4.1461947766734922e-04 0.0000000000000000e+00  9.4876410977163262e-05 -4.2876541305431282e-04 0.0000000000000000e+00  9.7305786207857624e-05 -4.4291620648882470e-04 0.0000000000000000e+00  9.9761469254146265e-05 -4.5707429326434425e-04 0.0000000000000000e+00  1.0222873428703818e-04 -4.7121587562135925e-04 0.0000000000000000e+00  9.5314739966196365e-05 -4.8713206344296479e-04 0.0000000000000000e+00  7.6425984674339124e-05 -4.9088172387018794e-04 0.0000000000000000e+00  6.4461044745656323e-05 -4.7858965754325966e-04 0.0000000000000000e+00  6.1995987185490273e-05 -4.6452978821928697e-04 0.0000000000000000e+00  5.9545012877270024e-05 -4.5048146760390349e-04 0.0000000000000000e+00  5.7127195443793498e-05 -4.3643165539455708e-04 0.0000000000000000e+00  5.4726450835839944e-05 -4.2238385007977640e-04 0.0000000000000000e+00  5.2370818297145859e-05 -4.0834210664774317e-04 0.0000000000000000e+00  5.0043466383228459e-05 -3.9430674939804728e-04 0.0000000000000000e+00  4.7749326460394375e-05 -3.8028768553156829e-04 0.0000000000000000e+00  4.5497558814044803e-05 -3.6627810653576561e-04 0.0000000000000000e+00  4.3274383362903386e-05 -3.5230623360315427e-04 0.0000000000000000e+00  4.1103420987795090e-05 -3.3835408252567571e-04 0.0000000000000000e+00  3.8959466876567989e-05 -3.2445566718887177e-04 0.0000000000000000e+00  3.6876998856696422e-05 -3.1059399097012601e-04 0.0000000000000000e+00  3.4815670625972761e-05 -2.9680826051029419e-04 0.0000000000000000e+00  3.2826939422831755e-05 -2.8308235632458858e-04 0.0000000000000000e+00  3.0854346068929108e-05 -2.6946031117576122e-04 0.0000000000000000e+00  2.8969276255159421e-05 -2.5592671017815632e-04 0.0000000000000000e+00  2.7092869545343553e-05 -2.4252882073955929e-04 0.0000000000000000e+00  2.5318163178192120e-05 -2.2925065528957205e-04 0.0000000000000000e+00  2.3540421849115357e-05 -2.1614487064822020e-04 0.0000000000000000e+00  2.1881679293544902e-05 -2.0320002725625352e-04 0.0000000000000000e+00  2.0208976265890629e-05 -1.9047045802091895e-04 0.0000000000000000e+00  1.8670325477232394e-05 -1.7795619316826066e-04 0.0000000000000000e+00  1.7116517642226585e-05 -1.6566408980577072e-04 0.0000000000000000e+00  1.5626900819083897e-05 -1.5368252337297453e-04 0.0000000000000000e+00  1.4249761520234819e-05 -1.4192577108798146e-04 0.0000000000000000e+00  1.2884979860578714e-05 -1.3053280348439145e-04 0.0000000000000000e+00  1.1620114506150156e-05 -1.1944240249229639e-04 0.0000000000000000e+00  1.0377080857672055e-05 -1.0875925570025816e-04 0.0000000000000000e+00  9.2351964481959915e-06 -9.8435706260958735e-05 0.0000000000000000e+00  8.1151261859976481e-06 -8.8551204860450570e-05 0.0000000000000000e+00  7.1521023119541201e-06 -7.9143941413125445e-05 0.0000000000000000e+00  6.1292191515890778e-06 -7.0144566968007683e-05 0.0000000000000000e+00  5.1798702780287510e-06 -6.1723358751016204e-05 0.0000000000000000e+00  4.4015010821486327e-06 -5.3723613159516162e-05 0.0000000000000000e+00  3.6333966290157851e-06 -4.6351148803405874e-05 0.0000000000000000e+00  3.0006383690439541e-06 -3.9507119849626296e-05 0.0000000000000000e+00  2.4014514074080918e-06 -3.3288557452430534e-05 0.0000000000000000e+00  2.0159825217922370e-06 -2.7733589501560244e-05 0.0000000000000000e+00  1.5647604490584241e-06 -2.2725422604152109e-05 0.0000000000000000e+00  1.2226837375688338e-06 -1.8479263773617156e-05 0.0000000000000000e+00  1.1150398293767248e-06 -1.4767743662306463e-05 0.0000000000000000e+00  1.0127961966348430e-06 -1.1855509888211450e-05 0.0000000000000000e+00  1.0456417394971805e-06 -9.6047818747714429e-06 0.0000000000000000e+00  8.6928864782697657e-07 -7.8566296170498035e-06 0.0000000000000000e+00  5.8512098525712682e-07 -6.4332221816408977e-06 0.0000000000000000e+00  3.2803499924574878e-06 -5.5593703823796442e-07 0.0000000000000000e+00  8.2359649094723909e-05 -4.6777340174427218e-04 0.0000000000000000e+00  7.7784499495669570e-05 -4.4078844735102217e-04 0.0000000000000000e+00  7.0156805030371314e-05 -3.9680943183892316e-04 0.0000000000000000e+00  4.2760334231595802e-06 -3.9109049090702267e-06 0.0000000000000000e+00  6.5400039898382074e-05 -3.6921070737558115e-04 0.0000000000000000e+00  6.0655707541954897e-06 -9.8740789001222440e-06 0.0000000000000000e+00  6.0883779420425126e-05 -3.4114829804136166e-04 0.0000000000000000e+00  9.7221916377030135e-06 -2.4672684590778865e-05 0.0000000000000000e+00  1.2510530750133969e-05 -3.7003229211088008e-05 0.0000000000000000e+00  5.6482407058464917e-05 -3.1322961881523380e-04 0.0000000000000000e+00  2.0134033934143277e-05 -7.8801979617809350e-05 0.0000000000000000e+00  4.8022822293063829e-05 -2.5816205517228464e-04 0.0000000000000000e+00  1.5205779380619618e-05 -5.1387151862174658e-05 0.0000000000000000e+00  2.3585778177967548e-05 -9.8231342235822420e-05 0.0000000000000000e+00  4.3963324370337115e-05 -2.3123459543378778e-04 0.0000000000000000e+00  5.2195387467008305e-05 -2.8553452949481485e-04 0.0000000000000000e+00  2.7048712917842456e-05 -1.1975240497149074e-04 0.0000000000000000e+00  4.0014099979817502e-05 -2.0489366970280099e-04 0.0000000000000000e+00  3.0266900246773122e-05 -1.4180415830090373e-04 0.0000000000000000e+00  3.6466191564371577e-05 -1.7976117040728300e-04 0.0000000000000000e+00  3.3214679299574406e-05 -1.5974130307294665e-04 0.0000000000000000e+00  1.7700573713084076e-05 -6.3891129038338014e-05 0.0000000000000000e+00  7.3755321127281872e-05 -4.1973827213413620e-04 0.0000000000000000e+00  7.8267514269076127e-06 -1.6212082969049633e-05 0.0000000000000000e+00  7.3411211590013108e-05 -4.5549793125548735e-04 0.0000000000000000e+00  2.7571995074505047e-06 -4.3321038325275600e-06 0.0000000000000000e+00  5.7674657043814549e-05 -3.5636187083562255e-04 0.0000000000000000e+00  6.2229602248141782e-05 -3.8444350077443358e-04 0.0000000000000000e+00  6.6349630913715256e-06 -4.5336950908811142e-06 0.0000000000000000e+00  1.3561194426580141e-05 -2.8813872703873851e-05 0.0000000000000000e+00  4.4785030289957228e-05 -2.7308783351173330e-04 0.0000000000000000e+00  5.3246643700196930e-05 -3.2839265471551655e-04 0.0000000000000000e+00  2.5750410790264461e-05 -8.6620147121759498e-05 0.0000000000000000e+00  4.0758491798991165e-05 -2.4595275144762577e-04 0.0000000000000000e+00  1.6844135245226510e-05 -4.2682712136046471e-05 0.0000000000000000e+00  2.9466159612955159e-05 -1.0738149806458366e-04 0.0000000000000000e+00  3.6871974944203297e-05 -2.1933009246816681e-04 0.0000000000000000e+00  4.8949266748551709e-05 -3.0060502422773534e-04 0.0000000000000000e+00  3.4209724301734824e-05 -1.2922133476397048e-04 0.0000000000000000e+00  3.3121978677345311e-05 -1.9337268760450513e-04 0.0000000000000000e+00  2.4098430876155493e-06 1.2991829795145119e-06 0.0000000000000000e+00  2.0720503250574277e-06 -1.3357472567453935e-06 0.0000000000000000e+00  8.8679529866497300e-05 -4.7801105221294970e-04 0.0000000000000000e+00  4.4570498480752346e-06 6.8720919672808259e-07 0.0000000000000000e+00  2.878567964