<?xml version="1.0"?>
<VTKFile type="UnstructuredGrid"  version="0.1"  >
<UnstructuredGrid>
<Piece  NumberOfPoints="1419" NumberOfCells="2698">
<Points>
<DataArray  type="Float64"  NumberOfComponents="3"  format="ascii">0 0 0  0 0.41 0  2.5 0 0  2.5 0.41 0  0.6 0.19 0  0.6 0.21 0  0.25 0.2 0  0.15 0.2 0  0.2489897948556636 0.21 0  0.2489897948556636 0.19 0  0.6 0.2 0  0 0.3807142857143437 0  0 0.3514285714286952 0  0 0.3221428571430699 0  0 0.29285714285744 0  0 0.2635714285718054 0  0 0.2342857142861561 0  0 0.2050000000005308 0  0 0.175714285714732 0  0 0.1464285714289574 0  0 0.1171428571431897 0  0 0.08785714285737878 0  0 0.05857142857161107 0  0 0.02928571428580012 0  0.03015443760436003 0 0  0.06140001986583606 0 0  0.09377624077125973 0 0  0.1273239957535082 0 0  0.1620856860351972 0 0  0.1981052433264291 0 0  0.235428184091502 0 0  0.2741016576309132 0 0  0.3141745521465447 0 0  0.3556974926295285 0 0  0.3987229542472677 0 0  0.4433053055141081 0 0  0.4895008759286886 0 0  0.5373680609405097 0 0  0.5869673343216626 0 0  0.6383613676634521 0 0  0.6916151138468254 0 0  0.7467958595648856 0 0  0.8039733463919316 0 0  0.8632198139502143 0 0  0.9246101326867038 0 0  0.9882218810934433 0 0  1.054135445558498 0 0  1.122434100542598 0 0  1.193204177141305 0 0  1.266535089879536 0 0  1.342519516046404 0 0  1.421253448503939 0 0  1.502836389106271 0 0  1.587371439758838 0 0  1.674965418777374 0 0  1.765729001825544 0 0  1.859776908880082 0 0  1.957227977487062 0 0  2.058205329869943 0 0  2.162836591189951 0 0  2.271253957290865 0 0  2.383594446803425 0 0  2.5 0.1024999999997612 0  2.5 0.2049999999994743 0  2.5 0.3074999999997183 0  2.383594446803656 0.41 0  2.271253957291315 0.41 0  2.162836591190598 0.41 0  2.058205329870775 0.41 0  1.957227977488067 0.41 0  1.859776908881246 0.41 0  1.765729001826854 0.41 0  1.674965418778818 0.41 0  1.58737143976041 0.41 0  1.502836389107956 0.41 0  1.421253448505726 0.41 0  1.342519516048286 0.41 0  1.266535089881505 0.41 0  1.193204177143353 0.41 0  1.122434100544716 0.41 0  1.05413544556068 0.41 0  0.9882218810956305 0.41 0  0.9246101326886647 0.41 0  0.8632198139519631 0.41 0  0.8039733463934788 0.41 0  0.7467958595662458 0.41 0  0.6916151138480078 0.41 0  0.6383613676644679 0.41 0  0.5869673343225223 0.41 0  0.5373680609412221 0.41 0  0.4895008759292634 0.41 0  0.4433053055145528 0.41 0  0.3987229542475914 0.41 0  0.3556974926297398 0.41 0  0.3141745521466497 0.41 0  0.2741016576310038 0.41 0  0.2354281840915826 0.41 0  0.1981052433265003 0.41 0  0.1620856860352591 0.41 0  0.1273239957535623 0.41 0  0.09377624077128965 0.41 0  0.06140001986584975 0.41 0  0.03015443760436654 0.41 0  0.2497468076502589 0.2050254481002335 0  0.2497468076502614 0.1949745518997913 0  0.2469965252529372 0.1829317073451959 0  0.2439893735792749 0.1762316384219906 0  0.2400332147834255 0.1700443375285386 0  0.2352133972704371 0.1645032867342007 0  0.2296339016332438 0.1597280261969788 0  0.2234150974217223 0.1558215752574715 0  0.2166911463437691 0.1528682099456123 0  0.2096071079204251 0.1509316448471593 0  0.2023158100364996 0.1500536585536553 0  0.194974551899914 0.1502531923497262 0  0.1877417105387872 0.1515259415822739 0  0.1807733240461124 0.153844448527136 0  0.1742197252835808 0.15715869474974 0  0.1682222986673531 0.1613971801805478 0  0.162910430003803 0.1664684656256651 0  0.1583987151779087 0.1722631454351573 0  0.1547844879126891 0.178656207771761 0  0.1521457199348551 0.1855097315605723 0  0.1505393388476355 0.1926758619366523 0  0.1505393388476328 0.2073241380633295 0  0.1521457199348437 0.2144902684393899 0  0.1547844879126531 0.221343792228163 0  0.1583987151778488 0.2277368545647528 0  0.1629104300036858 0.2335315343742052 0  0.1682222986671726 0.2386028198193036 0  0.1742197252833576 0.2428413052501257 0  0.1807733240458683 0.2461555514727623 0  0.1877417105384929 0.2484740584176516 0  0.1949745518995776 0.2497468076502398 0  0.202315810036185 0.2499463414463592 0  0.2096071079201568 0.2490683551528932 0  0.2166911463435495 0.2471317900544655 0  0.2234150974215506 0.2441784247426195 0  0.2296339016331197 0.2402719738031125 0  0.2352133972703547 0.2354967132658811 0  0.2400332147833751 0.2299556624715287 0  0.2439893735792577 0.2237683615780412 0  0.246996525252926 0.2170682926548348 0  0.25645809709277 0.21 0  0.2639263993298655 0.21 0  0.271394701566961 0.21 0  0.2788630038040554 0.21 0  0.2863313060411479 0.21 0  0.2937996082782405 0.21 0  0.301267910515333 0.21 0  0.3087362127524279 0.21 0  0.3162045149895234 0.21 0  0.3236728172265972 0.21 0  0.3311411194636928 0.21 0  0.3386094217007701 0.21 0  0.3460777239378666 0.21 0  0.3535460261749672 0.21 0  0.3610143284120516 0.21 0  0.3684826306491596 0.21 0  0.3759509328862226 0.21 0  0.383419235123329 0.21 0  0.3908875373604028 0.21 0  0.3983558395975142 0.21 0  0.4058241418345938 0.21 0  0.4132924440716992 0.21 0  0.4207607463087888 0.21 0  0.4282290485459029 0.21 0  0.4356973507830418 0.21 0  0.4431656530201649 0.21 0  0.4506339552573136 0.21 0  0.4581022574944306 0.21 0  0.4655705597315852 0.21 0  0.4730388619686996 0.21 0  0.480507164205851 0.21 0  0.4879754664429498 0.21 0  0.4954437686800938 0.21 0  0.502912070917267 0.21 0  0.5103803731544119 0.21 0  0.5178486753915261 0.21 0  0.5253169776286404 0.21 0  0.5327852798657868 0.21 0  0.5402535821029386 0.21 0  0.54772188434007 0.21 0  0.5551901865771842 0.21 0  0.5626584888143201 0.21 0  0.5701267910514778 0.21 0  0.5775950932886138 0.21 0  0.5850633955257281 0.21 0  0.5925316977628483 0.21 0  0.6 0.2050000000000054 0  0.6 0.1950000000000217 0  0.5925316977628897 0.19 0  0.5850633955257988 0.19 0  0.5775950932887378 0.19 0  0.5701267910515998 0.19 0  0.5626584888145268 0.19 0  0.5551901865773963 0.19 0  0.547721884340339 0.19 0  0.5402535821032429 0.19 0  0.5327852798661811 0.19 0  0.5253169776290537 0.19 0  0.5178486753919799 0.19 0  0.5103803731549078 0.19 0  0.502912070917822 0.19 0  0.4954437686807294 0.19 0  0.4879754664436223 0.19 0  0.4805071642065402 0.19 0  0.4730388619694271 0.19 0  0.4655705597323621 0.19 0  0.4581022574952563 0.19 0  0.4506339552581777 0.19 0  0.4431656530210671 0.19 0  0.4356973507839815 0.19 0  0.4282290485468779 0.19 0  0.4207607463097617 0.19 0  0.4132924440726327 0.19 0  0.4058241418354857 0.19 0  0.3983558395983636 0.19 0  0.3908875373612097 0.19 0  0.3834192351240934 0.19 0  0.3759509328869369 0.19 0  0.3684826306498175 0.19 0  0.361014328412667 0.19 0  0.3535460261755617 0.19 0  0.3460777239384295 0.19 0  0.3386094217012945 0.19 0  0.3311411194641595 0.19 0  0.3236728172270245 0.19 0  0.3162045149898895 0.19 0  0.3087362127527544 0.19 0  0.3012679105156187 0.19 0  0.2937996082784807 0.19 0  0.2863313060413428 0.19 0  0.2788630038042048 0.19 0  0.2713947015670686 0.19 0  0.2639263993299336 0.19 0  0.2564580970927985 0.19 0  0.2607803159922026 0.2000727136295815 0  0.5887803774232762 0.2001272386983733 0  0.5745072403740523 0.2002044435018727 0  0.5511891430099709 0.2001122610077113 0  0.2751288526855082 0.20000000000002 0  0.5365194309847112 0.1999999999999436 0  0.2894621222999649 0.1998691686390484 0  0.5215828265105155 0.1999999999999228 0  0.3127789816668748 0.1998657885438805 0  0.3274069683451451 0.2000000000000796 0  0.5066462220363641 0.199999999999908 0  0.3650630746574081 0.199866017807523 0  0.476773013087985 0.1999999999998713 0  0.3417402379596385 0.1998691686391011 0  0.3796850840047755 0.200000000000134 0  0.4618364086138087 0.1999999999998546 0  0.4917096175621762 0.1999999999998808 0  0.3946216884789568 0.2000000000001512 0  0.446899804139621 0.1999999999998389 0  0.4089549580935208 0.1998691686391595 0  0.4322718174608562 0.200127451265745 0  0.4201487168029707 0.1999966199048527 0  0.3528922713220932 0.2000185703532356 0  0.5633122436674589 0.1999814296467508 0  0.3006558810093873 0.1999966199048318 0  0.5815926498168407 0.1966545283159175 0  0.2677053789419034 0.1964246479135325 0  0.5290511287476175 0.1970915826863981 0  0.5439877332217911 0.197091582686394 0  0.2825131256993216 0.2035478995978015 0  0.3199386661080599 0.202908417313604 0  0.4842413153250809 0.1970915826863873 0  0.5141145242734466 0.1970915826863843 0  0.3722167817676917 0.2029084173136195 0  0.4693047108508938 0.1970915826863783 0  0.3348752705822316 0.202908417313609 0  0.3871533862418661 0.2029084173136212 0  0.4543681063767183 0.1970915826863795 0  0.4991779197992749 0.1970915826863902 0  0.4020059614928624 0.203547899597858 0  0.4394315019025246 0.1970915826863714 0  0.2550657455369551 0.2034088125358657 0  0.2548908499171161 0.1966940311614271 0  0.5946539510196798 0.2024302972968126 0  0.267698176732111 0.2039977513680092 0  0.4261685417851465 0.196409292431739 0  0.3590076176283495 0.196411355804271 0  0.5571672426447437 0.2036011176410121 0  0.3066757059912147 0.1964092924317024 0  0.594380730180568 0.1966558399668133 0  0.4842413153245942 0.2040749161535287 0  0.4693047108503577 0.2040749161535231 0  0.3871533862424271 0.1959250838464788 0  0.372246743208829 0.1959123236376545 0  0.5141145242731028 0.2040749161535395 0  0.4543681063761134 0.2040749161535186 0  0.4019979587101454 0.1959834479682427 0  0.4394608940728603 0.2040870543693135 0  0.5439623148931173 0.2040856076781014 0  0.5290511287473298 0.2040749161535501 0  0.4991779197988497 0.2040749161535382 0  0.3347912413592433 0.1959225448935183 0  0.3199680582793816 0.1959123018030061 0  0.2825051229162361 0.1959834479681729 0  0.3590471196690275 0.2036304442587945 0  0.5571594006495384 0.1963685282145804 0  0.3067669986803285 0.203627750582736 0  0.4262598344738712 0.2036568242185335 0  0.5814408164431408 0.2041285596160068 0  0.5688286748170428 0.1961819304477386 0  0.4145905603063645 0.2038180695522843 0  0.3473758401724931 0.2038180695522752 0  0.2950977245128307 0.2038180695522663 0  0.5688286748170693 0.203818069552238 0  0.2950977245127906 0.1961819304477774 0  0.3473758401723931 0.1961819304478349 0  0.4145905603061963 0.1961819304479011 0  0.2601812407614425 0.2056861609747042
[...]
<PointData  Vectors="f_46-0"> 
<DataArray  type="Float64"  Name="f_46-0"  NumberOfComponents="3" format="ascii">0.0000000000000000e+00 0.0000000000000000e+00 0.0000000000000000e+00  0.0000000000000000e+00 0.0000000000000000e+00 0.0000000000000000e+00  0.0000000000000000e+00 0.0000000000000000e+00 0.0000000000000000e+00  0.0000000000000000e+00 0.0000000000000000e+00 0.0000000000000000e+00  -1.5830479736661729e-04 -1.0256868907670529e-04 0.0000000000000000e+00  -1.4610751692799583e-04 -1.2533385631509453e-04 0.0000000000000000e+00  0.0000000000000000e+00 0.0000000000000000e+00 0.0000000000000000e+00  0.0000000000000000e+00 0.0000000000000000e+00 0.0000000000000000e+00  0.0000000000000000e+00 0.0000000000000000e+00 0.0000000000000000e+00  0.0000000000000000e+00 0.0000000000000000e+00 0.0000000000000000e+00  -1.5316733731578886e-04 -1.1394964112268813e-04 0.0000000000000000e+00  1.4436495374357506e-02 0.0000000000000000e+00 0.0000000000000000e+00  2.6651991460354085e-02 0.0000000000000000e+00 0.0000000000000000e+00  3.6646488257986873e-02 0.0000000000000000e+00 0.0000000000000000e+00  4.4419985767267439e-02 0.0000000000000000e+00 0.0000000000000000e+00  4.9972483988194781e-02 0.0000000000000000e+00 0.0000000000000000e+00  5.3303982920768544e-02 0.0000000000000000e+00 0.0000000000000000e+00  5.4414482564985427e-02 0.0000000000000000e+00 0.0000000000000000e+00  5.3303982920835900e-02 0.0000000000000000e+00 0.0000000000000000e+00  4.9972483988310473e-02 0.0000000000000000e+00 0.0000000000000000e+00  4.4419985767410720e-02 0.0000000000000000e+00 0.0000000000000000e+00  3.6646488258122986e-02 0.0000000000000000e+00 0.0000000000000000e+00  2.6651991460470235e-02 0.0000000000000000e+00 0.0000000000000000e+00  1.4436495374422950e-02 0.0000000000000000e+00 0.0000000000000000e+00  0.0000000000000000e+00 0.0000000000000000e+00 0.0000000000000000e+00  0.0000000000000000e+00 0.0000000000000000e+00 0.0000000000000000e+00  0.0000000000000000e+00 0.0000000000000000e+00 0.0000000000000000e+00  0.0000000000000000e+00 0.0000000000000000e+00 0.0000000000000000e+00  0.0000000000000000e+00 0.0000000000000000e+00 0.0000000000000000e+00  0.0000000000000000e+00 0.0000000000000000e+00 0.0000000000000000e+00  0.0000000000000000e+00 0.0000000000000000e+00 0.0000000000000000e+00  0.0000000000000000e+00 0.0000000000000000e+00 0.0000000000000000e+00  0.0000000000000000e+00 0.0000000000000000e+00 0.0000000000000000e+00  0.0000000000000000e+00 0.0000000000000000e+00 0.0000000000000000e+00  0.0000000000000000e+00 0.0000000000000000e+00 0.0000000000000000e+00  0.0000000000000000e+00 0.0000000000000000e+00 0.0000000000000000e+00  0.0000000000000000e+00 0.0000000000000000e+00 0.0000000000000000e+00  0.0000000000000000e+00 0.0000000000000000e+00 0.0000000000000000e+00  0.0000000000000000e+00 0.0000000000000000e+00 0.0000000000000000e+00  0.0000000000000000e+00 0.0000000000000000e+00 0.0000000000000000e+00  0.0000000000000000e+00 0.0000000000000000e+00 0.0000000000000000e+00  0.0000000000000000e+00 0.0000000000000000e+00 0.0000000000000000e+00  0.0000000000000000e+00 0.0000000000000000e+00 0.0000000000000000e+00  0.0000000000000000e+00 0.0000000000000000e+00 0.0000000000000000e+00  0.0000000000000000e+00 0.0000000000000000e+00 0.0000000000000000e+00  0.0000000000000000e+00 0.0000000000000000e+00 0.0000000000000000e+00  0.0000000000000000e+00 0.0000000000000000e+00 0.0000000000000000e+00  0.0000000000000000e+00 0.0000000000000000e+00 0.0000000000000000e+00  0.0000000000000000e+00 0.0000000000000000e+00 0.0000000000000000e+00  0.0000000000000000e+00 0.0000000000000000e+00 0.0000000000000000e+00  0.0000000000000000e+00 0.0000000000000000e+00 0.0000000000000000e+00  0.0000000000000000e+00 0.0000000000000000e+00 0.0000000000000000e+00  0.0000000000000000e+00 0.0000000000000000e+00 0.0000000000000000e+00  0.0000000000000000e+00 0.0000000000000000e+00 0.0000000000000000e+00  0.0000000000000000e+00 0.0000000000000000e+00 0.0000000000000000e+00  0.0000000000000000e+00 0.0000000000000000e+00 0.0000000000000000e+00  0.0000000000000000e+00 0.0000000000000000e+00 0.0000000000000000e+00  0.0000000000000000e+00 0.0000000000000000e+00 0.0000000000000000e+00  0.0000000000000000e+00 0.0000000000000000e+00 0.0000000000000000e+00  0.0000000000000000e+00 0.0000000000000000e+00 0.0000000000000000e+00  0.0000000000000000e+00 0.0000000000000000e+00 0.0000000000000000e+00  0.0000000000000000e+00 0.0000000000000000e+00 0.0000000000000000e+00  5.3134012118139541e-02 7.2792743517699340e-03 0.0000000000000000e+00  3.8108473894106334e-02 -9.3914261376476852e-04 0.0000000000000000e+00  5.2987986593646764e-02 -5.7603597430325587e-03 0.0000000000000000e+00  0.0000000000000000e+00 0.0000000000000000e+00 0.0000000000000000e+00  0.0000000000000000e+00 0.0000000000000000e+00 0.0000000000000000e+00  0.0000000000000000e+00 0.0000000000000000e+00 0.0000000000000000e+00  0.0000000000000000e+00 0.0000000000000000e+00 0.0000000000000000e+00  0.0000000000000000e+00 0.0000000000000000e+00 0.0000000000000000e+00  0.0000000000000000e+00 0.0000000000000000e+00 0.0000000000000000e+00  0.0000000000000000e+00 0.0000000000000000e+00 0.0000000000000000e+00  0.0000000000000000e+00 0.0000000000000000e+00 0.0000000000000000e+00  0.0000000000000000e+00 0.0000000000000000e+00 0.0000000000000000e+00  0.0000000000000000e+00 0.0000000000000000e+00 0.0000000000000000e+00  0.0000000000000000e+00 0.0000000000000000e+00 0.0000000000000000e+00  0.0000000000000000e+00 0.0000000000000000e+00 0.0000000000000000e+00  0.0000000000000000e+00 0.0000000000000000e+00 0.0000000000000000e+00  0.0000000000000000e+00 0.0000000000000000e+00 0.0000000000000000e+00  0.0000000000000000e+00 0.0000000000000000e+00 0.0000000000000000e+00  0.0000000000000000e+00 0.0000000000000000e+00 0.0000000000000000e+00  0.0000000000000000e+00 0.0000000000000000e+00 0.0000000000000000e+00  0.0000000000000000e+00 0.0000000000000000e+00 0.0000000000000000e+00  0.0000000000000000e+00 0.0000000000000000e+00 0.0000000000000000e+00  0.0000000000000000e+00 0.0000000000000000e+00 0.0000000000000000e+00  0.0000000000000000e+00 0.0000000000000000e+00 0.0000000000000000e+00  0.0000000000000000e+00 0.0000000000000000e+00 0.0000000000000000e+00  0.0000000000000000e+00 0.0000000000000000e+00 0.0000000000000000e+00  0.0000000000000000e+00 0.0000000000000000e+00 0.0000000000000000e+00  0.0000000000000000e+00 0.0000000000000000e+00 0.0000000000000000e+00  0.0000000000000000e+00 0.0000000000000000e+00 0.0000000000000000e+00  0.0000000000000000e+00 0.0000000000000000e+00 0.0000000000000000e+00  0.0000000000000000e+00 0.0000000000000000e+00 0.0000000000000000e+00  0.0000000000000000e+00 0.0000000000000000e+00 0.0000000000000000e+00  0.0000000000000000e+00 0.0000000000000000e+00 0.0000000000000000e+00  0.0000000000000000e+00 0.0000000000000000e+00 0.0000000000000000e+00  0.0000000000000000e+00 0.0000000000000000e+00 0.0000000000000000e+00  0.0000000000000000e+00 0.0000000000000000e+00 0.0000000000000000e+00  0.0000000000000000e+00 0.0000000000000000e+00 0.0000000000000000e+00  0.0000000000000000e+00 0.0000000000000000e+00 0.0000000000000000e+00  0.0000000000000000e+00 0.0000000000000000e+00 0.0000000000000000e+00  0.0000000000000000e+00 0.0000000000000000e+00 0.0000000000000000e+00  0.0000000000000000e+00 0.0000000000000000e+00 0.0000000000000000e+00  0.0000000000000000e+00 0.0000000000000000e+00 0.0000000000000000e+00  0.0000000000000000e+00 0.0000000000000000e+00 0.0000000000000000e+00  2.7271680506488585e-13 0.0000000000000000e+00 0.0000000000000000e+00  0.0000000000000000e+00 0.0000000000000000e+00 0.0000000000000000e+00  0.0000000000000000e+00 0.0000000000000000e+00 0.0000000000000000e+00  0.0000000000000000e+00 0.0000000000000000e+00 0.0000000000000000e+00  0.0000000000000000e+00 0.0000000000000000e+00 0.0000000000000000e+00  0.0000000000000000e+00 0.0000000000000000e+00 0.0000000000000000e+00  0.0000000000000000e+00 0.0000000000000000e+00 0.0000000000000000e+00  0.0000000000000000e+00 0.0000000000000000e+00 0.0000000000000000e+00  0.0000000000000000e+00 0.0000000000000000e+00 0.0000000000000000e+00  0.0000000000000000e+00 0.0000000000000000e+00 0.0000000000000000e+00  0.0000000000000000e+00 0.0000000000000000e+00 0.0000000000000000e+00  0.0000000000000000e+00 0.0000000000000000e+00 0.0000000000000000e+00  0.0000000000000000e+00 0.0000000000000000e+00 0.0000000000000000e+00  0.0000000000000000e+00 0.0000000000000000e+00 0.0000000000000000e+00  0.0000000000000000e+00 0.0000000000000000e+00 0.0000000000000000e+00  0.0000000000000000e+00 0.0000000000000000e+00 0.0000000000000000e+00  0.0000000000000000e+00 0.0000000000000000e+00 0.0000000000000000e+00  0.0000000000000000e+00 0.0000000000000000e+00 0.0000000000000000e+00  0.0000000000000000e+00 0.0000000000000000e+00 0.0000000000000000e+00  0.0000000000000000e+00 0.0000000000000000e+00 0.0000000000000000e+00  0.0000000000000000e+00 0.0000000000000000e+00 0.0000000000000000e+00  0.0000000000000000e+00 0.0000000000000000e+00 0.0000000000000000e+00  0.0000000000000000e+00 0.0000000000000000e+00 0.0000000000000000e+00  0.0000000000000000e+00 0.0000000000000000e+00 0.0000000000000000e+00  0.0000000000000000e+00 0.0000000000000000e+00 0.0000000000000000e+00  0.0000000000000000e+00 0.0000000000000000e+00 0.0000000000000000e+00  0.0000000000000000e+00 0.0000000000000000e+00 0.0000000000000000e+00  0.0000000000000000e+00 0.0000000000000000e+00 0.0000000000000000e+00  0.0000000000000000e+00 0.0000000000000000e+00 0.0000000000000000e+00  0.0000000000000000e+00 0.0000000000000000e+00 0.0000000000000000e+00  0.0000000000000000e+00 0.0000000000000000e+00 0.0000000000000000e+00  0.0000000000000000e+00 0.0000000000000000e+00 0.0000000000000000e+00  0.0000000000000000e+00 0.0000000000000000e+00 0.0000000000000000e+00  0.0000000000000000e+00 0.0000000000000000e+00 0.0000000000000000e+00  0.0000000000000000e+00 0.0000000000000000e+00 0.0000000000000000e+00  0.0000000000000000e+00 0.0000000000000000e+00 0.0000000000000000e+00  0.0000000000000000e+00 0.0000000000000000e+00 0.0000000000000000e+00  0.0000000000000000e+00 0.0000000000000000e+00 0.0000000000000000e+00  -2.0561597076231960e-06 -1.8584754531021061e-05 0.0000000000000000e+00  -3.6201201266846654e-06 -1.9920026394122994e-05 0.0000000000000000e+00  -4.2548618855265142e-06 -2.0217004232099124e-05 0.0000000000000000e+00  -4.4437689296004430e-06 -1.9931787788338215e-05 0.0000000000000000e+00  -4.5149880994853669e-06 -1.9694265040699187e-05 0.0000000000000000e+00  -4.7195021945964277e-06 -1.9688782425413544e-05 0.0000000000000000e+00  -5.0302132712884800e-06 -1.9736398157308676e-05 0.0000000000000000e+00  -5.5047494480086709e-06 -1.9889991184012188e-05 0.0000000000000000e+00  -6.0487021527293966e-06 -2.0152731610839151e-05 0.0000000000000000e+00  -6.7833957387161271e-06 -2.0486461174170734e-05 0.0000000000000000e+00  -7.6102843208346651e-06 -2.1015044855119054e-05 0.0000000000000000e+00  -8.6277126449956348e-06 -2.1598891703271821e-05 0.0000000000000000e+00  -9.7690803153015226e-06 -2.2358118182846727e-05 0.0000000000000000e+00  -1.1063143417652790e-05 -2.3248113136060777e-05 0.0000000000000000e+00  -1.2544805158160998e-05 -2.4279640548736136e-05 0.0000000000000000e+00  -1.4101123261393515e-05 -2.5485947170895576e-05 0.0000000000000000e+00  -1.5882505897083121e-05 -2.6767134528154116e-05 0.0000000000000000e+00  -1.7771801074881769e-05 -2.8300664823290115e-05 0.0000000000000000e+00  -1.9872515673434030e-05 -2.9882247266752635e-05 0.0000000000000000e+00  -2.2079285635972838e-05 -3.1714066755273294e-05 0.0000000000000000e+00  -2.4490802699325934e-05 -3.3603074984096599e-05 0.0000000000000000e+00  -2.7055877436339302e-05 -3.5703795305024155e-05 0.0000000000000000e+00  -2.9773652746456849e-05 -3.7934280084604509e-05 0.0000000000000000e+00  -3.2690099803192085e-05 -4.0305874328259371e-05 0.0000000000000000e+00  -3.5694915538411482e-05 -4.2849737866183080e-05 0.0000000000000000e+00  -3.8921745788858982e-05 -4.5462634475674134e-05 0.0000000000000000e+00  -4.2310499174214435e-05 -4.8329260898342445e-05 0.0000000000000000e+00  -4.5873891418370278e-05 -5.1214625639451800e-05 0.0000000000000000e+00  -4.9602468558754043e-05 -5.4334097709455813e-05 0.0000000000000000e+00  -5.3505500170009824e-05 -5.7484847260577046e-05 0.0000000000000000e+00  -5.7571028467150778e-05 -6.0848726844104995e-05 0.0000000000000000e+00  -6.1822616620780605e-05 -6.4232728367569320e-05 0.0000000000000000e+00  -6.6224889251490025e-05 -6.7827263556468411e-05 0.0000000000000000e+00  -7.0821897268146981e-05 -7.1405525046584956e-05 0.0000000000000000e+00  -7.5595975770207795e-05 -7.5200337884180662e-05 0.0000000000000000e+00  -8.0545058218474646e-05 -7.8975899468720231e-05 0.0000000000000000e+00  -8.5660945321801974e-05 -8.2933572428115014e-05 0.0000000000000000e+00  -9.0957996104371652e-05 -8.6861144181239194e-05 0.0000000000000000e+00  -9.6433563233630040e-05 -9.0951272274880529e-05 0.0000000000000000e+00  -1.0210012851289507e-04 -9.5002086717527049e-05 0.0000000000000000e+00  -1.0796016017528680e-04 -9.9164511019565640e-05 0.0000000000000000e+00  -1.1396853651710038e-04 -1.0332342411335663e-04 0.0000000000000000e+00  -1.2019753946370429e-04 -1.0753752397764365e-04 0.0000000000000000e+00  -1.2652928158298458e-04 -1.1176466591461274e-04 0.0000000000000000e+00  -1.3306714785570216e-04 -1.1596269778167436e-04 0.0000000000000000e+00  -1.3966067566995396e-04 -1.2031624678846673e-04 0.0000000000000000e+00  -1.4998627861281713e-04 -1.1963521247705691e-04 0.0000000000000000e+00  -1.5603369463291914e-04 -1.0827424600751017e-04 0.0000000000000000e+00  -1.5179776177652864e-04 -9.8512765986897346e-05 0.0000000000000000e+00  -1.4512556760693925e-04 -9.3796291537719063e-05 0.0000000000000000e+00  -1.3852122344593790e-04 -8.9009216597969759e-05 0.0000000000000000e+00  -1.3209730413414695e-04 -8.4300690394765340e-05 0.0000000000000000e+00  -1.2578226962551691e-04 -7.9618613702655408e-05 0.0000000000000000e+00  -1.1968051741559045e-04 -7.4978724761031219e-05 0.0000000000000000e+00  -1.1369212602216373e-04 -7.0397374683391772e-05 0.0000000000000000e+00  -1.0790151638874085e-04 -6.5820154240056196e-05 0.0000000000000000e+00  -1.0224735797955339e-04 -6.1379080551827506e-05 0.0000000000000000e+00  -9.6774605974849325e-05 -5.6911212200346180e-05 0.0000000000000000e+00  -9.1435296594593267e-05 -5.2604824469455442e-05 0.0000000000000000e+00  -8.6283306559478635e-05 -4.8291600356359816e-05 0.0000000000000000e+00  -8.1257926810183326e-05 -4.4157804382705502e-05 0.0000000000000000e+00  -7.6419115420600203e-05 -4.0033133967378445e-05 0.0000000000000000e+00  -7.1699241436647400e-05 -3.6100106957206523e-05 0.0000000000000000e+00  -6.7174124750376618e-05 -3.2186879967653899e-05 0.0000000000000000e+00  -6.2767953430750139e-05 -2.8475530129444806e-05 0.0000000000000000e+00  -5.8563039365410449e-05 -2.4796540465410196e-05 0.0000000000000000e+00  -5.4472706573667213e-05 -2.1337546987327979e-05 0.0000000000000000e+00  -5.0582484471644041e-05 -1.7922647488229959e-05 0.0000000000000000e+00  -4.6801755941984853e-05 -1.4732167922383913e-05 0.0000000000000000e+00  -4.3226656024736991e-05 -1.1596883935994042e-05 0.0000000000000000e+00  -3.9786712365662418e-05 -8.6572174710543400e-06 0.0000000000000000e+00  -3.6507865444200260e-05 -5.8345626558762613e-06 0.0000000000000000e+00  -3.3431065802856449e-05 -3.1838442308249437e-06 0.0000000000000000e+00  -3.0423702243918116e-05 -6.7771462497004298e-07 0.0000000000000000e+00  -2.7632923640488660e-05 1.7195058698851683e-06 0.0000000000000000e+00  -2.4980198429704940e-05 3.8702607490713251e-06 0.0000000000000000e+00  -2.2509172757847986e-05 5.9784987229460145e-06 0.0000000000000000e+00  -2.0188778837690318e-05 7.8230623761015690e-06 0.0000000000000000e+00  -1.8044280330828960e-05 9.6262588001125581e-06 0.0000000000000000e+00  -1.6056092565943070e-05 1.1186096094701775e-05 0.0000000000000000e+00  -1.4215937566605807e-05 1.2663296025474604e-05 0.0000000000000000e+00  -1.2573604431084608e-05 1.3950156383103092e-05 0.0000000000000000e+00  -1.1013007160517679e-05 1.5122538183242875e-05 0.0000000000000000e+00  -9.6643889501626838e-06 1.6171931584130629e-05 0.0000000000000000e+00  -8.4665873701058089e-06 1.7007955479529591e-05 0.0000000000000000e+00  -7.4415962579845279e-06 1.7801872970192181e-05 0.0000000000000000e+00  -6.5773767175544856e-06 1.8415164828855286e-05 0.0000000000000000e+00  -5.8536581985753079e-06 1.8952580091072224e-05 0.0000000000000000e+00  -5.3213250928995288e-06 1.9370585147981057e-05 0.0000000000000000e+00  -4.8744642810773045e-06 1.9694043302632471e-05 0.0000000000000000e+00  -4.6394154922266854e-06 2.0101021279154623e-05 0.0000000000000000e+00  -4.2874731543608444e-06 2.0383449412485736e-05 0.0000000000000000e+00  -3.6044212321929682e-06 2.0027660912445672e-05 0.0000000000000000e+00  -2.0902545627530392e-06 1.8533074886223887e-05 0.0000000000000000e+00  -6.5172880728146807e-06 -7.5909020772800331e-08 0.0000000000000000e+00  -1.4266556626567399e-04 -1.0725084425145070e-04 0.0000000000000000e+00  -1.2982355134341750e-04 -9.8745040093503906e-05 0.0000000000000000e+00  -1.1063601285838173e-04 -8.4830137766852708e-05 0.0000000000000000e+00  -4.5523738789905289e-06 1.1293544759046831e-07 0.0000000000000000e+00  -9.9469273216970050e-05 -7.6204220035598063e-05 0.0000000000000000e+00  -4.8550670045013186e-06 2.5600018314787352e-07 0.0000000000000000e+00  -8.8684577377296222e-05 -6.7796403822187386e-05 0.0000000000000000e+00  -6.4807850599864910e-06 -6.3194771746066482e-07 0.0000000000000000e+00  -8.2079346175256393e-06 -1.9831288860405188e-06 0.0000000000000000e+00  -7.8570553625784283e-05 -5.9696062502875934e-05 0.0000000000000000e+00  -1.5338427483678448e-05 -6.9445035479516818e-06 0.0000000000000000e+00  -6.0335565112536062e-05 -4.4657611268586586e-05 0.0000000000000000e+00  -1.0451493695980920e-05 -3.2905020320173081e-06 0.0000000000000000e+00  -1.9167412156243164e-05 -1.0201475068145781e-05 0.0000000000000000e+00  -5.2207537271204987e-05 -3.7823529667796575e-05 0.0000000000000000e+00  -6.9121792652009951e-05 -5.1963751970614192e-05 0.0000000000000000e+00  -2.3715050106352348e-05 -1.3881029978100424e-05 0.0000000000000000e+00  -4.4736399520267170e-05 -3.1507754386038651e-05 0.0000000000000000e+00  -2.8711310674793529e-05 -1.7769007350197361e-05 0.0000000000000000e+00  -3.7989126197026704e-05 -2.6052271238193060e-05 0.0000000000000000e+00  -3.3024921706183349e-05 -2.1602683833550825e-05 0.0000000000000000e+00  -1.2626496483775599e-05 -5.1563690093121884e-06 0.0000000000000000e+00  -1.2056427992561346e-04 -9.1820256221099769e-05 0.0000000000000000e+00  -5.5123952542896699e-06 -3.1857478935650508e-07 0.0000000000000000e+00  -1.3820405503991306e-04 -9.9048840753898838e-05 0.0000000000000000e+00  -5.0302729076913813e-06 7.6766407831725209e-06 0.0000000000000000e+00  -9.5624490991913364e-05 -6.8227993106950282e-05 0.0000000000000000e+00  -1.0679105303501856e-04 -7.6889087403301273e-05 0.0000000000000000e+00  -4.5968142907502583e-06 -6.9519511617735663e-06 0.0000000000000000e+00  -7.0324664643096146e-06 -6.8605154174778089e-06 0.0000000000000000e+00  -6.6066198796992093e-05 -4.4135433011495350e-05 0.0000000000000000e+00  -8.5116596291557841e-05 -5.9837572647947903e-05 0.0000000000000000e+00  -1.6529286423498587e-05 -1.3665901618958168e-05 0.0000000000000000e+00  -5.7517592796941402e-05 -3.6932050179044227e-05 0.0000000000000000e+00  -8.9857463799852060e-06 -8.1149404233210736e-06 0.0000000000000000e+00  -2.0652312862318766e-05 -1.6927646545531484e-05 0.0000000000000000e+00  -4.9620571767836659e-05 -3.0226873907708485e-05 0.0000000000000000e+00  -7.5266319739751217e-05 -5.1786360301301762e-05 0.0000000000000000e+00  -2.5186577800415419e-05 -2.1834122026857404e-05 0.0000000000000000e+00  -4.2368272814048009e-05 -2.4059219573683174e-05 0.0000000000000000e+00  -5.3239441473636576e-06 -4.4381608147835576e-06 0.0000000000000000e+00  -5.2105265800720238e-06 4.0349701837098410e-06 0.0000000000000000e+00  -1.4672228431244553e-04 -1.133