<?xml version="1.0"?>
<VTKFile type="UnstructuredGrid"  version="0.1"  >
<UnstructuredGrid>
<Piece  NumberOfPoints="1419" NumberOfCells="2698">
<Points>
<DataArray  type="Float64"  NumberOfComponents="3"  format="ascii">0 0 0  0 0.41 0  2.5 0 0  2.5 0.41 0  0.6 0.19 0  0.6 0.21 0  0.25 0.2 0  0.15 0.2 0  0.2489897948556636 0.21 0  0.2489897948556636 0.19 0  0.6 0.2 0  0 0.3807142857143437 0  0 0.3514285714286952 0  0 0.3221428571430699 0  0 0.29285714285744 0  0 0.2635714285718054 0  0 0.2342857142861561 0  0 0.2050000000005308 0  0 0.175714285714732 0  0 0.1464285714289574 0  0 0.1171428571431897 0  0 0.08785714285737878 0  0 0.05857142857161107 0  0 0.02928571428580012 0  0.03015443760436003 0 0  0.06140001986583606 0 0  0.09377624077125973 0 0  0.1273239957535082 0 0  0.1620856860351972 0 0  0.1981052433264291 0 0  0.235428184091502 0 0  0.2741016576309132 0 0  0.3141745521465447 0 0  0.3556974926295285 0 0  0.3987229542472677 0 0  0.4433053055141081 0 0  0.4895008759286886 0 0  0.5373680609405097 0 0  0.5869673343216626 0 0  0.6383613676634521 0 0  0.6916151138468254 0 0  0.7467958595648856 0 0  0.8039733463919316 0 0  0.8632198139502143 0 0  0.9246101326867038 0 0  0.9882218810934433 0 0  1.054135445558498 0 0  1.122434100542598 0 0  1.193204177141305 0 0  1.266535089879536 0 0  1.342519516046404 0 0  1.421253448503939 0 0  1.502836389106271 0 0  1.587371439758838 0 0  1.674965418777374 0 0  1.765729001825544 0 0  1.859776908880082 0 0  1.957227977487062 0 0  2.058205329869943 0 0  2.162836591189951 0 0  2.271253957290865 0 0  2.383594446803425 0 0  2.5 0.1024999999997612 0  2.5 0.2049999999994743 0  2.5 0.3074999999997183 0  2.383594446803656 0.41 0  2.271253957291315 0.41 0  2.162836591190598 0.41 0  2.058205329870775 0.41 0  1.957227977488067 0.41 0  1.859776908881246 0.41 0  1.765729001826854 0.41 0  1.674965418778818 0.41 0  1.58737143976041 0.41 0  1.502836389107956 0.41 0  1.421253448505726 0.41 0  1.342519516048286 0.41 0  1.266535089881505 0.41 0  1.193204177143353 0.41 0  1.122434100544716 0.41 0  1.05413544556068 0.41 0  0.9882218810956305 0.41 0  0.9246101326886647 0.41 0  0.8632198139519631 0.41 0  0.8039733463934788 0.41 0  0.7467958595662458 0.41 0  0.6916151138480078 0.41 0  0.6383613676644679 0.41 0  0.5869673343225223 0.41 0  0.5373680609412221 0.41 0  0.4895008759292634 0.41 0  0.4433053055145528 0.41 0  0.3987229542475914 0.41 0  0.3556974926297398 0.41 0  0.3141745521466497 0.41 0  0.2741016576310038 0.41 0  0.2354281840915826 0.41 0  0.1981052433265003 0.41 0  0.1620856860352591 0.41 0  0.1273239957535623 0.41 0  0.09377624077128965 0.41 0  0.06140001986584975 0.41 0  0.03015443760436654 0.41 0  0.2497468076502589 0.2050254481002335 0  0.2497468076502614 0.1949745518997913 0  0.2469965252529372 0.1829317073451959 0  0.2439893735792749 0.1762316384219906 0  0.2400332147834255 0.1700443375285386 0  0.2352133972704371 0.1645032867342007 0  0.2296339016332438 0.1597280261969788 0  0.2234150974217223 0.1558215752574715 0  0.2166911463437691 0.1528682099456123 0  0.2096071079204251 0.1509316448471593 0  0.2023158100364996 0.1500536585536553 0  0.194974551899914 0.1502531923497262 0  0.1877417105387872 0.1515259415822739 0  0.1807733240461124 0.153844448527136 0  0.1742197252835808 0.15715869474974 0  0.1682222986673531 0.1613971801805478 0  0.162910430003803 0.1664684656256651 0  0.1583987151779087 0.1722631454351573 0  0.1547844879126891 0.178656207771761 0  0.1521457199348551 0.1855097315605723 0  0.1505393388476355 0.1926758619366523 0  0.1505393388476328 0.2073241380633295 0  0.1521457199348437 0.2144902684393899 0  0.1547844879126531 0.221343792228163 0  0.1583987151778488 0.2277368545647528 0  0.1629104300036858 0.2335315343742052 0  0.1682222986671726 0.2386028198193036 0  0.1742197252833576 0.2428413052501257 0  0.1807733240458683 0.2461555514727623 0  0.1877417105384929 0.2484740584176516 0  0.1949745518995776 0.2497468076502398 0  0.202315810036185 0.2499463414463592 0  0.2096071079201568 0.2490683551528932 0  0.2166911463435495 0.2471317900544655 0  0.2234150974215506 0.2441784247426195 0  0.2296339016331197 0.2402719738031125 0  0.2352133972703547 0.2354967132658811 0  0.2400332147833751 0.2299556624715287 0  0.2439893735792577 0.2237683615780412 0  0.246996525252926 0.2170682926548348 0  0.25645809709277 0.21 0  0.2639263993298655 0.21 0  0.271394701566961 0.21 0  0.2788630038040554 0.21 0  0.2863313060411479 0.21 0  0.2937996082782405 0.21 0  0.301267910515333 0.21 0  0.3087362127524279 0.21 0  0.3162045149895234 0.21 0  0.3236728172265972 0.21 0  0.3311411194636928 0.21 0  0.3386094217007701 0.21 0  0.3460777239378666 0.21 0  0.3535460261749672 0.21 0  0.3610143284120516 0.21 0  0.3684826306491596 0.21 0  0.3759509328862226 0.21 0  0.383419235123329 0.21 0  0.3908875373604028 0.21 0  0.3983558395975142 0.21 0  0.4058241418345938 0.21 0  0.4132924440716992 0.21 0  0.4207607463087888 0.21 0  0.4282290485459029 0.21 0  0.4356973507830418 0.21 0  0.4431656530201649 0.21 0  0.4506339552573136 0.21 0  0.4581022574944306 0.21 0  0.4655705597315852 0.21 0  0.4730388619686996 0.21 0  0.480507164205851 0.21 0  0.4879754664429498 0.21 0  0.4954437686800938 0.21 0  0.502912070917267 0.21 0  0.5103803731544119 0.21 0  0.5178486753915261 0.21 0  0.5253169776286404 0.21 0  0.5327852798657868 0.21 0  0.5402535821029386 0.21 0  0.54772188434007 0.21 0  0.5551901865771842 0.21 0  0.5626584888143201 0.21 0  0.5701267910514778 0.21 0  0.5775950932886138 0.21 0  0.5850633955257281 0.21 0  0.5925316977628483 0.21 0  0.6 0.2050000000000054 0  0.6 0.1950000000000217 0  0.5925316977628897 0.19 0  0.5850633955257988 0.19 0  0.5775950932887378 0.19 0  0.5701267910515998 0.19 0  0.5626584888145268 0.19 0  0.5551901865773963 0.19 0  0.547721884340339 0.19 0  0.5402535821032429 0.19 0  0.5327852798661811 0.19 0  0.5253169776290537 0.19 0  0.5178486753919799 0.19 0  0.5103803731549078 0.19 0  0.502912070917822 0.19 0  0.4954437686807294 0.19 0  0.4879754664436223 0.19 0  0.4805071642065402 0.19 0  0.4730388619694271 0.19 0  0.4655705597323621 0.19 0  0.4581022574952563 0.19 0  0.4506339552581777 0.19 0  0.4431656530210671 0.19 0  0.4356973507839815 0.19 0  0.4282290485468779 0.19 0  0.4207607463097617 0.19 0  0.4132924440726327 0.19 0  0.4058241418354857 0.19 0  0.3983558395983636 0.19 0  0.3908875373612097 0.19 0  0.3834192351240934 0.19 0  0.3759509328869369 0.19 0  0.3684826306498175 0.19 0  0.361014328412667 0.19 0  0.3535460261755617 0.19 0  0.3460777239384295 0.19 0  0.3386094217012945 0.19 0  0.3311411194641595 0.19 0  0.3236728172270245 0.19 0  0.3162045149898895 0.19 0  0.3087362127527544 0.19 0  0.3012679105156187 0.19 0  0.2937996082784807 0.19 0  0.2863313060413428 0.19 0  0.2788630038042048 0.19 0  0.2713947015670686 0.19 0  0.2639263993299336 0.19 0  0.2564580970927985 0.19 0  0.2607803159922026 0.2000727136295815 0  0.5887803774232762 0.2001272386983733 0  0.5745072403740523 0.2002044435018727 0  0.5511891430099709 0.2001122610077113 0  0.2751288526855082 0.20000000000002 0  0.5365194309847112 0.1999999999999436 0  0.2894621222999649 0.1998691686390484 0  0.5215828265105155 0.1999999999999228 0  0.3127789816668748 0.1998657885438805 0  0.3274069683451451 0.2000000000000796 0  0.5066462220363641 0.199999999999908 0  0.3650630746574081 0.199866017807523 0  0.476773013087985 0.1999999999998713 0  0.3417402379596385 0.1998691686391011 0  0.3796850840047755 0.200000000000134 0  0.4618364086138087 0.1999999999998546 0  0.4917096175621762 0.1999999999998808 0  0.3946216884789568 0.2000000000001512 0  0.446899804139621 0.1999999999998389 0  0.4089549580935208 0.1998691686391595 0  0.4322718174608562 0.200127451265745 0  0.4201487168029707 0.1999966199048527 0  0.3528922713220932 0.2000185703532356 0  0.5633122436674589 0.1999814296467508 0  0.3006558810093873 0.1999966199048318 0  0.5815926498168407 0.1966545283159175 0  0.2677053789419034 0.1964246479135325 0  0.5290511287476175 0.1970915826863981 0  0.5439877332217911 0.197091582686394 0  0.2825131256993216 0.2035478995978015 0  0.3199386661080599 0.202908417313604 0  0.4842413153250809 0.1970915826863873 0  0.5141145242734466 0.1970915826863843 0  0.3722167817676917 0.2029084173136195 0  0.4693047108508938 0.1970915826863783 0  0.3348752705822316 0.202908417313609 0  0.3871533862418661 0.2029084173136212 0  0.4543681063767183 0.1970915826863795 0  0.4991779197992749 0.1970915826863902 0  0.4020059614928624 0.203547899597858 0  0.4394315019025246 0.1970915826863714 0  0.2550657455369551 0.2034088125358657 0  0.2548908499171161 0.1966940311614271 0  0.5946539510196798 0.2024302972968126 0  0.267698176732111 0.2039977513680092 0  0.4261685417851465 0.196409292431739 0  0.3590076176283495 0.196411355804271 0  0.5571672426447437 0.2036011176410121 0  0.3066757059912147 0.1964092924317024 0  0.594380730180568 0.1966558399668133 0  0.4842413153245942 0.2040749161535287 0  0.4693047108503577 0.2040749161535231 0  0.3871533862424271 0.1959250838464788 0  0.372246743208829 0.1959123236376545 0  0.5141145242731028 0.2040749161535395 0  0.4543681063761134 0.2040749161535186 0  0.4019979587101454 0.1959834479682427 0  0.4394608940728603 0.2040870543693135 0  0.5439623148931173 0.2040856076781014 0  0.5290511287473298 0.2040749161535501 0  0.4991779197988497 0.2040749161535382 0  0.3347912413592433 0.1959225448935183 0  0.3199680582793816 0.1959123018030061 0  0.2825051229162361 0.1959834479681729 0  0.3590471196690275 0.2036304442587945 0  0.5571594006495384 0.1963685282145804 0  0.3067669986803285 0.203627750582736 0  0.4262598344738712 0.2036568242185335 0  0.5814408164431408 0.2041285596160068 0  0.5688286748170428 0.1961819304477386 0  0.4145905603063645 0.2038180695522843 0  0.3473758401724931 0.2038180695522752 0  0.2950977245128307 0.2038180695522663 0  0.5688286748170693 0.203818069552238 0  0.2950977245127906 0.1961819304477774 0  0.3473758401723931 0.1961819304478349 0  0.4145905603061963 0.1961819304479011 0  0.2601812407614425 0.2056861609747042
[...]
<PointData  Vectors="f_46-0"> 
<DataArray  type="Float64"  Name="f_46-0"  NumberOfComponents="3" format="ascii">0.0000000000000000e+00 0.0000000000000000e+00 0.0000000000000000e+00  0.0000000000000000e+00 0.0000000000000000e+00 0.0000000000000000e+00  0.0000000000000000e+00 0.0000000000000000e+00 0.0000000000000000e+00  0.0000000000000000e+00 0.0000000000000000e+00 0.0000000000000000e+00  -4.2403406065308759e-05 -2.1124673086614273e-05 0.0000000000000000e+00  -3.9471880537533684e-05 -3.0212762690659880e-05 0.0000000000000000e+00  0.0000000000000000e+00 0.0000000000000000e+00 0.0000000000000000e+00  0.0000000000000000e+00 0.0000000000000000e+00 0.0000000000000000e+00  0.0000000000000000e+00 0.0000000000000000e+00 0.0000000000000000e+00  0.0000000000000000e+00 0.0000000000000000e+00 0.0000000000000000e+00  -4.1438866895981173e-05 -2.5670166475397930e-05 0.0000000000000000e+00  3.0292839102595876e-03 0.0000000000000000e+00 0.0000000000000000e+00  5.5925241420180707e-03 0.0000000000000000e+00 0.0000000000000000e+00  7.6897206952748478e-03 0.0000000000000000e+00 0.0000000000000000e+00  9.3208735700323498e-03 0.0000000000000000e+00 0.0000000000000000e+00  1.0485982766290361e-02 0.0000000000000000e+00 0.0000000000000000e+00  1.1185048284048812e-02 0.0000000000000000e+00 0.0000000000000000e+00  1.1418070123307006e-02 0.0000000000000000e+00 0.0000000000000000e+00  1.1185048284062945e-02 0.0000000000000000e+00 0.0000000000000000e+00  1.0485982766314636e-02 0.0000000000000000e+00 0.0000000000000000e+00  9.3208735700624143e-03 0.0000000000000000e+00 0.0000000000000000e+00  7.6897206953034100e-03 0.0000000000000000e+00 0.0000000000000000e+00  5.5925241420424427e-03 0.0000000000000000e+00 0.0000000000000000e+00  3.0292839102733205e-03 0.0000000000000000e+00 0.0000000000000000e+00  0.0000000000000000e+00 0.0000000000000000e+00 0.0000000000000000e+00  0.0000000000000000e+00 0.0000000000000000e+00 0.0000000000000000e+00  0.0000000000000000e+00 0.0000000000000000e+00 0.0000000000000000e+00  0.0000000000000000e+00 0.0000000000000000e+00 0.0000000000000000e+00  0.0000000000000000e+00 0.0000000000000000e+00 0.0000000000000000e+00  0.0000000000000000e+00 0.0000000000000000e+00 0.0000000000000000e+00  0.0000000000000000e+00 0.0000000000000000e+00 0.0000000000000000e+00  0.0000000000000000e+00 0.0000000000000000e+00 0.0000000000000000e+00  0.0000000000000000e+00 0.0000000000000000e+00 0.0000000000000000e+00  0.0000000000000000e+00 0.0000000000000000e+00 0.0000000000000000e+00  0.0000000000000000e+00 0.0000000000000000e+00 0.0000000000000000e+00  0.0000000000000000e+00 0.0000000000000000e+00 0.0000000000000000e+00  0.0000000000000000e+00 0.0000000000000000e+00 0.0000000000000000e+00  0.0000000000000000e+00 0.0000000000000000e+00 0.0000000000000000e+00  0.0000000000000000e+00 0.0000000000000000e+00 0.0000000000000000e+00  0.0000000000000000e+00 0.0000000000000000e+00 0.0000000000000000e+00  0.0000000000000000e+00 0.0000000000000000e+00 0.0000000000000000e+00  0.0000000000000000e+00 0.0000000000000000e+00 0.0000000000000000e+00  0.0000000000000000e+00 0.0000000000000000e+00 0.0000000000000000e+00  0.0000000000000000e+00 0.0000000000000000e+00 0.0000000000000000e+00  0.0000000000000000e+00 0.0000000000000000e+00 0.0000000000000000e+00  0.0000000000000000e+00 0.0000000000000000e+00 0.0000000000000000e+00  0.0000000000000000e+00 0.0000000000000000e+00 0.0000000000000000e+00  0.0000000000000000e+00 0.0000000000000000e+00 0.0000000000000000e+00  0.0000000000000000e+00 0.0000000000000000e+00 0.0000000000000000e+00  0.0000000000000000e+00 0.0000000000000000e+00 0.0000000000000000e+00  0.0000000000000000e+00 0.0000000000000000e+00 0.0000000000000000e+00  0.0000000000000000e+00 0.0000000000000000e+00 0.0000000000000000e+00  0.0000000000000000e+00 0.0000000000000000e+00 0.0000000000000000e+00  0.0000000000000000e+00 0.0000000000000000e+00 0.0000000000000000e+00  0.0000000000000000e+00 0.0000000000000000e+00 0.0000000000000000e+00  0.0000000000000000e+00 0.0000000000000000e+00 0.0000000000000000e+00  0.0000000000000000e+00 0.0000000000000000e+00 0.0000000000000000e+00  0.0000000000000000e+00 0.0000000000000000e+00 0.0000000000000000e+00  0.0000000000000000e+00 0.0000000000000000e+00 0.0000000000000000e+00  0.0000000000000000e+00 0.0000000000000000e+00 0.0000000000000000e+00  0.0000000000000000e+00 0.0000000000000000e+00 0.0000000000000000e+00  0.0000000000000000e+00 0.0000000000000000e+00 0.0000000000000000e+00  1.1084907289205125e-02 1.5312780429968249e-03 0.0000000000000000e+00  8.0576438505204472e-03 -7.8319693399420611e-05 0.0000000000000000e+00  1.1098754199331115e-02 -1.2808847202773960e-03 0.0000000000000000e+00  0.0000000000000000e+00 0.0000000000000000e+00 0.0000000000000000e+00  0.0000000000000000e+00 0.0000000000000000e+00 0.0000000000000000e+00  0.0000000000000000e+00 0.0000000000000000e+00 0.0000000000000000e+00  0.0000000000000000e+00 0.0000000000000000e+00 0.0000000000000000e+00  0.0000000000000000e+00 0.0000000000000000e+00 0.0000000000000000e+00  0.0000000000000000e+00 0.0000000000000000e+00 0.0000000000000000e+00  0.0000000000000000e+00 0.0000000000000000e+00 0.0000000000000000e+00  0.0000000000000000e+00 0.0000000000000000e+00 0.0000000000000000e+00  0.0000000000000000e+00 0.0000000000000000e+00 0.0000000000000000e+00  0.0000000000000000e+00 0.0000000000000000e+00 0.0000000000000000e+00  0.0000000000000000e+00 0.0000000000000000e+00 0.0000000000000000e+00  0.0000000000000000e+00 0.0000000000000000e+00 0.0000000000000000e+00  0.0000000000000000e+00 0.0000000000000000e+00 0.0000000000000000e+00  0.0000000000000000e+00 0.0000000000000000e+00 0.0000000000000000e+00  0.0000000000000000e+00 0.0000000000000000e+00 0.0000000000000000e+00  0.0000000000000000e+00 0.0000000000000000e+00 0.0000000000000000e+00  0.0000000000000000e+00 0.0000000000000000e+00 0.0000000000000000e+00  0.0000000000000000e+00 0.0000000000000000e+00 0.0000000000000000e+00  0.0000000000000000e+00 0.0000000000000000e+00 0.0000000000000000e+00  0.0000000000000000e+00 0.0000000000000000e+00 0.0000000000000000e+00  0.0000000000000000e+00 0.0000000000000000e+00 0.0000000000000000e+00  0.0000000000000000e+00 0.0000000000000000e+00 0.0000000000000000e+00  0.0000000000000000e+00 0.0000000000000000e+00 0.0000000000000000e+00  0.0000000000000000e+00 0.0000000000000000e+00 0.0000000000000000e+00  0.0000000000000000e+00 0.0000000000000000e+00 0.0000000000000000e+00  0.0000000000000000e+00 0.0000000000000000e+00 0.0000000000000000e+00  0.0000000000000000e+00 0.0000000000000000e+00 0.0000000000000000e+00  0.0000000000000000e+00 0.0000000000000000e+00 0.0000000000000000e+00  0.0000000000000000e+00 0.0000000000000000e+00 0.0000000000000000e+00  0.0000000000000000e+00 0.0000000000000000e+00 0.0000000000000000e+00  0.0000000000000000e+00 0.0000000000000000e+00 0.0000000000000000e+00  0.0000000000000000e+00 0.0000000000000000e+00 0.0000000000000000e+00  0.0000000000000000e+00 0.0000000000000000e+00 0.0000000000000000e+00  0.0000000000000000e+00 0.0000000000000000e+00 0.0000000000000000e+00  0.0000000000000000e+00 0.0000000000000000e+00 0.0000000000000000e+00  0.0000000000000000e+00 0.0000000000000000e+00 0.0000000000000000e+00  0.0000000000000000e+00 0.0000000000000000e+00 0.0000000000000000e+00  0.0000000000000000e+00 0.0000000000000000e+00 0.0000000000000000e+00  0.0000000000000000e+00 0.0000000000000000e+00 0.0000000000000000e+00  0.0000000000000000e+00 0.0000000000000000e+00 0.0000000000000000e+00  -3.9836878169800938e-14 2.4990563351091565e-19 0.0000000000000000e+00  0.0000000000000000e+00 0.0000000000000000e+00 0.0000000000000000e+00  0.0000000000000000e+00 0.0000000000000000e+00 0.0000000000000000e+00  0.0000000000000000e+00 0.0000000000000000e+00 0.0000000000000000e+00  0.0000000000000000e+00 0.0000000000000000e+00 0.0000000000000000e+00  4.9721343644281423e-19 0.0000000000000000e+00 0.0000000000000000e+00  0.0000000000000000e+00 0.0000000000000000e+00 0.0000000000000000e+00  0.0000000000000000e+00 0.0000000000000000e+00 0.0000000000000000e+00  0.0000000000000000e+00 0.0000000000000000e+00 0.0000000000000000e+00  0.0000000000000000e+00 0.0000000000000000e+00 0.0000000000000000e+00  0.0000000000000000e+00 0.0000000000000000e+00 0.0000000000000000e+00  0.0000000000000000e+00 0.0000000000000000e+00 0.0000000000000000e+00  0.0000000000000000e+00 0.0000000000000000e+00 0.0000000000000000e+00  0.0000000000000000e+00 0.0000000000000000e+00 0.0000000000000000e+00  0.0000000000000000e+00 0.0000000000000000e+00 0.0000000000000000e+00  0.0000000000000000e+00 0.0000000000000000e+00 0.0000000000000000e+00  0.0000000000000000e+00 0.0000000000000000e+00 0.0000000000000000e+00  0.0000000000000000e+00 0.0000000000000000e+00 0.0000000000000000e+00  0.0000000000000000e+00 0.0000000000000000e+00 0.0000000000000000e+00  0.0000000000000000e+00 0.0000000000000000e+00 0.0000000000000000e+00  0.0000000000000000e+00 0.0000000000000000e+00 0.0000000000000000e+00  0.0000000000000000e+00 0.0000000000000000e+00 0.0000000000000000e+00  0.0000000000000000e+00 0.0000000000000000e+00 0.0000000000000000e+00  0.0000000000000000e+00 0.0000000000000000e+00 0.0000000000000000e+00  0.0000000000000000e+00 0.0000000000000000e+00 0.0000000000000000e+00  0.0000000000000000e+00 0.0000000000000000e+00 0.0000000000000000e+00  0.0000000000000000e+00 0.0000000000000000e+00 0.0000000000000000e+00  0.0000000000000000e+00 0.0000000000000000e+00 0.0000000000000000e+00  0.0000000000000000e+00 0.0000000000000000e+00 0.0000000000000000e+00  0.0000000000000000e+00 0.0000000000000000e+00 0.0000000000000000e+00  0.0000000000000000e+00 0.0000000000000000e+00 0.0000000000000000e+00  0.0000000000000000e+00 0.0000000000000000e+00 0.0000000000000000e+00  0.0000000000000000e+00 0.0000000000000000e+00 0.0000000000000000e+00  0.0000000000000000e+00 0.0000000000000000e+00 0.0000000000000000e+00  0.0000000000000000e+00 0.0000000000000000e+00 0.0000000000000000e+00  0.0000000000000000e+00 0.0000000000000000e+00 0.0000000000000000e+00  0.0000000000000000e+00 0.0000000000000000e+00 0.0000000000000000e+00  0.0000000000000000e+00 2.3246516625564077e-19 0.0000000000000000e+00  -2.7605440794468138e-07 -7.6998282255436373e-06 0.0000000000000000e+00  -3.2776742788325204e-07 -8.2585319508051530e-06 0.0000000000000000e+00  1.1588446887136280e-08 -8.3740570896899648e-06 0.0000000000000000e+00  5.2751043654973305e-07 -8.2446360793327526e-06 0.0000000000000000e+00  1.0868362000610128e-06 -8.1186191545138181e-06 0.0000000000000000e+00  1.5793263391245206e-06 -8.0748548893064427e-06 0.0000000000000000e+00  2.0259272031201669e-06 -8.0370008346701248e-06 0.0000000000000000e+00  2.3972583448525331e-06 -8.0195933673043123e-06 0.0000000000000000e+00  2.7276742294647705e-06 -8.0286759448177119e-06 0.0000000000000000e+00  2.9774772369497212e-06 -8.0402514343787725e-06 0.0000000000000000e+00  3.1731081302906350e-06 -8.1120970643772686e-06 0.0000000000000000e+00  3.2908816316315699e-06 -8.1753360686669820e-06 0.0000000000000000e+00  3.3408809662965757e-06 -8.2869628798623415e-06 0.0000000000000000e+00  3.3286275907292332e-06 -8.4277560250665802e-06 0.0000000000000000e+00  3.2306866398456677e-06 -8.5944324863713119e-06 0.0000000000000000e+00  3.0883423775823318e-06 -8.8093888295699125e-06 0.0000000000000000e+00  2.8535674365517663e-06 -9.0225134073144555e-06 0.0000000000000000e+00  2.5568167877422959e-06 -9.3162807004219689e-06 0.0000000000000000e+00  2.1751482736716406e-06 -9.5955560741524894e-06 0.0000000000000000e+00  1.7332835771994835e-06 -9.9567780478816044e-06 0.0000000000000000e+00  1.2062360888323240e-06 -1.0306477505683614e-05 0.0000000000000000e+00  5.9990029662141162e-07 -1.0717732117756436e-05 0.0000000000000000e+00  -6.8370721036836964e-08 -1.1158880062063012e-05 0.0000000000000000e+00  -8.2676776145525460e-07 -1.1625959598190100e-05 0.0000000000000000e+00  -1.6341099456014615e-06 -1.2143963650752816e-05 0.0000000000000000e+00  -2.5370187885857385e-06 -1.2658129784691298e-05 0.0000000000000000e+00  -3.5175139728658956e-06 -1.3257615757639051e-05 0.0000000000000000e+00  -4.5751252479581072e-06 -1.3835577715332393e-05 0.0000000000000000e+00  -5.7108016183680673e-06 -1.4491631387037873e-05 0.0000000000000000e+00  -6.9237194054864267e-06 -1.5134242818512870e-05 0.0000000000000000e+00  -8.2126077306668993e-06 -1.5848592720231611e-05 0.0000000000000000e+00  -9.5840723333790512e-06 -1.6547161438872405e-05 0.0000000000000000e+00  -1.1026348291483508e-05 -1.7319659149229157e-05 0.0000000000000000e+00  -1.2554746257857342e-05 -1.8064182205342379e-05 0.0000000000000000e+00  -1.4165290080081108e-05 -1.8888290881337002e-05 0.0000000000000000e+00  -1.5853924678053581e-05 -1.9687628655033981e-05 0.0000000000000000e+00  -1.7619461005423765e-05 -2.0556672310914383e-05 0.0000000000000000e+00  -1.9466269988990938e-05 -2.1400061339898091e-05 0.0000000000000000e+00  -2.1395260942720866e-05 -2.2308117952948394e-05 0.0000000000000000e+00  -2.3411025692664267e-05 -2.3189238964015989e-05 0.0000000000000000e+00  -2.5516650357668575e-05 -2.4114897869154765e-05 0.0000000000000000e+00  -2.7689360746088477e-05 -2.5035127010063738e-05 0.0000000000000000e+00  -2.9962260642672720e-05 -2.5976488975921673e-05 0.0000000000000000e+00  -3.2282976625633487e-05 -2.6922611341683366e-05 0.0000000000000000e+00  -3.4697379960675285e-05 -2.7854596895003233e-05 0.0000000000000000e+00  -3.7127612549759985e-05 -2.8865098693111377e-05 0.0000000000000000e+00  -4.0635374802440853e-05 -2.7937366525248395e-05 0.0000000000000000e+00  -4.2075272835610183e-05 -2.3407862401018272e-05 0.0000000000000000e+00  -4.0030304725385111e-05 -2.0307152871944647e-05 0.0000000000000000e+00  -3.7562420425054061e-05 -1.9147317381107901e-05 0.0000000000000000e+00  -3.5119366505954201e-05 -1.7951582772377720e-05 0.0000000000000000e+00  -3.2761889000958413e-05 -1.6791514507785127e-05 0.0000000000000000e+00  -3.0456566098314328e-05 -1.5641699477308368e-05 0.0000000000000000e+00  -2.8251778792620499e-05 -1.4506808131853594e-05 0.0000000000000000e+00  -2.6104638348202696e-05 -1.3395460470964938e-05 0.0000000000000000e+00  -2.4050595940458231e-05 -1.2277063031050310e-05 0.0000000000000000e+00  -2.2066618888784518e-05 -1.1215310951961479e-05 0.0000000000000000e+00  -2.0166955443909004e-05 -1.0128395185928729e-05 0.0000000000000000e+00  -1.8337608756567440e-05 -9.1068472574267678e-06 0.0000000000000000e+00  -1.6593580803545973e-05 -8.0652734418724535e-06 0.0000000000000000e+00  -1.4918379325885711e-05 -7.0923868323342279e-06 0.0000000000000000e+00  -1.3326869315828665e-05 -6.1022201953393861e-06 0.0000000000000000e+00  -1.1801514999982930e-05 -5.1816922026386520e-06 0.0000000000000000e+00  -1.0362064587936016e-05 -4.2447455126548040e-06 0.0000000000000000e+00  -8.9897443578863179e-06 -3.3789511643502681e-06 0.0000000000000000e+00  -7.7040677874521155e-06 -2.4995129240533290e-06 0.0000000000000000e+00  -6.4840023345463154e-06 -1.6955378228431613e-06 0.0000000000000000e+00  -5.3487403382818415e-06 -8.8047594116920579e-07 0.0000000000000000e+00  -4.2773906443526294e-06 -1.3990243041181665e-07 0.0000000000000000e+00  -3.2923779035763200e-06 6.0908076783993209e-07 0.0000000000000000e+00  -2.3824752794630380e-06 1.2987818696075663e-06 0.0000000000000000e+00  -1.5397101840242882e-06 1.9658006780187775e-06 0.0000000000000000e+00  -7.8943113309991810e-07 2.5922637693163379e-06 0.0000000000000000e+00  -8.0875951034085714e-08 3.1805142606597636e-06 0.0000000000000000e+00  5.3317496715618723e-07 3.7574834192408806e-06 0.0000000000000000e+00  1.0784480041057427e-06 4.2549738077945689e-06 0.0000000000000000e+00  1.5436504109685003e-06 4.7682089277265461e-06 0.0000000000000000e+00  1.9362910822737170e-06 5.1956476501401667e-06 0.0000000000000000e+00  2.2513625399919178e-06 5.6383765350374145e-06 0.0000000000000000e+00  2.4885734818606351e-06 6.0088505644486649e-06 0.0000000000000000e+00  2.6659363064156488e-06 6.3701200733864703e-06 0.0000000000000000e+00  2.7557447865359133e-06 6.6843684661629493e-06 0.0000000000000000e+00  2.8007857397054687e-06 6.9724945047452705e-06 0.0000000000000000e+00  2.7563096264464649e-06 7.2411295868742968e-06 0.0000000000000000e+00  2.6415915134575001e-06 7.4431795305306655e-06 0.0000000000000000e+00  2.4537656788699913e-06 7.6550618738733128e-06 0.0000000000000000e+00  2.1908925422329632e-06 7.8156206527369586e-06 0.0000000000000000e+00  1.8727790737460923e-06 7.9632222223522579e-06 0.0000000000000000e+00  1.4738519824624403e-06 8.0832124677769998e-06 0.0000000000000000e+00  1.0344765848245838e-06 8.1776484913294832e-06 0.0000000000000000e+00  5.0956800532601890e-07 8.3238826644772445e-06 0.0000000000000000e+00  3.0721861755593346e-08 8.4296025521652778e-06 0.0000000000000000e+00  -3.0728524253666821e-07 8.2831526619860512e-06 0.0000000000000000e+00  -2.8854363646840998e-07 7.6680015097673597e-06 0.0000000000000000e+00  -1.7850579245051994e-06 -4.3097501854323138e-08 0.0000000000000000e+00  -3.7512124748826458e-05 -2.4083786986918429e-05 0.0000000000000000e+00  -3.2740561094571428e-05 -2.2082201604049176e-05 0.0000000000000000e+00  -2.5763217330837026e-05 -1.8807871821207865e-05 0.0000000000000000e+00  2.0107810340602940e-07 3.7433084690582384e-08 0.0000000000000000e+00  -2.1792363495299667e-05 -1.6785020387493064e-05 0.0000000000000000e+00  1.2374414998533034e-06 1.3992503327328752e-07 0.0000000000000000e+00  -1.8040432295658536e-05 -1.4852804356593053e-05 0.0000000000000000e+00  2.4216277036859189e-06 -2.3711965607664629e-08 0.0000000000000000e+00  2.8424526920370816e-06 -3.4582248316253574e-07 0.0000000000000000e+00  -1.4604092395433519e-05 -1.3009988215682899e-05 0.0000000000000000e+00  2.7189989496114553e-06 -1.3285978168947743e-06 0.0000000000000000e+00  -8.6682129167377472e-06 -9.6292330984738578e-06 0.0000000000000000e+00  3.0120080333467363e-06 -5.6092617969273879e-07 0.0000000000000000e+00  2.1764002114472551e-06 -2.0680211413367086e-06 0.0000000000000000e+00  -6.1641665575361345e-06 -8.1078248091806469e-06 0.0000000000000000e+00  -1.1480592634613911e-05 -1.1265635733868780e-05 0.0000000000000000e+00  1.3363039564604132e-06 -2.8569824107018043e-06 0.0000000000000000e+00  -3.9669057866329222e-06 -6.7099861145813911e-06 0.0000000000000000e+00  2.4841097921705959e-07 -3.6561118793960612e-06 0.0000000000000000e+00  -2.0923834031233785e-06 -5.5457423573997711e-06 0.0000000000000000e+00  -8.1066150188191263e-07 -4.5331890245260829e-06 0.0000000000000000e+00  2.9390024075606025e-06 -1.0062789973576270e-06 0.0000000000000000e+00  -2.9344321982948986e-05 -2.0414670550275111e-05 0.0000000000000000e+00  1.8587099683675721e-06 -2.0817578423057967e-08 0.0000000000000000e+00  -3.5558511587624356e-05 -2.1536132928246835e-05 0.0000000000000000e+00  -5.9694643280950593e-07 3.1641466502060712e-06 0.0000000000000000e+00  -2.0252029422807759e-05 -1.4311932900534547e-05 0.0000000000000000e+00  -2.4175918858917191e-05 -1.6339013720044717e-05 0.0000000000000000e+00  7.6839654939497940e-07 -2.8687543620476640e-06 0.0000000000000000e+00  2.7023385708204123e-06 -2.4905583778673643e-06 0.0000000000000000e+00  -1.0354506041678990e-05 -8.7661186188761406e-06 0.0000000000000000e+00  -1.6641535752618381e-05 -1.2365304747712728e-05 0.0000000000000000e+00  2.6158099730179394e-06 -3.8103121911808187e-06 0.0000000000000000e+00  -7.6740160685173016e-06 -7.1293030394147838e-06 0.0000000000000000e+00  3.0266952692437391e-06 -2.7173106719167604e-06 0.0000000000000000e+00  1.9442766842238724e-06 -4.4804593356731821e-06 0.0000000000000000e+00  -5.3005725631656333e-06 -5.6131174100503357e-06 0.0000000000000000e+00  -1.3343607798798258e-05 -1.0513644309364678e-05 0.0000000000000000e+00  1.0319044864011696e-06 -5.7178366674736488e-06 0.0000000000000000e+00  -3.2296981042445825e-06 -4.2241063298797177e-06 0.0000000000000000e+00  -1.7673071064594982e-06 -1.8503009098435257e-06 0.0000000000000000e+00  -1.7342157076686277e-06 1.6722717468098154e-06 0.0000000000000000e+00  -3.9223795488669653e-05 -2.5932412468576704e-05 0.0000000000000000e+00  -5.70153803782614