<?xml version="1.0"?>
<VTKFile type="UnstructuredGrid"  version="0.1"  >
<UnstructuredGrid>
<Piece  NumberOfPoints="1419" NumberOfCells="2698">
<Points>
<DataArray  type="Float64"  NumberOfComponents="3"  format="ascii">0 0 0  0 0.41 0  2.5 0 0  2.5 0.41 0  0.6 0.19 0  0.6 0.21 0  0.25 0.2 0  0.15 0.2 0  0.2489897948556636 0.21 0  0.2489897948556636 0.19 0  0.6 0.2 0  0 0.3807142857143437 0  0 0.3514285714286952 0  0 0.3221428571430699 0  0 0.29285714285744 0  0 0.2635714285718054 0  0 0.2342857142861561 0  0 0.2050000000005308 0  0 0.175714285714732 0  0 0.1464285714289574 0  0 0.1171428571431897 0  0 0.08785714285737878 0  0 0.05857142857161107 0  0 0.02928571428580012 0  0.03015443760436003 0 0  0.06140001986583606 0 0  0.09377624077125973 0 0  0.1273239957535082 0 0  0.1620856860351972 0 0  0.1981052433264291 0 0  0.235428184091502 0 0  0.2741016576309132 0 0  0.3141745521465447 0 0  0.3556974926295285 0 0  0.3987229542472677 0 0  0.4433053055141081 0 0  0.4895008759286886 0 0  0.5373680609405097 0 0  0.5869673343216626 0 0  0.6383613676634521 0 0  0.6916151138468254 0 0  0.7467958595648856 0 0  0.8039733463919316 0 0  0.8632198139502143 0 0  0.9246101326867038 0 0  0.9882218810934433 0 0  1.054135445558498 0 0  1.122434100542598 0 0  1.193204177141305 0 0  1.266535089879536 0 0  1.342519516046404 0 0  1.421253448503939 0 0  1.502836389106271 0 0  1.587371439758838 0 0  1.674965418777374 0 0  1.765729001825544 0 0  1.859776908880082 0 0  1.957227977487062 0 0  2.058205329869943 0 0  2.162836591189951 0 0  2.271253957290865 0 0  2.383594446803425 0 0  2.5 0.1024999999997612 0  2.5 0.2049999999994743 0  2.5 0.3074999999997183 0  2.383594446803656 0.41 0  2.271253957291315 0.41 0  2.162836591190598 0.41 0  2.058205329870775 0.41 0  1.957227977488067 0.41 0  1.859776908881246 0.41 0  1.765729001826854 0.41 0  1.674965418778818 0.41 0  1.58737143976041 0.41 0  1.502836389107956 0.41 0  1.421253448505726 0.41 0  1.342519516048286 0.41 0  1.266535089881505 0.41 0  1.193204177143353 0.41 0  1.122434100544716 0.41 0  1.05413544556068 0.41 0  0.9882218810956305 0.41 0  0.9246101326886647 0.41 0  0.8632198139519631 0.41 0  0.8039733463934788 0.41 0  0.7467958595662458 0.41 0  0.6916151138480078 0.41 0  0.6383613676644679 0.41 0  0.5869673343225223 0.41 0  0.5373680609412221 0.41 0  0.4895008759292634 0.41 0  0.4433053055145528 0.41 0  0.3987229542475914 0.41 0  0.3556974926297398 0.41 0  0.3141745521466497 0.41 0  0.2741016576310038 0.41 0  0.2354281840915826 0.41 0  0.1981052433265003 0.41 0  0.1620856860352591 0.41 0  0.1273239957535623 0.41 0  0.09377624077128965 0.41 0  0.06140001986584975 0.41 0  0.03015443760436654 0.41 0  0.2497468076502589 0.2050254481002335 0  0.2497468076502614 0.1949745518997913 0  0.2469965252529372 0.1829317073451959 0  0.2439893735792749 0.1762316384219906 0  0.2400332147834255 0.1700443375285386 0  0.2352133972704371 0.1645032867342007 0  0.2296339016332438 0.1597280261969788 0  0.2234150974217223 0.1558215752574715 0  0.2166911463437691 0.1528682099456123 0  0.2096071079204251 0.1509316448471593 0  0.2023158100364996 0.1500536585536553 0  0.194974551899914 0.1502531923497262 0  0.1877417105387872 0.1515259415822739 0  0.1807733240461124 0.153844448527136 0  0.1742197252835808 0.15715869474974 0  0.1682222986673531 0.1613971801805478 0  0.162910430003803 0.1664684656256651 0  0.1583987151779087 0.1722631454351573 0  0.1547844879126891 0.178656207771761 0  0.1521457199348551 0.1855097315605723 0  0.1505393388476355 0.1926758619366523 0  0.1505393388476328 0.2073241380633295 0  0.1521457199348437 0.2144902684393899 0  0.1547844879126531 0.221343792228163 0  0.1583987151778488 0.2277368545647528 0  0.1629104300036858 0.2335315343742052 0  0.1682222986671726 0.2386028198193036 0  0.1742197252833576 0.2428413052501257 0  0.1807733240458683 0.2461555514727623 0  0.1877417105384929 0.2484740584176516 0  0.1949745518995776 0.2497468076502398 0  0.202315810036185 0.2499463414463592 0  0.2096071079201568 0.2490683551528932 0  0.2166911463435495 0.2471317900544655 0  0.2234150974215506 0.2441784247426195 0  0.2296339016331197 0.2402719738031125 0  0.2352133972703547 0.2354967132658811 0  0.2400332147833751 0.2299556624715287 0  0.2439893735792577 0.2237683615780412 0  0.246996525252926 0.2170682926548348 0  0.25645809709277 0.21 0  0.2639263993298655 0.21 0  0.271394701566961 0.21 0  0.2788630038040554 0.21 0  0.2863313060411479 0.21 0  0.2937996082782405 0.21 0  0.301267910515333 0.21 0  0.3087362127524279 0.21 0  0.3162045149895234 0.21 0  0.3236728172265972 0.21 0  0.3311411194636928 0.21 0  0.3386094217007701 0.21 0  0.3460777239378666 0.21 0  0.3535460261749672 0.21 0  0.3610143284120516 0.21 0  0.3684826306491596 0.21 0  0.3759509328862226 0.21 0  0.383419235123329 0.21 0  0.3908875373604028 0.21 0  0.3983558395975142 0.21 0  0.4058241418345938 0.21 0  0.4132924440716992 0.21 0  0.4207607463087888 0.21 0  0.4282290485459029 0.21 0  0.4356973507830418 0.21 0  0.4431656530201649 0.21 0  0.4506339552573136 0.21 0  0.4581022574944306 0.21 0  0.4655705597315852 0.21 0  0.4730388619686996 0.21 0  0.480507164205851 0.21 0  0.4879754664429498 0.21 0  0.4954437686800938 0.21 0  0.502912070917267 0.21 0  0.5103803731544119 0.21 0  0.5178486753915261 0.21 0  0.5253169776286404 0.21 0  0.5327852798657868 0.21 0  0.5402535821029386 0.21 0  0.54772188434007 0.21 0  0.5551901865771842 0.21 0  0.5626584888143201 0.21 0  0.5701267910514778 0.21 0  0.5775950932886138 0.21 0  0.5850633955257281 0.21 0  0.5925316977628483 0.21 0  0.6 0.2050000000000054 0  0.6 0.1950000000000217 0  0.5925316977628897 0.19 0  0.5850633955257988 0.19 0  0.5775950932887378 0.19 0  0.5701267910515998 0.19 0  0.5626584888145268 0.19 0  0.5551901865773963 0.19 0  0.547721884340339 0.19 0  0.5402535821032429 0.19 0  0.5327852798661811 0.19 0  0.5253169776290537 0.19 0  0.5178486753919799 0.19 0  0.5103803731549078 0.19 0  0.502912070917822 0.19 0  0.4954437686807294 0.19 0  0.4879754664436223 0.19 0  0.4805071642065402 0.19 0  0.4730388619694271 0.19 0  0.4655705597323621 0.19 0  0.4581022574952563 0.19 0  0.4506339552581777 0.19 0  0.4431656530210671 0.19 0  0.4356973507839815 0.19 0  0.4282290485468779 0.19 0  0.4207607463097617 0.19 0  0.4132924440726327 0.19 0  0.4058241418354857 0.19 0  0.3983558395983636 0.19 0  0.3908875373612097 0.19 0  0.3834192351240934 0.19 0  0.3759509328869369 0.19 0  0.3684826306498175 0.19 0  0.361014328412667 0.19 0  0.3535460261755617 0.19 0  0.3460777239384295 0.19 0  0.3386094217012945 0.19 0  0.3311411194641595 0.19 0  0.3236728172270245 0.19 0  0.3162045149898895 0.19 0  0.3087362127527544 0.19 0  0.3012679105156187 0.19 0  0.2937996082784807 0.19 0  0.2863313060413428 0.19 0  0.2788630038042048 0.19 0  0.2713947015670686 0.19 0  0.2639263993299336 0.19 0  0.2564580970927985 0.19 0  0.2607803159922026 0.2000727136295815 0  0.5887803774232762 0.2001272386983733 0  0.5745072403740523 0.2002044435018727 0  0.5511891430099709 0.2001122610077113 0  0.2751288526855082 0.20000000000002 0  0.5365194309847112 0.1999999999999436 0  0.2894621222999649 0.1998691686390484 0  0.5215828265105155 0.1999999999999228 0  0.3127789816668748 0.1998657885438805 0  0.3274069683451451 0.2000000000000796 0  0.5066462220363641 0.199999999999908 0  0.3650630746574081 0.199866017807523 0  0.476773013087985 0.1999999999998713 0  0.3417402379596385 0.1998691686391011 0  0.3796850840047755 0.200000000000134 0  0.4618364086138087 0.1999999999998546 0  0.4917096175621762 0.1999999999998808 0  0.3946216884789568 0.2000000000001512 0  0.446899804139621 0.1999999999998389 0  0.4089549580935208 0.1998691686391595 0  0.4322718174608562 0.200127451265745 0  0.4201487168029707 0.1999966199048527 0  0.3528922713220932 0.2000185703532356 0  0.5633122436674589 0.1999814296467508 0  0.3006558810093873 0.1999966199048318 0  0.5815926498168407 0.1966545283159175 0  0.2677053789419034 0.1964246479135325 0  0.5290511287476175 0.1970915826863981 0  0.5439877332217911 0.197091582686394 0  0.2825131256993216 0.2035478995978015 0  0.3199386661080599 0.202908417313604 0  0.4842413153250809 0.1970915826863873 0  0.5141145242734466 0.1970915826863843 0  0.3722167817676917 0.2029084173136195 0  0.4693047108508938 0.1970915826863783 0  0.3348752705822316 0.202908417313609 0  0.3871533862418661 0.2029084173136212 0  0.4543681063767183 0.1970915826863795 0  0.4991779197992749 0.1970915826863902 0  0.4020059614928624 0.203547899597858 0  0.4394315019025246 0.1970915826863714 0  0.2550657455369551 0.2034088125358657 0  0.2548908499171161 0.1966940311614271 0  0.5946539510196798 0.2024302972968126 0  0.267698176732111 0.2039977513680092 0  0.4261685417851465 0.196409292431739 0  0.3590076176283495 0.196411355804271 0  0.5571672426447437 0.2036011176410121 0  0.3066757059912147 0.1964092924317024 0  0.594380730180568 0.1966558399668133 0  0.4842413153245942 0.2040749161535287 0  0.4693047108503577 0.2040749161535231 0  0.3871533862424271 0.1959250838464788 0  0.372246743208829 0.1959123236376545 0  0.5141145242731028 0.2040749161535395 0  0.4543681063761134 0.2040749161535186 0  0.4019979587101454 0.1959834479682427 0  0.4394608940728603 0.2040870543693135 0  0.5439623148931173 0.2040856076781014 0  0.5290511287473298 0.2040749161535501 0  0.4991779197988497 0.2040749161535382 0  0.3347912413592433 0.1959225448935183 0  0.3199680582793816 0.1959123018030061 0  0.2825051229162361 0.1959834479681729 0  0.3590471196690275 0.2036304442587945 0  0.5571594006495384 0.1963685282145804 0  0.3067669986803285 0.203627750582736 0  0.4262598344738712 0.2036568242185335 0  0.5814408164431408 0.2041285596160068 0  0.5688286748170428 0.1961819304477386 0  0.4145905603063645 0.2038180695522843 0  0.3473758401724931 0.2038180695522752 0  0.2950977245128307 0.2038180695522663 0  0.5688286748170693 0.203818069552238 0  0.2950977245127906 0.1961819304477774 0  0.3473758401723931 0.1961819304478349 0  0.4145905603061963 0.1961819304479011 0  0.2601812407614425 0.2056861609747042
[...]
<PointData  Vectors="f_46-0"> 
<DataArray  type="Float64"  Name="f_46-0"  NumberOfComponents="3" format="ascii">0.0000000000000000e+00 0.0000000000000000e+00 0.0000000000000000e+00  0.0000000000000000e+00 0.0000000000000000e+00 0.0000000000000000e+00  0.0000000000000000e+00 0.0000000000000000e+00 0.0000000000000000e+00  0.0000000000000000e+00 0.0000000000000000e+00 0.0000000000000000e+00  -2.2466685099505695e-05 -1.1912056697316168e-04 0.0000000000000000e+00  -8.3625060147234686e-06 -1.1890244370106098e-04 0.0000000000000000e+00  0.0000000000000000e+00 0.0000000000000000e+00 0.0000000000000000e+00  0.0000000000000000e+00 0.0000000000000000e+00 0.0000000000000000e+00  0.0000000000000000e+00 0.0000000000000000e+00 0.0000000000000000e+00  0.0000000000000000e+00 0.0000000000000000e+00 0.0000000000000000e+00  -1.5314032964155408e-05 -1.1900503336497371e-04 0.0000000000000000e+00  7.9591836734548407e-02 0.0000000000000000e+00 0.0000000000000000e+00  1.4693877550994527e-01 0.0000000000000000e+00 0.0000000000000000e+00  2.0204081632617479e-01 0.0000000000000000e+00 0.0000000000000000e+00  2.4489795918330076e-01 0.0000000000000000e+00 0.0000000000000000e+00  2.7551020408131754e-01 0.0000000000000000e+00 0.0000000000000000e+00  2.9387755102022350e-01 0.0000000000000000e+00 0.0000000000000000e+00  3.0000000000000004e-01 0.0000000000000000e+00 0.0000000000000000e+00  2.9387755102059482e-01 0.0000000000000000e+00 0.0000000000000000e+00  2.7551020408195548e-01 0.0000000000000000e+00 0.0000000000000000e+00  2.4489795918409071e-01 0.0000000000000000e+00 0.0000000000000000e+00  2.0204081632692525e-01 0.0000000000000000e+00 0.0000000000000000e+00  1.4693877551058568e-01 0.0000000000000000e+00 0.0000000000000000e+00  7.9591836734909230e-02 0.0000000000000000e+00 0.0000000000000000e+00  0.0000000000000000e+00 0.0000000000000000e+00 0.0000000000000000e+00  0.0000000000000000e+00 0.0000000000000000e+00 0.0000000000000000e+00  0.0000000000000000e+00 0.0000000000000000e+00 0.0000000000000000e+00  0.0000000000000000e+00 0.0000000000000000e+00 0.0000000000000000e+00  0.0000000000000000e+00 0.0000000000000000e+00 0.0000000000000000e+00  0.0000000000000000e+00 0.0000000000000000e+00 0.0000000000000000e+00  0.0000000000000000e+00 0.0000000000000000e+00 0.0000000000000000e+00  0.0000000000000000e+00 0.0000000000000000e+00 0.0000000000000000e+00  0.0000000000000000e+00 0.0000000000000000e+00 0.0000000000000000e+00  0.0000000000000000e+00 0.0000000000000000e+00 0.0000000000000000e+00  0.0000000000000000e+00 0.0000000000000000e+00 0.0000000000000000e+00  0.0000000000000000e+00 0.0000000000000000e+00 0.0000000000000000e+00  0.0000000000000000e+00 0.0000000000000000e+00 0.0000000000000000e+00  0.0000000000000000e+00 0.0000000000000000e+00 0.0000000000000000e+00  0.0000000000000000e+00 0.0000000000000000e+00 0.0000000000000000e+00  0.0000000000000000e+00 0.0000000000000000e+00 0.0000000000000000e+00  0.0000000000000000e+00 0.0000000000000000e+00 0.0000000000000000e+00  0.0000000000000000e+00 0.0000000000000000e+00 0.0000000000000000e+00  0.0000000000000000e+00 0.0000000000000000e+00 0.0000000000000000e+00  0.0000000000000000e+00 0.0000000000000000e+00 0.0000000000000000e+00  0.0000000000000000e+00 0.0000000000000000e+00 0.0000000000000000e+00  0.0000000000000000e+00 0.0000000000000000e+00 0.0000000000000000e+00  0.0000000000000000e+00 0.0000000000000000e+00 0.0000000000000000e+00  0.0000000000000000e+00 0.0000000000000000e+00 0.0000000000000000e+00  0.0000000000000000e+00 0.0000000000000000e+00 0.0000000000000000e+00  0.0000000000000000e+00 0.0000000000000000e+00 0.0000000000000000e+00  0.0000000000000000e+00 0.0000000000000000e+00 0.0000000000000000e+00  0.0000000000000000e+00 0.0000000000000000e+00 0.0000000000000000e+00  0.0000000000000000e+00 0.0000000000000000e+00 0.0000000000000000e+00  0.0000000000000000e+00 0.0000000000000000e+00 0.0000000000000000e+00  0.0000000000000000e+00 0.0000000000000000e+00 0.0000000000000000e+00  0.0000000000000000e+00 0.0000000000000000e+00 0.0000000000000000e+00  0.0000000000000000e+00 0.0000000000000000e+00 0.0000000000000000e+00  0.0000000000000000e+00 0.0000000000000000e+00 0.0000000000000000e+00  0.0000000000000000e+00 0.0000000000000000e+00 0.0000000000000000e+00  0.0000000000000000e+00 0.0000000000000000e+00 0.0000000000000000e+00  0.0000000000000000e+00 0.0000000000000000e+00 0.0000000000000000e+00  0.0000000000000000e+00 0.0000000000000000e+00 0.0000000000000000e+00  2.6369480733245831e-01 6.2466368102193906e-03 0.0000000000000000e+00  2.6232675835766450e-01 8.3400348938856266e-03 0.0000000000000000e+00  2.6990087053685391e-01 -1.4528876687496585e-02 0.0000000000000000e+00  0.0000000000000000e+00 0.0000000000000000e+00 0.0000000000000000e+00  0.0000000000000000e+00 0.0000000000000000e+00 0.0000000000000000e+00  0.0000000000000000e+00 0.0000000000000000e+00 0.0000000000000000e+00  0.0000000000000000e+00 0.0000000000000000e+00 0.0000000000000000e+00  0.0000000000000000e+00 0.0000000000000000e+00 0.0000000000000000e+00  0.0000000000000000e+00 0.0000000000000000e+00 0.0000000000000000e+00  0.0000000000000000e+00 0.0000000000000000e+00 0.0000000000000000e+00  0.0000000000000000e+00 0.0000000000000000e+00 0.0000000000000000e+00  0.0000000000000000e+00 0.0000000000000000e+00 0.0000000000000000e+00  0.0000000000000000e+00 0.0000000000000000e+00 0.0000000000000000e+00  0.0000000000000000e+00 0.0000000000000000e+00 0.0000000000000000e+00  0.0000000000000000e+00 0.0000000000000000e+00 0.0000000000000000e+00  0.0000000000000000e+00 0.0000000000000000e+00 0.0000000000000000e+00  0.0000000000000000e+00 0.0000000000000000e+00 0.0000000000000000e+00  0.0000000000000000e+00 0.0000000000000000e+00 0.0000000000000000e+00  0.0000000000000000e+00 0.0000000000000000e+00 0.0000000000000000e+00  0.0000000000000000e+00 0.0000000000000000e+00 0.0000000000000000e+00  0.0000000000000000e+00 0.0000000000000000e+00 0.0000000000000000e+00  0.0000000000000000e+00 0.0000000000000000e+00 0.0000000000000000e+00  0.0000000000000000e+00 0.0000000000000000e+00 0.0000000000000000e+00  0.0000000000000000e+00 0.0000000000000000e+00 0.0000000000000000e+00  0.0000000000000000e+00 0.0000000000000000e+00 0.0000000000000000e+00  0.0000000000000000e+00 0.0000000000000000e+00 0.0000000000000000e+00  0.0000000000000000e+00 0.0000000000000000e+00 0.0000000000000000e+00  0.0000000000000000e+00 0.0000000000000000e+00 0.0000000000000000e+00  0.0000000000000000e+00 0.0000000000000000e+00 0.0000000000000000e+00  0.0000000000000000e+00 0.0000000000000000e+00 0.0000000000000000e+00  0.0000000000000000e+00 0.0000000000000000e+00 0.0000000000000000e+00  0.0000000000000000e+00 0.0000000000000000e+00 0.0000000000000000e+00  0.0000000000000000e+00 0.0000000000000000e+00 0.0000000000000000e+00  0.0000000000000000e+00 0.0000000000000000e+00 0.0000000000000000e+00  0.0000000000000000e+00 0.0000000000000000e+00 0.0000000000000000e+00  0.0000000000000000e+00 0.0000000000000000e+00 0.0000000000000000e+00  0.0000000000000000e+00 0.0000000000000000e+00 0.0000000000000000e+00  0.0000000000000000e+00 0.0000000000000000e+00 0.0000000000000000e+00  0.0000000000000000e+00 0.0000000000000000e+00 0.0000000000000000e+00  0.0000000000000000e+00 0.0000000000000000e+00 0.0000000000000000e+00  0.0000000000000000e+00 0.0000000000000000e+00 0.0000000000000000e+00  0.0000000000000000e+00 0.0000000000000000e+00 0.0000000000000000e+00  0.0000000000000000e+00 0.0000000000000000e+00 0.0000000000000000e+00  -7.2363396959222995e-15 0.0000000000000000e+00 0.0000000000000000e+00  0.0000000000000000e+00 0.0000000000000000e+00 0.0000000000000000e+00  0.0000000000000000e+00 0.0000000000000000e+00 0.0000000000000000e+00  0.0000000000000000e+00 0.0000000000000000e+00 0.0000000000000000e+00  0.0000000000000000e+00 0.0000000000000000e+00 0.0000000000000000e+00  0.0000000000000000e+00 0.0000000000000000e+00 0.0000000000000000e+00  0.0000000000000000e+00 0.0000000000000000e+00 0.0000000000000000e+00  0.0000000000000000e+00 0.0000000000000000e+00 0.0000000000000000e+00  0.0000000000000000e+00 0.0000000000000000e+00 0.0000000000000000e+00  0.0000000000000000e+00 0.0000000000000000e+00 0.0000000000000000e+00  0.0000000000000000e+00 0.0000000000000000e+00 0.0000000000000000e+00  0.0000000000000000e+00 0.0000000000000000e+00 0.0000000000000000e+00  0.0000000000000000e+00 0.0000000000000000e+00 0.0000000000000000e+00  0.0000000000000000e+00 0.0000000000000000e+00 0.0000000000000000e+00  0.0000000000000000e+00 0.0000000000000000e+00 0.0000000000000000e+00  0.0000000000000000e+00 0.0000000000000000e+00 0.0000000000000000e+00  0.0000000000000000e+00 0.0000000000000000e+00 0.0000000000000000e+00  0.0000000000000000e+00 0.0000000000000000e+00 0.0000000000000000e+00  0.0000000000000000e+00 0.0000000000000000e+00 0.0000000000000000e+00  0.0000000000000000e+00 0.0000000000000000e+00 0.0000000000000000e+00  0.0000000000000000e+00 0.0000000000000000e+00 0.0000000000000000e+00  0.0000000000000000e+00 0.0000000000000000e+00 0.0000000000000000e+00  0.0000000000000000e+00 0.0000000000000000e+00 0.0000000000000000e+00  0.0000000000000000e+00 0.0000000000000000e+00 0.0000000000000000e+00  0.0000000000000000e+00 0.0000000000000000e+00 0.0000000000000000e+00  0.0000000000000000e+00 0.0000000000000000e+00 0.0000000000000000e+00  0.0000000000000000e+00 0.0000000000000000e+00 0.0000000000000000e+00  0.0000000000000000e+00 0.0000000000000000e+00 0.0000000000000000e+00  0.0000000000000000e+00 0.0000000000000000e+00 0.0000000000000000e+00  0.0000000000000000e+00 0.0000000000000000e+00 0.0000000000000000e+00  0.0000000000000000e+00 0.0000000000000000e+00 0.0000000000000000e+00  0.0000000000000000e+00 0.0000000000000000e+00 0.0000000000000000e+00  0.0000000000000000e+00 0.0000000000000000e+00 0.0000000000000000e+00  0.0000000000000000e+00 0.0000000000000000e+00 0.0000000000000000e+00  0.0000000000000000e+00 0.0000000000000000e+00 0.0000000000000000e+00  0.0000000000000000e+00 0.0000000000000000e+00 0.0000000000000000e+00  0.0000000000000000e+00 0.0000000000000000e+00 0.0000000000000000e+00  2.1224190252529488e-12 0.0000000000000000e+00 0.0000000000000000e+00  -1.0540265765373997e-06 1.2142953193830667e-06 0.0000000000000000e+00  -2.1174020535469952e-06 1.9184334878368370e-06 0.0000000000000000e+00  -3.1018047765529470e-06 2.7878702965688909e-06 0.0000000000000000e+00  -4.0378087322024617e-06 3.8340820525757367e-06 0.0000000000000000e+00  -4.8722251401348433e-06 4.9269011877299276e-06 0.0000000000000000e+00  -5.6183482434814542e-06 6.0608786638860914e-06 0.0000000000000000e+00  -6.2976035928358334e-06 7.1461473903158927e-06 0.0000000000000000e+00  -6.8956996468055212e-06 8.1275502658641382e-06 0.0000000000000000e+00  -7.3917133882402242e-06 8.9866750496130760e-06 0.0000000000000000e+00  -7.8491794162989756e-06 9.6469650026896415e-06 0.0000000000000000e+00  -8.1665477934179020e-06 1.0123665494684678e-05 0.0000000000000000e+00  -8.4885606468661065e-06 1.0324658543033005e-05 0.0000000000000000e+00  -8.6603291368244914e-06 1.0278831734249938e-05 0.0000000000000000e+00  -8.8542966952810977e-06 9.9874131110879009e-06 0.0000000000000000e+00  -8.9834842425051881e-06 9.3616542130718236e-06 0.0000000000000000e+00  -8.9969856279783240e-06 8.4751835604480062e-06 0.0000000000000000e+00  -9.0570579635074898e-06 7.2636130990328534e-06 0.0000000000000000e+00  -8.9758034168593651e-06 5.7709968983521089e-06 0.0000000000000000e+00  -8.9725299493044916e-06 3.9493902069235498e-06 0.0000000000000000e+00  -8.8503378266432279e-06 1.8645104931098292e-06 0.0000000000000000e+00  -8.7866977548236940e-06 -5.4105033476775811e-07 0.0000000000000000e+00  -8.6378392024256148e-06 -3.2242856363911816e-06 0.0000000000000000e+00  -8.5603622710479373e-06 -6.1316599266983979e-06 0.0000000000000000e+00  -8.4723290891254279e-06 -9.3355218700114753e-06 0.0000000000000000e+00  -8.3331933509089256e-06 -1.2734856697844811e-05 0.0000000000000000e+00  -8.2410067387567910e-06 -1.6384463906583660e-05 0.0000000000000000e+00  -8.1366103796614749e-06 -2.0232918608065454e-05 0.0000000000000000e+00  -8.0615697905914347e-06 -2.4272038879599055e-05 0.0000000000000000e+00  -7.9813734854419062e-06 -2.8487654178566034e-05 0.0000000000000000e+00  -7.9310485500326761e-06 -3.2858018115963343e-05 0.0000000000000000e+00  -7.8805551217953950e-06 -3.7375407946864834e-05 0.0000000000000000e+00  -7.8569117721365705e-06 -4.2016889559720209e-05 0.0000000000000000e+00  -7.8360146177984446e-06 -4.6775259599921832e-05 0.0000000000000000e+00  -7.8373600771483786e-06 -5.1628599100551972e-05 0.0000000000000000e+00  -7.8425676466264917e-06 -5.6570078523637261e-05 0.0000000000000000e+00  -7.8656094149518619e-06 -6.1581288604577281e-05 0.0000000000000000e+00  -7.8921695849463410e-06 -6.6655592430629745e-05 0.0000000000000000e+00  -7.9312254670036750e-06 -7.1778509710537059e-05 0.0000000000000000e+00  -7.9723202950934882e-06 -7.6943077731947816e-05 0.0000000000000000e+00  -8.0200474667490163e-06 -8.2140213255982666e-05 0.0000000000000000e+00  -8.0654010751112397e-06 -8.7365605403597860e-05 0.0000000000000000e+00  -8.1159207495410316e-06 -9.2606917016797337e-05 0.0000000000000000e+00  -8.1641173406241084e-06 -9.7864880532308536e-05 0.0000000000000000e+00  -8.2091198345780708e-06 -1.0313128510822776e-04 0.0000000000000000e+00  -8.2497606230961782e-06 -1.0840882946434502e-04 0.0000000000000000e+00  -8.2950178261667353e-06 -1.1367988956742660e-04 0.0000000000000000e+00  -1.1806399508174205e-05 -1.1895351898083320e-04 0.0000000000000000e+00  -1.8858381701184069e-05 -1.1905703527255778e-04 0.0000000000000000e+00  -2.2392217269906085e-05 -1.1379925917598574e-04 0.0000000000000000e+00  -2.2339250522299588e-05 -1.0854161743853001e-04 0.0000000000000000e+00  -2.2284341174449026e-05 -1.0329364241138001e-04 0.0000000000000000e+00  -2.2211831694339745e-05 -9.8046081012937843e-05 0.0000000000000000e+00  -2.2132274496967055e-05 -9.2805118840063282e-05 0.0000000000000000e+00  -2.2037086325491730e-05 -8.7579705975677246e-05 0.0000000000000000e+00  -2.1922303058346564e-05 -8.2368064158261354e-05 0.0000000000000000e+00  -2.1799110613672277e-05 -7.7186136728795701e-05 0.0000000000000000e+00  -2.1646231039453725e-05 -7.2028938702549457e-05 0.0000000000000000e+00  -2.1490801633307385e-05 -6.6920232275556160e-05 0.0000000000000000e+00  -2.1297490772275351e-05 -6.1852765764898828e-05 0.0000000000000000e+00  -2.1106213395128419e-05 -5.6854903139378938e-05 0.0000000000000000e+00  -2.0866730863962642e-05 -5.1920447915509978e-05 0.0000000000000000e+00  -2.0635047357568701e-05 -4.7080484301649724e-05 0.0000000000000000e+00  -2.0344294647841794e-05 -4.2329985654699055e-05 0.0000000000000000e+00  -2.0068196431830737e-05 -3.7703338264416506e-05 0.0000000000000000e+00  -1.9721586518709329e-05 -3.3195235351358969e-05 0.0000000000000000e+00  -1.9397053692184715e-05 -2.8844180326108795e-05 0.0000000000000000e+00  -1.8987972798929989e-05 -2.4642047274037778e-05 0.0000000000000000e+00  -1.8608629931310953e-05 -2.0629819957647982e-05 0.0000000000000000e+00  -1.8129790992845146e-05 -1.6799200366627674e-05 0.0000000000000000e+00  -1.7687830338352131e-05 -1.3195032319835486e-05 0.0000000000000000e+00  -1.7137759632422779e-05 -9.8126586119816874e-06 0.0000000000000000e+00  -1.6616137969199086e-05 -6.6575164838822924e-06 0.0000000000000000e+00  -1.6059994758577014e-05 -3.7983250588423456e-06 0.0000000000000000e+00  -1.5411502750363691e-05 -1.1561381630381020e-06 0.0000000000000000e+00  -1.4766719823945911e-05 1.1608643548991259e-06 0.0000000000000000e+00  -1.4049669265290333e-05 3.2155066097357422e-06 0.0000000000000000e+00  -1.3326654225032608e-05 4.9382293995111954e-06 0.0000000000000000e+00  -1.2537173847863560e-05 6.3799478515477692e-06 0.0000000000000000e+00  -1.1739826297087147e-05 7.4976364266378453e-06 0.0000000000000000e+00  -1.0851274707842603e-05 8.2943923207399229e-06 0.0000000000000000e+00  -1.0011744120036625e-05 8.8327029961049808e-06 0.0000000000000000e+00  -9.1485823963789778e-06 9.0400951583022363e-06 0.0000000000000000e+00  -8.2111748838736500e-06 9.0236468298609554e-06 0.0000000000000000e+00  -7.3013761982918058e-06 8.7183253794337629e-06 0.0000000000000000e+00  -6.3646469715262161e-06 8.1951578939221414e-06 0.0000000000000000e+00  -5.4602083576983647e-06 7.4655315653337521e-06 0.0000000000000000e+00  -4.5501504307982210e-06 6.5549041062798580e-06 0.0000000000000000e+00  -3.7039559893739641e-06 5.5406663167276449e-06 0.0000000000000000e+00  -2.9018824197838718e-06 4.4340954700268369e-06 0.0000000000000000e+00  -2.1465373238480418e-06 3.2974158090055168e-06 0.0000000000000000e+00  -1.4729013882809702e-06 2.1915258857858410e-06 0.0000000000000000e+00  -9.1423561291734566e-07 1.1538217411202317e-06 0.0000000000000000e+00  -4.4149169425526108e-07 3.3188170330603185e-07 0.0000000000000000e+00  -1.6800054055692201e-07 -2.4662336512608948e-07 0.0000000000000000e+00  -8.5049573911896435e-07 6.2889345092139152e-07 0.0000000000000000e+00  -1.5191709448146417e-05 -1.1109224349149131e-04 0.0000000000000000e+00  -1.5066058598591273e-05 -1.0102998200788210e-04 0.0000000000000000e+00  -1.4919776892030155e-05 -8.4656133265493039e-05 0.0000000000000000e+00  -2.3611451395948349e-06 2.3872336854261104e-06 0.0000000000000000e+00  -1.4825160093556684e-05 -7.4453959125671368e-05 0.0000000000000000e+00  -3.7867247066370769e-06 4.5702513994142682e-06 0.0000000000000000e+00  -1.4625485090734494e-05 -6.4207406986377234e-05 0.0000000000000000e+00  -6.0545509349967982e-06 7.9233912189956927e-06 0.0000000000000000e+00  -7.3719825310490036e-06 9.3327144812650941e-06 0.0000000000000000e+00  -1.4402488479288428e-05 -5.4180387490879559e-05 0.0000000000000000e+00  -1.0142128633748818e-05 8.5975075831537606e-06 0.0000000000000000e+00  -1.3888555646981402e-05 -3.5176399084873557e-05 0.0000000000000000e+00  -8.5370398889217976e-06 9.8649954724348634e-06 0.0000000000000000e+00  -1.0928251488370330e-05 6.3184901734258513e-06 0.0000000000000000e+00  -1.3593127823740050e-05 -2.6430217136710203e-05 0.0000000000000000e+00  -1.4157123745240853e-05 -4.4466841593907462e-05 0.0000000000000000e+00  -1.1619960814757864e-05 2.7735090418290452e-06 0.0000000000000000e+00  -1.3263657112808800e-05 -1.8356387008413521e-05 0.0000000000000000e+00  -1.2222880546476940e-05 -1.7491308213088663e-06 0.0000000000000000e+00  -1.2839016683516356e-05 -1.1224674670228223e-05 0.0000000000000000e+00  -1.2538190045278453e-05 -6.0253137768134554e-06 0.0000000000000000e+00  -9.3265326915898912e-06 9.5767244753957627e-06 0.0000000000000000e+00  -1.5127274121512777e-05 -9.3157581122267863e-05 0.0000000000000000e+00  -4.9024872208396060e-06 6.2862234689748664e-06 0.0000000000000000e+00  -1.7608438088901071e-05 -1.0604752960091458e-04 0.0000000000000000e+00  -1.2605202147082706e-06 1.1112133206835237e-06 0.0000000000000000e+00  -1.6713571316985271e-05 -6.9350340379629015e-05 0.0000000000000000e+00  -1.6931312705298729e-05 -7.9672328964307365e-05 0.0000000000000000e+00  -3.5658442219567030e-06 3.7934605222524560e-06 0.0000000000000000e+00  -6.9620330127229014e-06 8.9124572593140416e-06 0.0000000000000000e+00  -1.5818466408024283e-05 -3.9819131052004805e-05 0.0000000000000000e+00  -1.6456753884335695e-05 -5.9207873851890612e-05 0.0000000000000000e+00  -1.0077676608999726e-05 7.7428618053138878e-06 0.0000000000000000e+00  -1.5430349105893844e-05 -3.0791970565091550e-05 0.0000000000000000e+00  -8.0806352690096656e-06 9.9069431764210583e-06 0.0000000000000000e+00  -1.0607064928573581e-05 4.7857784480078170e-06 0.0000000000000000e+00  -1.4987361441510496e-05 -2.2373304033714292e-05 0.0000000000000000e+00  -1.6159267804605801e-05 -4.9330031963994755e-05 0.0000000000000000e+00  -1.0816881233655353e-05 6.6606512877336352e-07 0.0000000000000000e+00  -1.4483153719002840e-05 -1.4694374498036481e-05 0.0000000000000000e+00  -3.8882747095458051e-07 3.8384814364263349e-07 0.0000000000000000e+00  -2.4354978421726087e-07 2.2363827126432921e-08 0.0000000000000000e+00  -1.3586307569230945e-05 -1.1522049886462867e-04 0.000000000000000