<?xml version="1.0"?>
<VTKFile type="UnstructuredGrid"  version="0.1"  >
<UnstructuredGrid>
<Piece  NumberOfPoints="1419" NumberOfCells="2698">
<Points>
<DataArray  type="Float64"  NumberOfComponents="3"  format="ascii">0 0 0  0 0.41 0  2.5 0 0  2.5 0.41 0  0.6 0.19 0  0.6 0.21 0  0.25 0.2 0  0.15 0.2 0  0.2489897948556636 0.21 0  0.2489897948556636 0.19 0  0.6 0.2 0  0 0.3807142857143437 0  0 0.3514285714286952 0  0 0.3221428571430699 0  0 0.29285714285744 0  0 0.2635714285718054 0  0 0.2342857142861561 0  0 0.2050000000005308 0  0 0.175714285714732 0  0 0.1464285714289574 0  0 0.1171428571431897 0  0 0.08785714285737878 0  0 0.05857142857161107 0  0 0.02928571428580012 0  0.03015443760436003 0 0  0.06140001986583606 0 0  0.09377624077125973 0 0  0.1273239957535082 0 0  0.1620856860351972 0 0  0.1981052433264291 0 0  0.235428184091502 0 0  0.2741016576309132 0 0  0.3141745521465447 0 0  0.3556974926295285 0 0  0.3987229542472677 0 0  0.4433053055141081 0 0  0.4895008759286886 0 0  0.5373680609405097 0 0  0.5869673343216626 0 0  0.6383613676634521 0 0  0.6916151138468254 0 0  0.7467958595648856 0 0  0.8039733463919316 0 0  0.8632198139502143 0 0  0.9246101326867038 0 0  0.9882218810934433 0 0  1.054135445558498 0 0  1.122434100542598 0 0  1.193204177141305 0 0  1.266535089879536 0 0  1.342519516046404 0 0  1.421253448503939 0 0  1.502836389106271 0 0  1.587371439758838 0 0  1.674965418777374 0 0  1.765729001825544 0 0  1.859776908880082 0 0  1.957227977487062 0 0  2.058205329869943 0 0  2.162836591189951 0 0  2.271253957290865 0 0  2.383594446803425 0 0  2.5 0.1024999999997612 0  2.5 0.2049999999994743 0  2.5 0.3074999999997183 0  2.383594446803656 0.41 0  2.271253957291315 0.41 0  2.162836591190598 0.41 0  2.058205329870775 0.41 0  1.957227977488067 0.41 0  1.859776908881246 0.41 0  1.765729001826854 0.41 0  1.674965418778818 0.41 0  1.58737143976041 0.41 0  1.502836389107956 0.41 0  1.421253448505726 0.41 0  1.342519516048286 0.41 0  1.266535089881505 0.41 0  1.193204177143353 0.41 0  1.122434100544716 0.41 0  1.05413544556068 0.41 0  0.9882218810956305 0.41 0  0.9246101326886647 0.41 0  0.8632198139519631 0.41 0  0.8039733463934788 0.41 0  0.7467958595662458 0.41 0  0.6916151138480078 0.41 0  0.6383613676644679 0.41 0  0.5869673343225223 0.41 0  0.5373680609412221 0.41 0  0.4895008759292634 0.41 0  0.4433053055145528 0.41 0  0.3987229542475914 0.41 0  0.3556974926297398 0.41 0  0.3141745521466497 0.41 0  0.2741016576310038 0.41 0  0.2354281840915826 0.41 0  0.1981052433265003 0.41 0  0.1620856860352591 0.41 0  0.1273239957535623 0.41 0  0.09377624077128965 0.41 0  0.06140001986584975 0.41 0  0.03015443760436654 0.41 0  0.2497468076502589 0.2050254481002335 0  0.2497468076502614 0.1949745518997913 0  0.2469965252529372 0.1829317073451959 0  0.2439893735792749 0.1762316384219906 0  0.2400332147834255 0.1700443375285386 0  0.2352133972704371 0.1645032867342007 0  0.2296339016332438 0.1597280261969788 0  0.2234150974217223 0.1558215752574715 0  0.2166911463437691 0.1528682099456123 0  0.2096071079204251 0.1509316448471593 0  0.2023158100364996 0.1500536585536553 0  0.194974551899914 0.1502531923497262 0  0.1877417105387872 0.1515259415822739 0  0.1807733240461124 0.153844448527136 0  0.1742197252835808 0.15715869474974 0  0.1682222986673531 0.1613971801805478 0  0.162910430003803 0.1664684656256651 0  0.1583987151779087 0.1722631454351573 0  0.1547844879126891 0.178656207771761 0  0.1521457199348551 0.1855097315605723 0  0.1505393388476355 0.1926758619366523 0  0.1505393388476328 0.2073241380633295 0  0.1521457199348437 0.2144902684393899 0  0.1547844879126531 0.221343792228163 0  0.1583987151778488 0.2277368545647528 0  0.1629104300036858 0.2335315343742052 0  0.1682222986671726 0.2386028198193036 0  0.1742197252833576 0.2428413052501257 0  0.1807733240458683 0.2461555514727623 0  0.1877417105384929 0.2484740584176516 0  0.1949745518995776 0.2497468076502398 0  0.202315810036185 0.2499463414463592 0  0.2096071079201568 0.2490683551528932 0  0.2166911463435495 0.2471317900544655 0  0.2234150974215506 0.2441784247426195 0  0.2296339016331197 0.2402719738031125 0  0.2352133972703547 0.2354967132658811 0  0.2400332147833751 0.2299556624715287 0  0.2439893735792577 0.2237683615780412 0  0.246996525252926 0.2170682926548348 0  0.25645809709277 0.21 0  0.2639263993298655 0.21 0  0.271394701566961 0.21 0  0.2788630038040554 0.21 0  0.2863313060411479 0.21 0  0.2937996082782405 0.21 0  0.301267910515333 0.21 0  0.3087362127524279 0.21 0  0.3162045149895234 0.21 0  0.3236728172265972 0.21 0  0.3311411194636928 0.21 0  0.3386094217007701 0.21 0  0.3460777239378666 0.21 0  0.3535460261749672 0.21 0  0.3610143284120516 0.21 0  0.3684826306491596 0.21 0  0.3759509328862226 0.21 0  0.383419235123329 0.21 0  0.3908875373604028 0.21 0  0.3983558395975142 0.21 0  0.4058241418345938 0.21 0  0.4132924440716992 0.21 0  0.4207607463087888 0.21 0  0.4282290485459029 0.21 0  0.4356973507830418 0.21 0  0.4431656530201649 0.21 0  0.4506339552573136 0.21 0  0.4581022574944306 0.21 0  0.4655705597315852 0.21 0  0.4730388619686996 0.21 0  0.480507164205851 0.21 0  0.4879754664429498 0.21 0  0.4954437686800938 0.21 0  0.502912070917267 0.21 0  0.5103803731544119 0.21 0  0.5178486753915261 0.21 0  0.5253169776286404 0.21 0  0.5327852798657868 0.21 0  0.5402535821029386 0.21 0  0.54772188434007 0.21 0  0.5551901865771842 0.21 0  0.5626584888143201 0.21 0  0.5701267910514778 0.21 0  0.5775950932886138 0.21 0  0.5850633955257281 0.21 0  0.5925316977628483 0.21 0  0.6 0.2050000000000054 0  0.6 0.1950000000000217 0  0.5925316977628897 0.19 0  0.5850633955257988 0.19 0  0.5775950932887378 0.19 0  0.5701267910515998 0.19 0  0.5626584888145268 0.19 0  0.5551901865773963 0.19 0  0.547721884340339 0.19 0  0.5402535821032429 0.19 0  0.5327852798661811 0.19 0  0.5253169776290537 0.19 0  0.5178486753919799 0.19 0  0.5103803731549078 0.19 0  0.502912070917822 0.19 0  0.4954437686807294 0.19 0  0.4879754664436223 0.19 0  0.4805071642065402 0.19 0  0.4730388619694271 0.19 0  0.4655705597323621 0.19 0  0.4581022574952563 0.19 0  0.4506339552581777 0.19 0  0.4431656530210671 0.19 0  0.4356973507839815 0.19 0  0.4282290485468779 0.19 0  0.4207607463097617 0.19 0  0.4132924440726327 0.19 0  0.4058241418354857 0.19 0  0.3983558395983636 0.19 0  0.3908875373612097 0.19 0  0.3834192351240934 0.19 0  0.3759509328869369 0.19 0  0.3684826306498175 0.19 0  0.361014328412667 0.19 0  0.3535460261755617 0.19 0  0.3460777239384295 0.19 0  0.3386094217012945 0.19 0  0.3311411194641595 0.19 0  0.3236728172270245 0.19 0  0.3162045149898895 0.19 0  0.3087362127527544 0.19 0  0.3012679105156187 0.19 0  0.2937996082784807 0.19 0  0.2863313060413428 0.19 0  0.2788630038042048 0.19 0  0.2713947015670686 0.19 0  0.2639263993299336 0.19 0  0.2564580970927985 0.19 0  0.2607803159922026 0.2000727136295815 0  0.5887803774232762 0.2001272386983733 0  0.5745072403740523 0.2002044435018727 0  0.5511891430099709 0.2001122610077113 0  0.2751288526855082 0.20000000000002 0  0.5365194309847112 0.1999999999999436 0  0.2894621222999649 0.1998691686390484 0  0.5215828265105155 0.1999999999999228 0  0.3127789816668748 0.1998657885438805 0  0.3274069683451451 0.2000000000000796 0  0.5066462220363641 0.199999999999908 0  0.3650630746574081 0.199866017807523 0  0.476773013087985 0.1999999999998713 0  0.3417402379596385 0.1998691686391011 0  0.3796850840047755 0.200000000000134 0  0.4618364086138087 0.1999999999998546 0  0.4917096175621762 0.1999999999998808 0  0.3946216884789568 0.2000000000001512 0  0.446899804139621 0.1999999999998389 0  0.4089549580935208 0.1998691686391595 0  0.4322718174608562 0.200127451265745 0  0.4201487168029707 0.1999966199048527 0  0.3528922713220932 0.2000185703532356 0  0.5633122436674589 0.1999814296467508 0  0.3006558810093873 0.1999966199048318 0  0.5815926498168407 0.1966545283159175 0  0.2677053789419034 0.1964246479135325 0  0.5290511287476175 0.1970915826863981 0  0.5439877332217911 0.197091582686394 0  0.2825131256993216 0.2035478995978015 0  0.3199386661080599 0.202908417313604 0  0.4842413153250809 0.1970915826863873 0  0.5141145242734466 0.1970915826863843 0  0.3722167817676917 0.2029084173136195 0  0.4693047108508938 0.1970915826863783 0  0.3348752705822316 0.202908417313609 0  0.3871533862418661 0.2029084173136212 0  0.4543681063767183 0.1970915826863795 0  0.4991779197992749 0.1970915826863902 0  0.4020059614928624 0.203547899597858 0  0.4394315019025246 0.1970915826863714 0  0.2550657455369551 0.2034088125358657 0  0.2548908499171161 0.1966940311614271 0  0.5946539510196798 0.2024302972968126 0  0.267698176732111 0.2039977513680092 0  0.4261685417851465 0.196409292431739 0  0.3590076176283495 0.196411355804271 0  0.5571672426447437 0.2036011176410121 0  0.3066757059912147 0.1964092924317024 0  0.594380730180568 0.1966558399668133 0  0.4842413153245942 0.2040749161535287 0  0.4693047108503577 0.2040749161535231 0  0.3871533862424271 0.1959250838464788 0  0.372246743208829 0.1959123236376545 0  0.5141145242731028 0.2040749161535395 0  0.4543681063761134 0.2040749161535186 0  0.4019979587101454 0.1959834479682427 0  0.4394608940728603 0.2040870543693135 0  0.5439623148931173 0.2040856076781014 0  0.5290511287473298 0.2040749161535501 0  0.4991779197988497 0.2040749161535382 0  0.3347912413592433 0.1959225448935183 0  0.3199680582793816 0.1959123018030061 0  0.2825051229162361 0.1959834479681729 0  0.3590471196690275 0.2036304442587945 0  0.5571594006495384 0.1963685282145804 0  0.3067669986803285 0.203627750582736 0  0.4262598344738712 0.2036568242185335 0  0.5814408164431408 0.2041285596160068 0  0.5688286748170428 0.1961819304477386 0  0.4145905603063645 0.2038180695522843 0  0.3473758401724931 0.2038180695522752 0  0.2950977245128307 0.2038180695522663 0  0.5688286748170693 0.203818069552238 0  0.2950977245127906 0.1961819304477774 0  0.3473758401723931 0.1961819304478349 0  0.4145905603061963 0.1961819304479011 0  0.2601812407614425 0.2056861609747042
[...]
<PointData  Vectors="f_46-0"> 
<DataArray  type="Float64"  Name="f_46-0"  NumberOfComponents="3" format="ascii">0.0000000000000000e+00 0.0000000000000000e+00 0.0000000000000000e+00  0.0000000000000000e+00 0.0000000000000000e+00 0.0000000000000000e+00  0.0000000000000000e+00 0.0000000000000000e+00 0.0000000000000000e+00  0.0000000000000000e+00 0.0000000000000000e+00 0.0000000000000000e+00  1.3928897874286727e-05 5.9316930662504735e-04 0.0000000000000000e+00  -2.5769869985722487e-05 5.9325398982053637e-04 0.0000000000000000e+00  0.0000000000000000e+00 0.0000000000000000e+00 0.0000000000000000e+00  0.0000000000000000e+00 0.0000000000000000e+00 0.0000000000000000e+00  0.0000000000000000e+00 0.0000000000000000e+00 0.0000000000000000e+00  0.0000000000000000e+00 0.0000000000000000e+00 0.0000000000000000e+00  -5.9116356905353527e-06 5.9321384787200360e-04 0.0000000000000000e+00  7.9591836734548407e-02 0.0000000000000000e+00 0.0000000000000000e+00  1.4693877550994527e-01 0.0000000000000000e+00 0.0000000000000000e+00  2.0204081632617479e-01 0.0000000000000000e+00 0.0000000000000000e+00  2.4489795918330073e-01 0.0000000000000000e+00 0.0000000000000000e+00  2.7551020408131754e-01 0.0000000000000000e+00 0.0000000000000000e+00  2.9387755102022350e-01 0.0000000000000000e+00 0.0000000000000000e+00  3.0000000000000004e-01 0.0000000000000000e+00 0.0000000000000000e+00  2.9387755102059482e-01 0.0000000000000000e+00 0.0000000000000000e+00  2.7551020408195548e-01 0.0000000000000000e+00 0.0000000000000000e+00  2.4489795918409071e-01 0.0000000000000000e+00 0.0000000000000000e+00  2.0204081632692522e-01 0.0000000000000000e+00 0.0000000000000000e+00  1.4693877551058568e-01 0.0000000000000000e+00 0.0000000000000000e+00  7.9591836734909216e-02 0.0000000000000000e+00 0.0000000000000000e+00  0.0000000000000000e+00 0.0000000000000000e+00 0.0000000000000000e+00  0.0000000000000000e+00 0.0000000000000000e+00 0.0000000000000000e+00  0.0000000000000000e+00 0.0000000000000000e+00 0.0000000000000000e+00  0.0000000000000000e+00 0.0000000000000000e+00 0.0000000000000000e+00  0.0000000000000000e+00 0.0000000000000000e+00 0.0000000000000000e+00  0.0000000000000000e+00 0.0000000000000000e+00 0.0000000000000000e+00  0.0000000000000000e+00 0.0000000000000000e+00 0.0000000000000000e+00  0.0000000000000000e+00 0.0000000000000000e+00 0.0000000000000000e+00  0.0000000000000000e+00 0.0000000000000000e+00 0.0000000000000000e+00  0.0000000000000000e+00 0.0000000000000000e+00 0.0000000000000000e+00  0.0000000000000000e+00 0.0000000000000000e+00 0.0000000000000000e+00  0.0000000000000000e+00 0.0000000000000000e+00 0.0000000000000000e+00  0.0000000000000000e+00 0.0000000000000000e+00 0.0000000000000000e+00  0.0000000000000000e+00 0.0000000000000000e+00 0.0000000000000000e+00  0.0000000000000000e+00 0.0000000000000000e+00 0.0000000000000000e+00  0.0000000000000000e+00 0.0000000000000000e+00 0.0000000000000000e+00  0.0000000000000000e+00 0.0000000000000000e+00 0.0000000000000000e+00  0.0000000000000000e+00 0.0000000000000000e+00 0.0000000000000000e+00  0.0000000000000000e+00 0.0000000000000000e+00 0.0000000000000000e+00  0.0000000000000000e+00 0.0000000000000000e+00 0.0000000000000000e+00  0.0000000000000000e+00 0.0000000000000000e+00 0.0000000000000000e+00  0.0000000000000000e+00 0.0000000000000000e+00 0.0000000000000000e+00  0.0000000000000000e+00 0.0000000000000000e+00 0.0000000000000000e+00  0.0000000000000000e+00 0.0000000000000000e+00 0.0000000000000000e+00  0.0000000000000000e+00 0.0000000000000000e+00 0.0000000000000000e+00  0.0000000000000000e+00 0.0000000000000000e+00 0.0000000000000000e+00  0.0000000000000000e+00 0.0000000000000000e+00 0.0000000000000000e+00  0.0000000000000000e+00 0.0000000000000000e+00 0.0000000000000000e+00  0.0000000000000000e+00 0.0000000000000000e+00 0.0000000000000000e+00  0.0000000000000000e+00 0.0000000000000000e+00 0.0000000000000000e+00  0.0000000000000000e+00 0.0000000000000000e+00 0.0000000000000000e+00  0.0000000000000000e+00 0.0000000000000000e+00 0.0000000000000000e+00  0.0000000000000000e+00 0.0000000000000000e+00 0.0000000000000000e+00  0.0000000000000000e+00 0.0000000000000000e+00 0.0000000000000000e+00  0.0000000000000000e+00 0.0000000000000000e+00 0.0000000000000000e+00  0.0000000000000000e+00 0.0000000000000000e+00 0.0000000000000000e+00  0.0000000000000000e+00 0.0000000000000000e+00 0.0000000000000000e+00  0.0000000000000000e+00 0.0000000000000000e+00 0.0000000000000000e+00  2.5451668956859042e-01 3.4460365615233165e-03 0.0000000000000000e+00  2.8905434334536262e-01 8.8909046615221875e-03 0.0000000000000000e+00  2.5234662436559513e-01 -9.5184431950734675e-03 0.0000000000000000e+00  0.0000000000000000e+00 0.0000000000000000e+00 0.0000000000000000e+00  0.0000000000000000e+00 0.0000000000000000e+00 0.0000000000000000e+00  0.0000000000000000e+00 0.0000000000000000e+00 0.0000000000000000e+00  0.0000000000000000e+00 0.0000000000000000e+00 0.0000000000000000e+00  0.0000000000000000e+00 0.0000000000000000e+00 0.0000000000000000e+00  0.0000000000000000e+00 0.0000000000000000e+00 0.0000000000000000e+00  0.0000000000000000e+00 0.0000000000000000e+00 0.0000000000000000e+00  0.0000000000000000e+00 0.0000000000000000e+00 0.0000000000000000e+00  0.0000000000000000e+00 0.0000000000000000e+00 0.0000000000000000e+00  0.0000000000000000e+00 0.0000000000000000e+00 0.0000000000000000e+00  0.0000000000000000e+00 0.0000000000000000e+00 0.0000000000000000e+00  0.0000000000000000e+00 0.0000000000000000e+00 0.0000000000000000e+00  0.0000000000000000e+00 0.0000000000000000e+00 0.0000000000000000e+00  0.0000000000000000e+00 0.0000000000000000e+00 0.0000000000000000e+00  0.0000000000000000e+00 0.0000000000000000e+00 0.0000000000000000e+00  0.0000000000000000e+00 0.0000000000000000e+00 0.0000000000000000e+00  0.0000000000000000e+00 0.0000000000000000e+00 0.0000000000000000e+00  0.0000000000000000e+00 0.0000000000000000e+00 0.0000000000000000e+00  0.0000000000000000e+00 0.0000000000000000e+00 0.0000000000000000e+00  0.0000000000000000e+00 0.0000000000000000e+00 0.0000000000000000e+00  0.0000000000000000e+00 0.0000000000000000e+00 0.0000000000000000e+00  0.0000000000000000e+00 0.0000000000000000e+00 0.0000000000000000e+00  0.0000000000000000e+00 0.0000000000000000e+00 0.0000000000000000e+00  0.0000000000000000e+00 0.0000000000000000e+00 0.0000000000000000e+00  0.0000000000000000e+00 0.0000000000000000e+00 0.0000000000000000e+00  0.0000000000000000e+00 0.0000000000000000e+00 0.0000000000000000e+00  0.0000000000000000e+00 0.0000000000000000e+00 0.0000000000000000e+00  0.0000000000000000e+00 0.0000000000000000e+00 0.0000000000000000e+00  0.0000000000000000e+00 0.0000000000000000e+00 0.0000000000000000e+00  0.0000000000000000e+00 0.0000000000000000e+00 0.0000000000000000e+00  0.0000000000000000e+00 0.0000000000000000e+00 0.0000000000000000e+00  0.0000000000000000e+00 0.0000000000000000e+00 0.0000000000000000e+00  0.0000000000000000e+00 0.0000000000000000e+00 0.0000000000000000e+00  0.0000000000000000e+00 0.0000000000000000e+00 0.0000000000000000e+00  0.0000000000000000e+00 0.0000000000000000e+00 0.0000000000000000e+00  0.0000000000000000e+00 0.0000000000000000e+00 0.0000000000000000e+00  0.0000000000000000e+00 0.0000000000000000e+00 0.0000000000000000e+00  0.0000000000000000e+00 0.0000000000000000e+00 0.0000000000000000e+00  0.0000000000000000e+00 0.0000000000000000e+00 0.0000000000000000e+00  0.0000000000000000e+00 0.0000000000000000e+00 0.0000000000000000e+00  1.1969496953446603e-12 0.0000000000000000e+00 0.0000000000000000e+00  0.0000000000000000e+00 0.0000000000000000e+00 0.0000000000000000e+00  0.0000000000000000e+00 0.0000000000000000e+00 0.0000000000000000e+00  0.0000000000000000e+00 0.0000000000000000e+00 0.0000000000000000e+00  0.0000000000000000e+00 0.0000000000000000e+00 0.0000000000000000e+00  0.0000000000000000e+00 0.0000000000000000e+00 0.0000000000000000e+00  0.0000000000000000e+00 0.0000000000000000e+00 0.0000000000000000e+00  0.0000000000000000e+00 0.0000000000000000e+00 0.0000000000000000e+00  0.0000000000000000e+00 0.0000000000000000e+00 0.0000000000000000e+00  0.0000000000000000e+00 0.0000000000000000e+00 0.0000000000000000e+00  0.0000000000000000e+00 0.0000000000000000e+00 0.0000000000000000e+00  0.0000000000000000e+00 0.0000000000000000e+00 0.0000000000000000e+00  0.0000000000000000e+00 0.0000000000000000e+00 0.0000000000000000e+00  0.0000000000000000e+00 0.0000000000000000e+00 0.0000000000000000e+00  0.0000000000000000e+00 0.0000000000000000e+00 0.0000000000000000e+00  0.0000000000000000e+00 0.0000000000000000e+00 0.0000000000000000e+00  0.0000000000000000e+00 0.0000000000000000e+00 0.0000000000000000e+00  0.0000000000000000e+00 0.0000000000000000e+00 0.0000000000000000e+00  0.0000000000000000e+00 0.0000000000000000e+00 0.0000000000000000e+00  0.0000000000000000e+00 0.0000000000000000e+00 0.0000000000000000e+00  0.0000000000000000e+00 0.0000000000000000e+00 0.0000000000000000e+00  0.0000000000000000e+00 0.0000000000000000e+00 0.0000000000000000e+00  0.0000000000000000e+00 0.0000000000000000e+00 0.0000000000000000e+00  0.0000000000000000e+00 0.0000000000000000e+00 0.0000000000000000e+00  0.0000000000000000e+00 0.0000000000000000e+00 0.0000000000000000e+00  0.0000000000000000e+00 0.0000000000000000e+00 0.0000000000000000e+00  0.0000000000000000e+00 0.0000000000000000e+00 0.0000000000000000e+00  0.0000000000000000e+00 0.0000000000000000e+00 0.0000000000000000e+00  0.0000000000000000e+00 0.0000000000000000e+00 0.0000000000000000e+00  0.0000000000000000e+00 0.0000000000000000e+00 0.0000000000000000e+00  0.0000000000000000e+00 0.0000000000000000e+00 0.0000000000000000e+00  0.0000000000000000e+00 0.0000000000000000e+00 0.0000000000000000e+00  0.0000000000000000e+00 0.0000000000000000e+00 0.0000000000000000e+00  0.0000000000000000e+00 0.0000000000000000e+00 0.0000000000000000e+00  0.0000000000000000e+00 0.0000000000000000e+00 0.0000000000000000e+00  0.0000000000000000e+00 0.0000000000000000e+00 0.0000000000000000e+00  0.0000000000000000e+00 0.0000000000000000e+00 0.0000000000000000e+00  0.0000000000000000e+00 0.0000000000000000e+00 0.0000000000000000e+00  -1.8685833435983449e-06 1.6280870658720625e-06 0.0000000000000000e+00  -3.9305259289553616e-06 3.7219715299929205e-06 0.0000000000000000e+00  -5.7327017437294566e-06 7.0489870756913945e-06 0.0000000000000000e+00  -7.6271251158646080e-06 1.1672833366736116e-05 0.0000000000000000e+00  -9.1989942422128640e-06 1.7333087664598238e-05 0.0000000000000000e+00  -1.0914703947361739e-05 2.4114322544306954e-05 0.0000000000000000e+00  -1.2293964519322662e-05 3.1693209892457232e-05 0.0000000000000000e+00  -1.3602605957543304e-05 4.0294916392825132e-05 0.0000000000000000e+00  -1.5042203792487786e-05 4.9644684081257929e-05 0.0000000000000000e+00  -1.6145387136081427e-05 5.9740794617750479e-05 0.0000000000000000e+00  -1.7412347946177199e-05 7.0552931388207849e-05 0.0000000000000000e+00  -1.8374202840280302e-05 8.1980859855212840e-05 0.0000000000000000e+00  -1.9434935606212724e-05 9.3988484013862798e-05 0.0000000000000000e+00  -2.0281235257890586e-05 1.0643602224504657e-04 0.0000000000000000e+00  -2.1069054219401742e-05 1.1940339029095802e-04 0.0000000000000000e+00  -2.1895211323538122e-05 1.3273890959094862e-04 0.0000000000000000e+00  -2.2527876203386603e-05 1.4641881396008458e-04 0.0000000000000000e+00  -2.3202425027742726e-05 1.6042918076938524e-04 0.0000000000000000e+00  -2.3711404045701048e-05 1.7468213123543922e-04 0.0000000000000000e+00  -2.4234444613615949e-05 1.8917241588388694e-04 0.0000000000000000e+00  -2.4642025665111535e-05 2.0383525850926280e-04 0.0000000000000000e+00  -2.5023925109626485e-05 2.1866548664736885e-04 0.0000000000000000e+00  -2.5325511557542263e-05 2.3359107436432007e-04 0.0000000000000000e+00  -2.5579012075357326e-05 2.4862221417911676e-04 0.0000000000000000e+00  -2.5808509180092513e-05 2.6371472540852206e-04 0.0000000000000000e+00  -2.5976067171689580e-05 2.7884564852752200e-04 0.0000000000000000e+00  -2.6107033971151422e-05 2.9401877604407444e-04 0.0000000000000000e+00  -2.6201028161550574e-05 3.0918241205396481e-04 0.0000000000000000e+00  -2.6262824914533380e-05 3.2435793625928955e-04 0.0000000000000000e+00  -2.6300280783490783e-05 3.3950557821735256e-04 0.0000000000000000e+00  -2.6311927260199368e-05 3.5464247327389285e-04 0.0000000000000000e+00  -2.6308740381675039e-05 3.6974064339369013e-04 0.0000000000000000e+00  -2.6287318237804236e-05 3.8481524505028285e-04 0.0000000000000000e+00  -2.6256944427775965e-05 3.9984872975281521e-04 0.0000000000000000e+00  -2.6215459631688333e-05 4.1485389846503346e-04 0.0000000000000000e+00  -2.6173049255718192e-05 4.2982275385902604e-04 0.0000000000000000e+00  -2.6124545488274097e-05 4.4476349977205592e-04 0.0000000000000000e+00  -2.6078678773808729e-05 4.5967519549966961e-04 0.0000000000000000e+00  -2.6030102910826131e-05 4.7456359076855750e-04 0.0000000000000000e+00  -2.5986910177985181e-05 4.8943234120443833e-04 0.0000000000000000e+00  -2.5943797209642127e-05 5.0428245504826545e-04 0.0000000000000000e+00  -2.5907049817423693e-05 5.1912301576944795e-04 0.0000000000000000e+00  -2.5873865107241707e-05 5.3395355260473800e-04 0.0000000000000000e+00  -2.5842042422196131e-05 5.4877997529277026e-04 0.0000000000000000e+00  -2.5814719221449240e-05 5.6360332506249188e-04 0.0000000000000000e+00  -2.5790482957287080e-05 5.7842648221844881e-04 0.0000000000000000e+00  -1.5837899272255387e-05 5.9323441700496516e-04 0.0000000000000000e+00  4.0112041450252542e-06 5.9319308391385427e-04 0.0000000000000000e+00  1.3910186877542098e-05 5.7835330756663935e-04 0.0000000000000000e+00  1.3889243981257625e-05 5.6353125171579603e-04 0.0000000000000000e+00  1.3869135557704265e-05 5.4870758414944187e-04 0.0000000000000000e+00  1.3854020578145345e-05 5.3388092843671112e-04 0.0000000000000000e+00  1.3841029595928523e-05 5.1904938091562386e-04 0.0000000000000000e+00  1.3833286157728482e-05 5.0420660545880569e-04 0.0000000000000000e+00  1.3834504666809456e-05 4.8935221778634069e-04 0.0000000000000000e+00  1.3838447651361126e-05 4.7447800013713311e-04 0.0000000000000000e+00  1.3856443567288039e-05 4.5958493175251089e-04 0.0000000000000000e+00  1.3874616079157621e-05 4.4466206349319217e-04 0.0000000000000000e+00  1.3909189259724517e-05 4.2971376695512985e-04 0.0000000000000000e+00  1.3943592930218831e-05 4.1472737499746834e-04 0.0000000000000000e+00  1.3996560642024546e-05 3.9971136686177384e-04 0.0000000000000000e+00  1.4047851372987056e-05 3.8465344811558245e-04 0.0000000000000000e+00  1.4115596200992270e-05 3.6956499007654155e-04 0.0000000000000000e+00  1.4180673942522543e-05 3.5443650612764074e-04 0.0000000000000000e+00  1.4256935797987556e-05 3.3928308475610725e-04 0.0000000000000000e+00  1.4331633253205491e-05 3.2409863140821688e-04 0.0000000000000000e+00  1.4409549523156360e-05 3.0890426683432014e-04 0.0000000000000000e+00  1.4487253151582435e-05 2.9369950329995122e-04 0.0000000000000000e+00  1.4553132964802411e-05 2.7850825374016133e-04 0.0000000000000000e+00  1.4622959869143660e-05 2.6333780299508838e-04 0.0000000000000000e+00  1.4663800178024343e-05 2.4821648220762246e-04 0.0000000000000000e+00  1.4706767604565920e-05 2.3315472436755822e-04 0.0000000000000000e+00  1.4734832819621788e-05 2.1820349537471660e-04 0.0000000000000000e+00  1.4710014082865638e-05 2.0334621889969042e-04 0.0000000000000000e+00  1.4679820467557372e-05 1.8866085938186718e-04 0.0000000000000000e+00  1.4592947545667494e-05 1.7414873825361102e-04 0.0000000000000000e+00  1.4490785851011055e-05 1.5987903822603037e-04 0.0000000000000000e+00  1.4316577347721511e-05 1.4585957054659294e-04 0.0000000000000000e+00  1.4123287311375112e-05 1.3215365560676428e-04 0.0000000000000000e+00  1.3795678522501817e-05 1.1883919668007443e-04 0.0000000000000000e+00  1.3510975003341118e-05 1.0586629951997729e-04 0.0000000000000000e+00  1.3170103458102834e-05 9.3429189960759216e-05 0.0000000000000000e+00  1.2651399912317909e-05 8.1392051977102604e-05 0.0000000000000000e+00  1.2132865457798602e-05 6.9996205347122050e-05 0.0000000000000000e+00  1.1471824678388930e-05 5.9186874270038769e-05 0.0000000000000000e+00  1.0797845632682956e-05 4.9073921117927141e-05 0.0000000000000000e+00  9.8782993675632734e-06 3.9781716032641400e-05 0.0000000000000000e+00  9.0702798097039895e-06 3.1179338017027834e-05 0.0000000000000000e+00  8.1864524330475872e-06 2.3613502282215615e-05 0.0000000000000000e+00  6.9866235874095060e-06 1.6811187792110925e-05 0.0000000000000000e+00  5.8578519432157902e-06 1.1140533717761875e-05 0.0000000000000000e+00  4.4278916796644630e-06 6.5797532991366402e-06 0.0000000000000000e+00  3.1210117990420844e-06 3.2460742510621070e-06 0.0000000000000000e+00  1.4853194059300085e-06 1.1689586010783290e-06 0.0000000000000000e+00  -2.8956592011928923e-07 1.5271465174048708e-06 0.0000000000000000e+00  -6.2010832179555457e-06 5.7094614817475753e-04 0.0000000000000000e+00  -6.4010202316459876e-06 5.4261880993041877e-04 0.0000000000000000e+00  -6.2878784472248066e-06 4.9630040391912241e-04 0.0000000000000000e+00  -7.5212789507988583e-07 8.2022070258752048e-06 0.0000000000000000e+00  -6.0993153123300462e-06 4.6709310323818511e-04 0.0000000000000000e+00  -1.1101756329088021e-06 1.9105652065695694e-05 0.0000000000000000e+00  -6.1222320135746826e-06 4.3726264869293081e-04 0.0000000000000000e+00  -1.8248261755880690e-06 4.4460082257231508e-05 0.0000000000000000e+00  -2.4874628803050283e-06 6.4360345037065000e-05 0.0000000000000000e+00  -6.1242161619784088e-06 4.0731037848542516e-04 0.0000000000000000e+00  -3.5176827453073317e-06 1.2603936331485221e-04 0.0000000000000000e+00  -6.0285023254687377e-06 3.4698356375130126e-04 0.0000000000000000e+00  -2.7703001000502794e-06 8.6284509403982703e-05 0.0000000000000000e+00  -4.2168207180950752e-06 1.5292085082221966e-04 0.0000000000000000e+00  -5.9125198763311249e-06 3.1663937631403404e-04 0.0000000000000000e+00  -6.0960117580682855e-06 3.7721707485644152e-04 0.0000000000000000e+00  -4.6516553498479067e-06 1.8150022468486589e-04 0.0000000000000000e+00  -5.7396896666031364e-06 2.8625028721355854e-04 0.0000000000000000e+00  -4.7661927256087109e-06 2.0969334988939805e-04 0.0000000000000000e+00  -5.7700401522032208e-06 2.5655146231442735e-04 0.0000000000000000e+00  -5.2642951075060775e-06 2.3209378978465711e-04 0.0000000000000000e+00  -3.3829973280110623e-06 1.0481757525210848e-04 0.0000000000000000e+00  -5.9922600689931019e-06 5.2038956320916594e-04 0.0000000000000000e+00  -1.5805318712970268e-06 3.0343598617318896e-05 0.0000000000000000e+00  6.6995590445821715e-07 5.5666856187277559e-04 0.0000000000000000e+00  1.0366118806019375e-06 4.2386834487148076e-06 0.0000000000000000e+00  -3.0044168818301845e-07 4.5217522035770509e-04 0.0000000000000000e+00  -2.8766279492885505e-07 4.8195759300657449e-04 0.0000000000000000e+00  -3.5910161935857231e-06 1.3543106901238161e-05 0.0000000000000000e+00  -6.1258112607931918e-06 5.4001745870514542e-05 0.0000000000000000e+00  -1.8492160954429655e-07 3.6208690632012216e-04 0.0000000000000000e+00  -2.9182462173714986e-07 4.2228346713495129e-04 0.0000000000000000e+00  -9.2832661010429025e-06 1.3914709425246022e-04 0.0000000000000000e+00  -7.7933995849698411e-08 3.3178606622653872e-04 0.0000000000000000e+00  -7.1269035561980432e-06 7.5650632937007028e-05 0.0000000000000000e+00  -9.9592142347694380e-06 1.6719201028913701e-04 0.0000000000000000e+00  6.8718353186677449e-08 3.0140253323381402e-04 0.0000000000000000e+00  -2.5501213856645496e-07 3.9225761742332939e-04 0.0000000000000000e+00  -1.1783049304713868e-05 1.9605945962834073e-04 0.0000000000000000e+00  2.5379553000092273e-07 2.7102265730128658e-04 0.0000000000000000e+00  -3.9725967340311672e-07 4.0651008245498368e-07 0.0000000000000000e+00  1.5814583620415265e-07 2.6896020306674174e-07 0.0000000000000000e+00  -1.0753308917527638e-05 5.8261174218680347e-04 0.0000000000000000e+00  -2.2355775004932581e-06 4.4348309372236880e-06 0.0000000000000000e+00  1.8180210770875448e-06 2.4414015415103165e-04 0.0000000000