<?xml version="1.0"?>
<VTKFile type="UnstructuredGrid"  version="0.1"  >
<UnstructuredGrid>
<Piece  NumberOfPoints="1419" NumberOfCells="2698">
<Points>
<DataArray  type="Float64"  NumberOfComponents="3"  format="ascii">0 0 0  0 0.41 0  2.5 0 0  2.5 0.41 0  0.6 0.19 0  0.6 0.21 0  0.25 0.2 0  0.15 0.2 0  0.2489897948556636 0.21 0  0.2489897948556636 0.19 0  0.6 0.2 0  0 0.3807142857143437 0  0 0.3514285714286952 0  0 0.3221428571430699 0  0 0.29285714285744 0  0 0.2635714285718054 0  0 0.2342857142861561 0  0 0.2050000000005308 0  0 0.175714285714732 0  0 0.1464285714289574 0  0 0.1171428571431897 0  0 0.08785714285737878 0  0 0.05857142857161107 0  0 0.02928571428580012 0  0.03015443760436003 0 0  0.06140001986583606 0 0  0.09377624077125973 0 0  0.1273239957535082 0 0  0.1620856860351972 0 0  0.1981052433264291 0 0  0.235428184091502 0 0  0.2741016576309132 0 0  0.3141745521465447 0 0  0.3556974926295285 0 0  0.3987229542472677 0 0  0.4433053055141081 0 0  0.4895008759286886 0 0  0.5373680609405097 0 0  0.5869673343216626 0 0  0.6383613676634521 0 0  0.6916151138468254 0 0  0.7467958595648856 0 0  0.8039733463919316 0 0  0.8632198139502143 0 0  0.9246101326867038 0 0  0.9882218810934433 0 0  1.054135445558498 0 0  1.122434100542598 0 0  1.193204177141305 0 0  1.266535089879536 0 0  1.342519516046404 0 0  1.421253448503939 0 0  1.502836389106271 0 0  1.587371439758838 0 0  1.674965418777374 0 0  1.765729001825544 0 0  1.859776908880082 0 0  1.957227977487062 0 0  2.058205329869943 0 0  2.162836591189951 0 0  2.271253957290865 0 0  2.383594446803425 0 0  2.5 0.1024999999997612 0  2.5 0.2049999999994743 0  2.5 0.3074999999997183 0  2.383594446803656 0.41 0  2.271253957291315 0.41 0  2.162836591190598 0.41 0  2.058205329870775 0.41 0  1.957227977488067 0.41 0  1.859776908881246 0.41 0  1.765729001826854 0.41 0  1.674965418778818 0.41 0  1.58737143976041 0.41 0  1.502836389107956 0.41 0  1.421253448505726 0.41 0  1.342519516048286 0.41 0  1.266535089881505 0.41 0  1.193204177143353 0.41 0  1.122434100544716 0.41 0  1.05413544556068 0.41 0  0.9882218810956305 0.41 0  0.9246101326886647 0.41 0  0.8632198139519631 0.41 0  0.8039733463934788 0.41 0  0.7467958595662458 0.41 0  0.6916151138480078 0.41 0  0.6383613676644679 0.41 0  0.5869673343225223 0.41 0  0.5373680609412221 0.41 0  0.4895008759292634 0.41 0  0.4433053055145528 0.41 0  0.3987229542475914 0.41 0  0.3556974926297398 0.41 0  0.3141745521466497 0.41 0  0.2741016576310038 0.41 0  0.2354281840915826 0.41 0  0.1981052433265003 0.41 0  0.1620856860352591 0.41 0  0.1273239957535623 0.41 0  0.09377624077128965 0.41 0  0.06140001986584975 0.41 0  0.03015443760436654 0.41 0  0.2497468076502589 0.2050254481002335 0  0.2497468076502614 0.1949745518997913 0  0.2469965252529372 0.1829317073451959 0  0.2439893735792749 0.1762316384219906 0  0.2400332147834255 0.1700443375285386 0  0.2352133972704371 0.1645032867342007 0  0.2296339016332438 0.1597280261969788 0  0.2234150974217223 0.1558215752574715 0  0.2166911463437691 0.1528682099456123 0  0.2096071079204251 0.1509316448471593 0  0.2023158100364996 0.1500536585536553 0  0.194974551899914 0.1502531923497262 0  0.1877417105387872 0.1515259415822739 0  0.1807733240461124 0.153844448527136 0  0.1742197252835808 0.15715869474974 0  0.1682222986673531 0.1613971801805478 0  0.162910430003803 0.1664684656256651 0  0.1583987151779087 0.1722631454351573 0  0.1547844879126891 0.178656207771761 0  0.1521457199348551 0.1855097315605723 0  0.1505393388476355 0.1926758619366523 0  0.1505393388476328 0.2073241380633295 0  0.1521457199348437 0.2144902684393899 0  0.1547844879126531 0.221343792228163 0  0.1583987151778488 0.2277368545647528 0  0.1629104300036858 0.2335315343742052 0  0.1682222986671726 0.2386028198193036 0  0.1742197252833576 0.2428413052501257 0  0.1807733240458683 0.2461555514727623 0  0.1877417105384929 0.2484740584176516 0  0.1949745518995776 0.2497468076502398 0  0.202315810036185 0.2499463414463592 0  0.2096071079201568 0.2490683551528932 0  0.2166911463435495 0.2471317900544655 0  0.2234150974215506 0.2441784247426195 0  0.2296339016331197 0.2402719738031125 0  0.2352133972703547 0.2354967132658811 0  0.2400332147833751 0.2299556624715287 0  0.2439893735792577 0.2237683615780412 0  0.246996525252926 0.2170682926548348 0  0.25645809709277 0.21 0  0.2639263993298655 0.21 0  0.271394701566961 0.21 0  0.2788630038040554 0.21 0  0.2863313060411479 0.21 0  0.2937996082782405 0.21 0  0.301267910515333 0.21 0  0.3087362127524279 0.21 0  0.3162045149895234 0.21 0  0.3236728172265972 0.21 0  0.3311411194636928 0.21 0  0.3386094217007701 0.21 0  0.3460777239378666 0.21 0  0.3535460261749672 0.21 0  0.3610143284120516 0.21 0  0.3684826306491596 0.21 0  0.3759509328862226 0.21 0  0.383419235123329 0.21 0  0.3908875373604028 0.21 0  0.3983558395975142 0.21 0  0.4058241418345938 0.21 0  0.4132924440716992 0.21 0  0.4207607463087888 0.21 0  0.4282290485459029 0.21 0  0.4356973507830418 0.21 0  0.4431656530201649 0.21 0  0.4506339552573136 0.21 0  0.4581022574944306 0.21 0  0.4655705597315852 0.21 0  0.4730388619686996 0.21 0  0.480507164205851 0.21 0  0.4879754664429498 0.21 0  0.4954437686800938 0.21 0  0.502912070917267 0.21 0  0.5103803731544119 0.21 0  0.5178486753915261 0.21 0  0.5253169776286404 0.21 0  0.5327852798657868 0.21 0  0.5402535821029386 0.21 0  0.54772188434007 0.21 0  0.5551901865771842 0.21 0  0.5626584888143201 0.21 0  0.5701267910514778 0.21 0  0.5775950932886138 0.21 0  0.5850633955257281 0.21 0  0.5925316977628483 0.21 0  0.6 0.2050000000000054 0  0.6 0.1950000000000217 0  0.5925316977628897 0.19 0  0.5850633955257988 0.19 0  0.5775950932887378 0.19 0  0.5701267910515998 0.19 0  0.5626584888145268 0.19 0  0.5551901865773963 0.19 0  0.547721884340339 0.19 0  0.5402535821032429 0.19 0  0.5327852798661811 0.19 0  0.5253169776290537 0.19 0  0.5178486753919799 0.19 0  0.5103803731549078 0.19 0  0.502912070917822 0.19 0  0.4954437686807294 0.19 0  0.4879754664436223 0.19 0  0.4805071642065402 0.19 0  0.4730388619694271 0.19 0  0.4655705597323621 0.19 0  0.4581022574952563 0.19 0  0.4506339552581777 0.19 0  0.4431656530210671 0.19 0  0.4356973507839815 0.19 0  0.4282290485468779 0.19 0  0.4207607463097617 0.19 0  0.4132924440726327 0.19 0  0.4058241418354857 0.19 0  0.3983558395983636 0.19 0  0.3908875373612097 0.19 0  0.3834192351240934 0.19 0  0.3759509328869369 0.19 0  0.3684826306498175 0.19 0  0.361014328412667 0.19 0  0.3535460261755617 0.19 0  0.3460777239384295 0.19 0  0.3386094217012945 0.19 0  0.3311411194641595 0.19 0  0.3236728172270245 0.19 0  0.3162045149898895 0.19 0  0.3087362127527544 0.19 0  0.3012679105156187 0.19 0  0.2937996082784807 0.19 0  0.2863313060413428 0.19 0  0.2788630038042048 0.19 0  0.2713947015670686 0.19 0  0.2639263993299336 0.19 0  0.2564580970927985 0.19 0  0.2607803159922026 0.2000727136295815 0  0.5887803774232762 0.2001272386983733 0  0.5745072403740523 0.2002044435018727 0  0.5511891430099709 0.2001122610077113 0  0.2751288526855082 0.20000000000002 0  0.5365194309847112 0.1999999999999436 0  0.2894621222999649 0.1998691686390484 0  0.5215828265105155 0.1999999999999228 0  0.3127789816668748 0.1998657885438805 0  0.3274069683451451 0.2000000000000796 0  0.5066462220363641 0.199999999999908 0  0.3650630746574081 0.199866017807523 0  0.476773013087985 0.1999999999998713 0  0.3417402379596385 0.1998691686391011 0  0.3796850840047755 0.200000000000134 0  0.4618364086138087 0.1999999999998546 0  0.4917096175621762 0.1999999999998808 0  0.3946216884789568 0.2000000000001512 0  0.446899804139621 0.1999999999998389 0  0.4089549580935208 0.1998691686391595 0  0.4322718174608562 0.200127451265745 0  0.4201487168029707 0.1999966199048527 0  0.3528922713220932 0.2000185703532356 0  0.5633122436674589 0.1999814296467508 0  0.3006558810093873 0.1999966199048318 0  0.5815926498168407 0.1966545283159175 0  0.2677053789419034 0.1964246479135325 0  0.5290511287476175 0.1970915826863981 0  0.5439877332217911 0.197091582686394 0  0.2825131256993216 0.2035478995978015 0  0.3199386661080599 0.202908417313604 0  0.4842413153250809 0.1970915826863873 0  0.5141145242734466 0.1970915826863843 0  0.3722167817676917 0.2029084173136195 0  0.4693047108508938 0.1970915826863783 0  0.3348752705822316 0.202908417313609 0  0.3871533862418661 0.2029084173136212 0  0.4543681063767183 0.1970915826863795 0  0.4991779197992749 0.1970915826863902 0  0.4020059614928624 0.203547899597858 0  0.4394315019025246 0.1970915826863714 0  0.2550657455369551 0.2034088125358657 0  0.2548908499171161 0.1966940311614271 0  0.5946539510196798 0.2024302972968126 0  0.267698176732111 0.2039977513680092 0  0.4261685417851465 0.196409292431739 0  0.3590076176283495 0.196411355804271 0  0.5571672426447437 0.2036011176410121 0  0.3066757059912147 0.1964092924317024 0  0.594380730180568 0.1966558399668133 0  0.4842413153245942 0.2040749161535287 0  0.4693047108503577 0.2040749161535231 0  0.3871533862424271 0.1959250838464788 0  0.372246743208829 0.1959123236376545 0  0.5141145242731028 0.2040749161535395 0  0.4543681063761134 0.2040749161535186 0  0.4019979587101454 0.1959834479682427 0  0.4394608940728603 0.2040870543693135 0  0.5439623148931173 0.2040856076781014 0  0.5290511287473298 0.2040749161535501 0  0.4991779197988497 0.2040749161535382 0  0.3347912413592433 0.1959225448935183 0  0.3199680582793816 0.1959123018030061 0  0.2825051229162361 0.1959834479681729 0  0.3590471196690275 0.2036304442587945 0  0.5571594006495384 0.1963685282145804 0  0.3067669986803285 0.203627750582736 0  0.4262598344738712 0.2036568242185335 0  0.5814408164431408 0.2041285596160068 0  0.5688286748170428 0.1961819304477386 0  0.4145905603063645 0.2038180695522843 0  0.3473758401724931 0.2038180695522752 0  0.2950977245128307 0.2038180695522663 0  0.5688286748170693 0.203818069552238 0  0.2950977245127906 0.1961819304477774 0  0.3473758401723931 0.1961819304478349 0  0.4145905603061963 0.1961819304479011 0  0.2601812407614425 0.2056861609747042
[...]
<PointData  Vectors="f_46-0"> 
<DataArray  type="Float64"  Name="f_46-0"  NumberOfComponents="3" format="ascii">0.0000000000000000e+00 0.0000000000000000e+00 0.0000000000000000e+00  0.0000000000000000e+00 0.0000000000000000e+00 0.0000000000000000e+00  0.0000000000000000e+00 0.0000000000000000e+00 0.0000000000000000e+00  0.0000000000000000e+00 0.0000000000000000e+00 0.0000000000000000e+00  -8.0861114930071249e-05 -3.7400381428930030e-04 0.0000000000000000e+00  -4.9831122138185014e-05 -3.7342772537411365e-04 0.0000000000000000e+00  0.0000000000000000e+00 0.0000000000000000e+00 0.0000000000000000e+00  0.0000000000000000e+00 0.0000000000000000e+00 0.0000000000000000e+00  0.0000000000000000e+00 0.0000000000000000e+00 0.0000000000000000e+00  0.0000000000000000e+00 0.0000000000000000e+00 0.0000000000000000e+00  -6.5093231843774927e-05 -3.7371233783207650e-04 0.0000000000000000e+00  7.9591836734548407e-02 0.0000000000000000e+00 0.0000000000000000e+00  1.4693877550994527e-01 0.0000000000000000e+00 0.0000000000000000e+00  2.0204081632617479e-01 0.0000000000000000e+00 0.0000000000000000e+00  2.4489795918330076e-01 0.0000000000000000e+00 0.0000000000000000e+00  2.7551020408131754e-01 0.0000000000000000e+00 0.0000000000000000e+00  2.9387755102022350e-01 0.0000000000000000e+00 0.0000000000000000e+00  3.0000000000000004e-01 0.0000000000000000e+00 0.0000000000000000e+00  2.9387755102059482e-01 0.0000000000000000e+00 0.0000000000000000e+00  2.7551020408195548e-01 0.0000000000000000e+00 0.0000000000000000e+00  2.4489795918409074e-01 0.0000000000000000e+00 0.0000000000000000e+00  2.0204081632692525e-01 0.0000000000000000e+00 0.0000000000000000e+00  1.4693877551058568e-01 0.0000000000000000e+00 0.0000000000000000e+00  7.9591836734909230e-02 0.0000000000000000e+00 0.0000000000000000e+00  0.0000000000000000e+00 0.0000000000000000e+00 0.0000000000000000e+00  0.0000000000000000e+00 0.0000000000000000e+00 0.0000000000000000e+00  0.0000000000000000e+00 0.0000000000000000e+00 0.0000000000000000e+00  0.0000000000000000e+00 0.0000000000000000e+00 0.0000000000000000e+00  0.0000000000000000e+00 0.0000000000000000e+00 0.0000000000000000e+00  0.0000000000000000e+00 0.0000000000000000e+00 0.0000000000000000e+00  0.0000000000000000e+00 0.0000000000000000e+00 0.0000000000000000e+00  0.0000000000000000e+00 0.0000000000000000e+00 0.0000000000000000e+00  0.0000000000000000e+00 0.0000000000000000e+00 0.0000000000000000e+00  0.0000000000000000e+00 0.0000000000000000e+00 0.0000000000000000e+00  0.0000000000000000e+00 0.0000000000000000e+00 0.0000000000000000e+00  0.0000000000000000e+00 0.0000000000000000e+00 0.0000000000000000e+00  0.0000000000000000e+00 0.0000000000000000e+00 0.0000000000000000e+00  0.0000000000000000e+00 0.0000000000000000e+00 0.0000000000000000e+00  0.0000000000000000e+00 0.0000000000000000e+00 0.0000000000000000e+00  0.0000000000000000e+00 0.0000000000000000e+00 0.0000000000000000e+00  0.0000000000000000e+00 0.0000000000000000e+00 0.0000000000000000e+00  0.0000000000000000e+00 0.0000000000000000e+00 0.0000000000000000e+00  0.0000000000000000e+00 0.0000000000000000e+00 0.0000000000000000e+00  0.0000000000000000e+00 0.0000000000000000e+00 0.0000000000000000e+00  0.0000000000000000e+00 0.0000000000000000e+00 0.0000000000000000e+00  0.0000000000000000e+00 0.0000000000000000e+00 0.0000000000000000e+00  0.0000000000000000e+00 0.0000000000000000e+00 0.0000000000000000e+00  0.0000000000000000e+00 0.0000000000000000e+00 0.0000000000000000e+00  0.0000000000000000e+00 0.0000000000000000e+00 0.0000000000000000e+00  0.0000000000000000e+00 0.0000000000000000e+00 0.0000000000000000e+00  0.0000000000000000e+00 0.0000000000000000e+00 0.0000000000000000e+00  0.0000000000000000e+00 0.0000000000000000e+00 0.0000000000000000e+00  0.0000000000000000e+00 0.0000000000000000e+00 0.0000000000000000e+00  0.0000000000000000e+00 0.0000000000000000e+00 0.0000000000000000e+00  0.0000000000000000e+00 0.0000000000000000e+00 0.0000000000000000e+00  0.0000000000000000e+00 0.0000000000000000e+00 0.0000000000000000e+00  0.0000000000000000e+00 0.0000000000000000e+00 0.0000000000000000e+00  0.0000000000000000e+00 0.0000000000000000e+00 0.0000000000000000e+00  0.0000000000000000e+00 0.0000000000000000e+00 0.0000000000000000e+00  0.0000000000000000e+00 0.0000000000000000e+00 0.0000000000000000e+00  0.0000000000000000e+00 0.0000000000000000e+00 0.0000000000000000e+00  0.0000000000000000e+00 0.0000000000000000e+00 0.0000000000000000e+00  2.7152720437824818e-01 9.7434178542733282e-03 0.0000000000000000e+00  2.4532038179536814e-01 4.3153455464362356e-03 0.0000000000000000e+00  2.7907756819351071e-01 -2.0635299959534642e-02 0.0000000000000000e+00  0.0000000000000000e+00 0.0000000000000000e+00 0.0000000000000000e+00  0.0000000000000000e+00 0.0000000000000000e+00 0.0000000000000000e+00  0.0000000000000000e+00 0.0000000000000000e+00 0.0000000000000000e+00  0.0000000000000000e+00 0.0000000000000000e+00 0.0000000000000000e+00  0.0000000000000000e+00 0.0000000000000000e+00 0.0000000000000000e+00  0.0000000000000000e+00 0.0000000000000000e+00 0.0000000000000000e+00  0.0000000000000000e+00 0.0000000000000000e+00 0.0000000000000000e+00  0.0000000000000000e+00 0.0000000000000000e+00 0.0000000000000000e+00  0.0000000000000000e+00 0.0000000000000000e+00 0.0000000000000000e+00  0.0000000000000000e+00 0.0000000000000000e+00 0.0000000000000000e+00  0.0000000000000000e+00 0.0000000000000000e+00 0.0000000000000000e+00  0.0000000000000000e+00 0.0000000000000000e+00 0.0000000000000000e+00  0.0000000000000000e+00 0.0000000000000000e+00 0.0000000000000000e+00  0.0000000000000000e+00 0.0000000000000000e+00 0.0000000000000000e+00  0.0000000000000000e+00 0.0000000000000000e+00 0.0000000000000000e+00  0.0000000000000000e+00 0.0000000000000000e+00 0.0000000000000000e+00  0.0000000000000000e+00 0.0000000000000000e+00 0.0000000000000000e+00  0.0000000000000000e+00 0.0000000000000000e+00 0.0000000000000000e+00  0.0000000000000000e+00 0.0000000000000000e+00 0.0000000000000000e+00  0.0000000000000000e+00 0.0000000000000000e+00 0.0000000000000000e+00  0.0000000000000000e+00 0.0000000000000000e+00 0.0000000000000000e+00  0.0000000000000000e+00 0.0000000000000000e+00 0.0000000000000000e+00  0.0000000000000000e+00 0.0000000000000000e+00 0.0000000000000000e+00  0.0000000000000000e+00 0.0000000000000000e+00 0.0000000000000000e+00  0.0000000000000000e+00 0.0000000000000000e+00 0.0000000000000000e+00  0.0000000000000000e+00 0.0000000000000000e+00 0.0000000000000000e+00  0.0000000000000000e+00 0.0000000000000000e+00 0.0000000000000000e+00  0.0000000000000000e+00 0.0000000000000000e+00 0.0000000000000000e+00  0.0000000000000000e+00 0.0000000000000000e+00 0.0000000000000000e+00  0.0000000000000000e+00 0.0000000000000000e+00 0.0000000000000000e+00  0.0000000000000000e+00 0.0000000000000000e+00 0.0000000000000000e+00  0.0000000000000000e+00 0.0000000000000000e+00 0.0000000000000000e+00  0.0000000000000000e+00 0.0000000000000000e+00 0.0000000000000000e+00  0.0000000000000000e+00 0.0000000000000000e+00 0.0000000000000000e+00  0.0000000000000000e+00 0.0000000000000000e+00 0.0000000000000000e+00  0.0000000000000000e+00 0.0000000000000000e+00 0.0000000000000000e+00  0.0000000000000000e+00 0.0000000000000000e+00 0.0000000000000000e+00  0.0000000000000000e+00 0.0000000000000000e+00 0.0000000000000000e+00  0.0000000000000000e+00 0.0000000000000000e+00 0.0000000000000000e+00  0.0000000000000000e+00 0.0000000000000000e+00 0.0000000000000000e+00  -1.4492927843401018e-16 0.0000000000000000e+00 0.0000000000000000e+00  0.0000000000000000e+00 0.0000000000000000e+00 0.0000000000000000e+00  0.0000000000000000e+00 0.0000000000000000e+00 0.0000000000000000e+00  0.0000000000000000e+00 0.0000000000000000e+00 0.0000000000000000e+00  0.0000000000000000e+00 0.0000000000000000e+00 0.0000000000000000e+00  5.7945354681987803e-13 0.0000000000000000e+00 0.0000000000000000e+00  0.0000000000000000e+00 0.0000000000000000e+00 0.0000000000000000e+00  0.0000000000000000e+00 0.0000000000000000e+00 0.0000000000000000e+00  0.0000000000000000e+00 0.0000000000000000e+00 0.0000000000000000e+00  0.0000000000000000e+00 0.0000000000000000e+00 0.0000000000000000e+00  0.0000000000000000e+00 0.0000000000000000e+00 0.0000000000000000e+00  0.0000000000000000e+00 0.0000000000000000e+00 0.0000000000000000e+00  0.0000000000000000e+00 0.0000000000000000e+00 0.0000000000000000e+00  0.0000000000000000e+00 0.0000000000000000e+00 0.0000000000000000e+00  0.0000000000000000e+00 0.0000000000000000e+00 0.0000000000000000e+00  0.0000000000000000e+00 0.0000000000000000e+00 0.0000000000000000e+00  0.0000000000000000e+00 0.0000000000000000e+00 0.0000000000000000e+00  0.0000000000000000e+00 0.0000000000000000e+00 0.0000000000000000e+00  0.0000000000000000e+00 0.0000000000000000e+00 0.0000000000000000e+00  0.0000000000000000e+00 0.0000000000000000e+00 0.0000000000000000e+00  0.0000000000000000e+00 0.0000000000000000e+00 0.0000000000000000e+00  0.0000000000000000e+00 0.0000000000000000e+00 0.0000000000000000e+00  0.0000000000000000e+00 0.0000000000000000e+00 0.0000000000000000e+00  0.0000000000000000e+00 0.0000000000000000e+00 0.0000000000000000e+00  0.0000000000000000e+00 0.0000000000000000e+00 0.0000000000000000e+00  0.0000000000000000e+00 0.0000000000000000e+00 0.0000000000000000e+00  0.0000000000000000e+00 0.0000000000000000e+00 0.0000000000000000e+00  0.0000000000000000e+00 0.0000000000000000e+00 0.0000000000000000e+00  0.0000000000000000e+00 0.0000000000000000e+00 0.0000000000000000e+00  0.0000000000000000e+00 0.0000000000000000e+00 0.0000000000000000e+00  0.0000000000000000e+00 0.0000000000000000e+00 0.0000000000000000e+00  0.0000000000000000e+00 0.0000000000000000e+00 0.0000000000000000e+00  0.0000000000000000e+00 0.0000000000000000e+00 0.0000000000000000e+00  0.0000000000000000e+00 0.0000000000000000e+00 0.0000000000000000e+00  0.0000000000000000e+00 0.0000000000000000e+00 0.0000000000000000e+00  0.0000000000000000e+00 0.0000000000000000e+00 0.0000000000000000e+00  0.0000000000000000e+00 0.0000000000000000e+00 0.0000000000000000e+00  0.0000000000000000e+00 0.0000000000000000e+00 0.0000000000000000e+00  -1.8191411558419736e-06 2.2034361047246880e-06 0.0000000000000000e+00  -3.6846126757643390e-06 2.0852305715574976e-06 0.0000000000000000e+00  -5.7000958882400383e-06 1.4403208391511002e-06 0.0000000000000000e+00  -7.6508742163536061e-06 3.2704525176653944e-07 0.0000000000000000e+00  -9.6325038800574417e-06 -1.2389231921402117e-06 0.0000000000000000e+00  -1.1418020520693395e-05 -3.2571659094599459e-06 0.0000000000000000e+00  -1.3257943807618508e-05 -5.6917304724880278e-06 0.0000000000000000e+00  -1.4998645323982468e-05 -8.6881437179068250e-06 0.0000000000000000e+00  -1.6547978736281026e-05 -1.2125463998101831e-05 0.0000000000000000e+00  -1.8164327943477984e-05 -1.6089427706427209e-05 0.0000000000000000e+00  -1.9535340626945285e-05 -2.0510426482009009e-05 0.0000000000000000e+00  -2.1008254982438924e-05 -2.5469191282087408e-05 0.0000000000000000e+00  -2.2257369983680568e-05 -3.0883638408975006e-05 0.0000000000000000e+00  -2.3597101084065480e-05 -3.6702488444998093e-05 0.0000000000000000e+00  -2.4865401533960602e-05 -4.3044078640584194e-05 0.0000000000000000e+00  -2.5990910067612134e-05 -4.9763748167482006e-05 0.0000000000000000e+00  -2.7209061194661283e-05 -5.6929417481917895e-05 0.0000000000000000e+00  -2.8253139750967423e-05 -6.4468305890465037e-05 0.0000000000000000e+00  -2.9409763007209548e-05 -7.2418988855523829e-05 0.0000000000000000e+00  -3.0424634942338736e-05 -8.0691052919804637e-05 0.0000000000000000e+00  -3.1509988285281295e-05 -8.9342437896374190e-05 0.0000000000000000e+00  -3.2491410726698330e-05 -9.8311050119507192e-05 0.0000000000000000e+00  -3.3545125319755412e-05 -1.0752787058643767e-04 0.0000000000000000e+00  -3.4567653906633278e-05 -1.1707204253322832e-04 0.0000000000000000e+00  -3.5520522163435265e-05 -1.2682133519885321e-04 0.0000000000000000e+00  -3.6497888994128501e-05 -1.3684632072322484e-04 0.0000000000000000e+00  -3.7433450236577003e-05 -1.4706341457549358e-04 0.0000000000000000e+00  -3.8370044276165986e-05 -1.5749345008556973e-04 0.0000000000000000e+00  -3.9266904545369169e-05 -1.6808783857571961e-04 0.0000000000000000e+00  -4.0157865615480074e-05 -1.7885636803333525e-04 0.0000000000000000e+00  -4.1010787111812836e-05 -1.8975745723013077e-04 0.0000000000000000e+00  -4.1848504913818983e-05 -2.0080259406870125e-04 0.0000000000000000e+00  -4.2650233064980442e-05 -2.1194654936722548e-04 0.0000000000000000e+00  -4.3427493360756975e-05 -2.2321029559456480e-04 0.0000000000000000e+00  -4.4160466819705793e-05 -2.3453697624363406e-04 0.0000000000000000e+00  -4.4867854701601427e-05 -2.4595365612102804e-04 0.0000000000000000e+00  -4.5534025902718021e-05 -2.5741065922833605e-04 0.0000000000000000e+00  -4.6166795845959288e-05 -2.6893857974495119e-04 0.0000000000000000e+00  -4.6752530060962749e-05 -2.8048682211483442e-04 0.0000000000000000e+00  -4.7294968823803603e-05 -2.9208689243177691e-04 0.0000000000000000e+00  -4.7782864756377146e-05 -3.0369970090704236e-04 0.0000000000000000e+00  -4.8236478474540998e-05 -3.1533464177591747e-04 0.0000000000000000e+00  -4.8627767967972337e-05 -3.2697980412759695e-04 0.0000000000000000e+00  -4.8983224094641567e-05 -3.3863144402225716e-04 0.0000000000000000e+00  -4.9278420377499322e-05 -3.5030468986414380e-04 0.0000000000000000e+00  -4.9544074279030841e-05 -3.6194597859894961e-04 0.0000000000000000e+00  -5.7372715950957623e-05 -3.7357037800531931e-04 0.0000000000000000e+00  -7.2895444925974860e-05 -3.7385254806214497e-04 0.0000000000000000e+00  -8.0578785218824939e-05 -3.6230020711429693e-04 0.0000000000000000e+00  -8.0318958226199694e-05 -3.5076021099862383e-04 0.0000000000000000e+00  -8.0019810528244410e-05 -3.3924251716656219e-04 0.0000000000000000e+00  -7.9648512299947195e-05 -3.2770829669070555e-04 0.0000000000000000e+00  -7.9234231653231070e-05 -3.1617762385862872e-04 0.0000000000000000e+00  -7.8742205380435463e-05 -3.0465864112507536e-04 0.0000000000000000e+00  -7.8190881609485049e-05 -2.9314571518443741e-04 0.0000000000000000e+00  -7.7576295808834856e-05 -2.8167094176434926e-04 0.0000000000000000e+00  -7.6885319117155328e-05 -2.7020052153379099e-04 0.0000000000000000e+00  -7.6142357451697870e-05 -2.5879894104502562e-04 0.0000000000000000e+00  -7.5313932881029223e-05 -2.4741623510520026e-04 0.0000000000000000e+00  -7.4439564063715288e-05 -2.3612125310953249e-04 0.0000000000000000e+00  -7.3470493032516858e-05 -2.2486585785797439e-04 0.0000000000000000e+00  -7.2465079573751822e-05 -2.1372208453126614e-04 0.0000000000000000e+00  -7.1356772231221215e-05 -2.0264671870019659e-04 0.0000000000000000e+00  -7.0219657461447426e-05 -1.9171365719528806e-04 0.0000000000000000e+00  -6.8968081913618217e-05 -1.8087962084124891e-04 0.0000000000000000e+00  -6.7698619252512605e-05 -1.7021864125105673e-04 0.0000000000000000e+00  -6.6302957855406133e-05 -1.5968764222527453e-04 0.0000000000000000e+00  -6.4902722997107709e-05 -1.4936179831410328e-04 0.0000000000000000e+00  -6.3362490998927247e-05 -1.3920483060606784e-04 0.0000000000000000e+00  -6.1827195271398568e-05 -1.2929321756900976e-04 0.0000000000000000e+00  -6.0138353819195248e-05 -1.1960343825164512e-04 0.0000000000000000e+00  -5.8454308044165452e-05 -1.1015538191554592e-04 0.0000000000000000e+00  -5.6695652067331152e-05 -1.0102705419013867e-04 0.0000000000000000e+00  -5.4810096191446449e-05 -9.2133145751268795e-05 0.0000000000000000e+00  -5.2895703933240936e-05 -8.3615725985013687e-05 0.0000000000000000e+00  -5.0865851786051667e-05 -7.5394817100542870e-05 0.0000000000000000e+00  -4.8798159039951316e-05 -6.7589341587884761e-05 0.0000000000000000e+00  -4.6613267927264199e-05 -6.0126565505157303e-05 0.0000000000000000e+00  -4.4384363710720166e-05 -5.3102346645608696e-05 0.0000000000000000e+00  -4.1983213212608221e-05 -4.6519947405145356e-05 0.0000000000000000e+00  -3.9619675120247726e-05 -4.0323960371980786e-05 0.0000000000000000e+00  -3.7168761891203109e-05 -3.4652179411130307e-05 0.0000000000000000e+00  -3.4548599745632940e-05 -2.9356665418646797e-05 0.0000000000000000e+00  -3.1898516057108998e-05 -2.4615115753344918e-05 0.0000000000000000e+00  -2.9116116857324019e-05 -2.0307036625247754e-05 0.0000000000000000e+00  -2.6302737460185884e-05 -1.6523696491403628e-05 0.0000000000000000e+00  -2.3317156585097255e-05 -1.3257366381192798e-05 0.0000000000000000e+00  -2.0396630816073987e-05 -1.0405027489396748e-05 0.0000000000000000e+00  -1.7422988500705542e-05 -8.1011872271815657e-06 0.0000000000000000e+00  -1.4313784187779015e-05 -6.1641660128797498e-06 0.0000000000000000e+00  -1.1262003155693756e-05 -4.7291214132842014e-06 0.0000000000000000e+00  -8.1678355792834396e-06 -3.7099988327393001e-06 0.0000000000000000e+00  -5.2361377580044822e-06 -2.9936632024787176e-06 0.0000000000000000e+00  -2.4581980579764177e-06 -2.4892608037416759e-06 0.0000000000000000e+00  -2.9811389166242254e-06 -4.5822465153522000e-08 0.0000000000000000e+00  -6.4643645514647931e-05 -3.5630052891883417e-04 0.0000000000000000e+00  -6.4019547281936225e-05 -3.3413389066668127e-04 0.0000000000000000e+00  -6.2797271100074642e-05 -2.9796106929130616e-04 0.0000000000000000e+00  -8.1397221422907231e-06 -1.3559394711695899e-06 0.0000000000000000e+00  -6.1823117672652554e-05 -2.7529597136782483e-04 0.0000000000000000e+00  -1.2979043237131712e-05 -4.2047054312786803e-06 0.0000000000000000e+00  -6.0443684571905670e-05 -2.5235099792151369e-04 0.0000000000000000e+00  -2.0387933242283819e-05 -1.2435919652375766e-05 0.0000000000000000e+00  -2.4599431930449543e-05 -2.0009638042122572e-05 0.0000000000000000e+00  -5.8853246918918086e-05 -2.2962001558252468e-04 0.0000000000000000e+00  -3.4464024633081708e-05 -4.8073528567294831e-05 0.0000000000000000e+00  -5.5067613880870433e-05 -1.8519466727480647e-04 0.0000000000000000e+00  -2.8618544515159541e-05 -2.9308444954393102e-05 0.0000000000000000e+00  -3.7670308456696075e-05 -6.1976153391447809e-05 0.0000000000000000e+00  -5.2888006495679136e-05 -1.6373796644081459e-04 0.0000000000000000e+00  -5.7058841928068978e-05 -2.0719686256643005e-04 0.0000000000000000e+00  -4.0859603458798106e-05 -7.7756241924832169e-05 0.0000000000000000e+00  -5.0527965583211904e-05 -1.4295807442713920e-04 0.0000000000000000e+00  -4.3892200357491122e-05 -9.4249261218012564e-05 0.0000000000000000e+00  -4.7882039289133253e-05 -1.2338912045185171e-04 0.0000000000000000e+00  -4.5849916161000167e-05 -1.0794282830883067e-04 0.0000000000000000e+00  -3.1350654285306052e-05 -3.7772410160911349e-05 0.0000000000000000e+00  -6.3764142105463323e-05 -3.1676454851125999e-04 0.0000000000000000e+00  -1.6543934503349992e-05 -7.6120702729621101e-06 0.0000000000000000e+00  -6.9812989862888950e-05 -3.4522308221281292e-04 0.0000000000000000e+00  -5.9188918328623814e-06 -1.5139371777033235e-06 0.0000000000000000e+00  -6.5617253209190613e-05 -2.6399853880113781e-04 0.0000000000000000e+00  -6.6917675999058742e-05 -2.8699097309477554e-04 0.0000000000000000e+00  -9.9055948206223760e-06 -1.7652039940976338e-06 0.0000000000000000e+00  -2.0937955975220676e-05 -1.5305117819586030e-05 0.0000000000000000e+00  -6.0353862465922386e-05 -1.9642275324193218e-04 0.0000000000000000e+00  -6.4087256957950101e-05 -2.4118158189320862e-04 0.0000000000000000e+00  -3.3244423735774579e-05 -5.4226114988034731e-05 0.0000000000000000e+00  -5.8160296214459921e-05 -1.7470663287081275e-04 0.0000000000000000e+00  -2.4806136872065205e-05 -2.4078056968877158e-05 0.0000000000000000e+00  -3.6241012666057216e-05 -6.9268947920281984e-05 0.0000000000000000e+00  -5.5755334861327852e-05 -1.5359852912857889e-04 0.0000000000000000e+00  -6.2330771425674338e-05 -2.1862159527931730e-04 0.0000000000000000e+00  -3.8315833916058672e-05 -8.5618448840063836e-05 0.0000000000000000e+00  -5.3148409869605879e-05 -1.3323778976244728e-04 0.0000000000000000e+00  -1.0866936836163382e-06 6.3957679112129021e-07 0.0000000000000000e+00  -1.1594762210277591e-06 -4.8902934939454588e-07 0.0000000000000000e+00  -6.12091863