<?xml version="1.0"?>
<VTKFile type="UnstructuredGrid"  version="0.1"  >
<UnstructuredGrid>
<Piece  NumberOfPoints="1419" NumberOfCells="2698">
<Points>
<DataArray  type="Float64"  NumberOfComponents="3"  format="ascii">0 0 0  0 0.41 0  2.5 0 0  2.5 0.41 0  0.6 0.19 0  0.6 0.21 0  0.25 0.2 0  0.15 0.2 0  0.2489897948556636 0.21 0  0.2489897948556636 0.19 0  0.6 0.2 0  0 0.3807142857143437 0  0 0.3514285714286952 0  0 0.3221428571430699 0  0 0.29285714285744 0  0 0.2635714285718054 0  0 0.2342857142861561 0  0 0.2050000000005308 0  0 0.175714285714732 0  0 0.1464285714289574 0  0 0.1171428571431897 0  0 0.08785714285737878 0  0 0.05857142857161107 0  0 0.02928571428580012 0  0.03015443760436003 0 0  0.06140001986583606 0 0  0.09377624077125973 0 0  0.1273239957535082 0 0  0.1620856860351972 0 0  0.1981052433264291 0 0  0.235428184091502 0 0  0.2741016576309132 0 0  0.3141745521465447 0 0  0.3556974926295285 0 0  0.3987229542472677 0 0  0.4433053055141081 0 0  0.4895008759286886 0 0  0.5373680609405097 0 0  0.5869673343216626 0 0  0.6383613676634521 0 0  0.6916151138468254 0 0  0.7467958595648856 0 0  0.8039733463919316 0 0  0.8632198139502143 0 0  0.9246101326867038 0 0  0.9882218810934433 0 0  1.054135445558498 0 0  1.122434100542598 0 0  1.193204177141305 0 0  1.266535089879536 0 0  1.342519516046404 0 0  1.421253448503939 0 0  1.502836389106271 0 0  1.587371439758838 0 0  1.674965418777374 0 0  1.765729001825544 0 0  1.859776908880082 0 0  1.957227977487062 0 0  2.058205329869943 0 0  2.162836591189951 0 0  2.271253957290865 0 0  2.383594446803425 0 0  2.5 0.1024999999997612 0  2.5 0.2049999999994743 0  2.5 0.3074999999997183 0  2.383594446803656 0.41 0  2.271253957291315 0.41 0  2.162836591190598 0.41 0  2.058205329870775 0.41 0  1.957227977488067 0.41 0  1.859776908881246 0.41 0  1.765729001826854 0.41 0  1.674965418778818 0.41 0  1.58737143976041 0.41 0  1.502836389107956 0.41 0  1.421253448505726 0.41 0  1.342519516048286 0.41 0  1.266535089881505 0.41 0  1.193204177143353 0.41 0  1.122434100544716 0.41 0  1.05413544556068 0.41 0  0.9882218810956305 0.41 0  0.9246101326886647 0.41 0  0.8632198139519631 0.41 0  0.8039733463934788 0.41 0  0.7467958595662458 0.41 0  0.6916151138480078 0.41 0  0.6383613676644679 0.41 0  0.5869673343225223 0.41 0  0.5373680609412221 0.41 0  0.4895008759292634 0.41 0  0.4433053055145528 0.41 0  0.3987229542475914 0.41 0  0.3556974926297398 0.41 0  0.3141745521466497 0.41 0  0.2741016576310038 0.41 0  0.2354281840915826 0.41 0  0.1981052433265003 0.41 0  0.1620856860352591 0.41 0  0.1273239957535623 0.41 0  0.09377624077128965 0.41 0  0.06140001986584975 0.41 0  0.03015443760436654 0.41 0  0.2497468076502589 0.2050254481002335 0  0.2497468076502614 0.1949745518997913 0  0.2469965252529372 0.1829317073451959 0  0.2439893735792749 0.1762316384219906 0  0.2400332147834255 0.1700443375285386 0  0.2352133972704371 0.1645032867342007 0  0.2296339016332438 0.1597280261969788 0  0.2234150974217223 0.1558215752574715 0  0.2166911463437691 0.1528682099456123 0  0.2096071079204251 0.1509316448471593 0  0.2023158100364996 0.1500536585536553 0  0.194974551899914 0.1502531923497262 0  0.1877417105387872 0.1515259415822739 0  0.1807733240461124 0.153844448527136 0  0.1742197252835808 0.15715869474974 0  0.1682222986673531 0.1613971801805478 0  0.162910430003803 0.1664684656256651 0  0.1583987151779087 0.1722631454351573 0  0.1547844879126891 0.178656207771761 0  0.1521457199348551 0.1855097315605723 0  0.1505393388476355 0.1926758619366523 0  0.1505393388476328 0.2073241380633295 0  0.1521457199348437 0.2144902684393899 0  0.1547844879126531 0.221343792228163 0  0.1583987151778488 0.2277368545647528 0  0.1629104300036858 0.2335315343742052 0  0.1682222986671726 0.2386028198193036 0  0.1742197252833576 0.2428413052501257 0  0.1807733240458683 0.2461555514727623 0  0.1877417105384929 0.2484740584176516 0  0.1949745518995776 0.2497468076502398 0  0.202315810036185 0.2499463414463592 0  0.2096071079201568 0.2490683551528932 0  0.2166911463435495 0.2471317900544655 0  0.2234150974215506 0.2441784247426195 0  0.2296339016331197 0.2402719738031125 0  0.2352133972703547 0.2354967132658811 0  0.2400332147833751 0.2299556624715287 0  0.2439893735792577 0.2237683615780412 0  0.246996525252926 0.2170682926548348 0  0.25645809709277 0.21 0  0.2639263993298655 0.21 0  0.271394701566961 0.21 0  0.2788630038040554 0.21 0  0.2863313060411479 0.21 0  0.2937996082782405 0.21 0  0.301267910515333 0.21 0  0.3087362127524279 0.21 0  0.3162045149895234 0.21 0  0.3236728172265972 0.21 0  0.3311411194636928 0.21 0  0.3386094217007701 0.21 0  0.3460777239378666 0.21 0  0.3535460261749672 0.21 0  0.3610143284120516 0.21 0  0.3684826306491596 0.21 0  0.3759509328862226 0.21 0  0.383419235123329 0.21 0  0.3908875373604028 0.21 0  0.3983558395975142 0.21 0  0.4058241418345938 0.21 0  0.4132924440716992 0.21 0  0.4207607463087888 0.21 0  0.4282290485459029 0.21 0  0.4356973507830418 0.21 0  0.4431656530201649 0.21 0  0.4506339552573136 0.21 0  0.4581022574944306 0.21 0  0.4655705597315852 0.21 0  0.4730388619686996 0.21 0  0.480507164205851 0.21 0  0.4879754664429498 0.21 0  0.4954437686800938 0.21 0  0.502912070917267 0.21 0  0.5103803731544119 0.21 0  0.5178486753915261 0.21 0  0.5253169776286404 0.21 0  0.5327852798657868 0.21 0  0.5402535821029386 0.21 0  0.54772188434007 0.21 0  0.5551901865771842 0.21 0  0.5626584888143201 0.21 0  0.5701267910514778 0.21 0  0.5775950932886138 0.21 0  0.5850633955257281 0.21 0  0.5925316977628483 0.21 0  0.6 0.2050000000000054 0  0.6 0.1950000000000217 0  0.5925316977628897 0.19 0  0.5850633955257988 0.19 0  0.5775950932887378 0.19 0  0.5701267910515998 0.19 0  0.5626584888145268 0.19 0  0.5551901865773963 0.19 0  0.547721884340339 0.19 0  0.5402535821032429 0.19 0  0.5327852798661811 0.19 0  0.5253169776290537 0.19 0  0.5178486753919799 0.19 0  0.5103803731549078 0.19 0  0.502912070917822 0.19 0  0.4954437686807294 0.19 0  0.4879754664436223 0.19 0  0.4805071642065402 0.19 0  0.4730388619694271 0.19 0  0.4655705597323621 0.19 0  0.4581022574952563 0.19 0  0.4506339552581777 0.19 0  0.4431656530210671 0.19 0  0.4356973507839815 0.19 0  0.4282290485468779 0.19 0  0.4207607463097617 0.19 0  0.4132924440726327 0.19 0  0.4058241418354857 0.19 0  0.3983558395983636 0.19 0  0.3908875373612097 0.19 0  0.3834192351240934 0.19 0  0.3759509328869369 0.19 0  0.3684826306498175 0.19 0  0.361014328412667 0.19 0  0.3535460261755617 0.19 0  0.3460777239384295 0.19 0  0.3386094217012945 0.19 0  0.3311411194641595 0.19 0  0.3236728172270245 0.19 0  0.3162045149898895 0.19 0  0.3087362127527544 0.19 0  0.3012679105156187 0.19 0  0.2937996082784807 0.19 0  0.2863313060413428 0.19 0  0.2788630038042048 0.19 0  0.2713947015670686 0.19 0  0.2639263993299336 0.19 0  0.2564580970927985 0.19 0  0.2607803159922026 0.2000727136295815 0  0.5887803774232762 0.2001272386983733 0  0.5745072403740523 0.2002044435018727 0  0.5511891430099709 0.2001122610077113 0  0.2751288526855082 0.20000000000002 0  0.5365194309847112 0.1999999999999436 0  0.2894621222999649 0.1998691686390484 0  0.5215828265105155 0.1999999999999228 0  0.3127789816668748 0.1998657885438805 0  0.3274069683451451 0.2000000000000796 0  0.5066462220363641 0.199999999999908 0  0.3650630746574081 0.199866017807523 0  0.476773013087985 0.1999999999998713 0  0.3417402379596385 0.1998691686391011 0  0.3796850840047755 0.200000000000134 0  0.4618364086138087 0.1999999999998546 0  0.4917096175621762 0.1999999999998808 0  0.3946216884789568 0.2000000000001512 0  0.446899804139621 0.1999999999998389 0  0.4089549580935208 0.1998691686391595 0  0.4322718174608562 0.200127451265745 0  0.4201487168029707 0.1999966199048527 0  0.3528922713220932 0.2000185703532356 0  0.5633122436674589 0.1999814296467508 0  0.3006558810093873 0.1999966199048318 0  0.5815926498168407 0.1966545283159175 0  0.2677053789419034 0.1964246479135325 0  0.5290511287476175 0.1970915826863981 0  0.5439877332217911 0.197091582686394 0  0.2825131256993216 0.2035478995978015 0  0.3199386661080599 0.202908417313604 0  0.4842413153250809 0.1970915826863873 0  0.5141145242734466 0.1970915826863843 0  0.3722167817676917 0.2029084173136195 0  0.4693047108508938 0.1970915826863783 0  0.3348752705822316 0.202908417313609 0  0.3871533862418661 0.2029084173136212 0  0.4543681063767183 0.1970915826863795 0  0.4991779197992749 0.1970915826863902 0  0.4020059614928624 0.203547899597858 0  0.4394315019025246 0.1970915826863714 0  0.2550657455369551 0.2034088125358657 0  0.2548908499171161 0.1966940311614271 0  0.5946539510196798 0.2024302972968126 0  0.267698176732111 0.2039977513680092 0  0.4261685417851465 0.196409292431739 0  0.3590076176283495 0.196411355804271 0  0.5571672426447437 0.2036011176410121 0  0.3066757059912147 0.1964092924317024 0  0.594380730180568 0.1966558399668133 0  0.4842413153245942 0.2040749161535287 0  0.4693047108503577 0.2040749161535231 0  0.3871533862424271 0.1959250838464788 0  0.372246743208829 0.1959123236376545 0  0.5141145242731028 0.2040749161535395 0  0.4543681063761134 0.2040749161535186 0  0.4019979587101454 0.1959834479682427 0  0.4394608940728603 0.2040870543693135 0  0.5439623148931173 0.2040856076781014 0  0.5290511287473298 0.2040749161535501 0  0.4991779197988497 0.2040749161535382 0  0.3347912413592433 0.1959225448935183 0  0.3199680582793816 0.1959123018030061 0  0.2825051229162361 0.1959834479681729 0  0.3590471196690275 0.2036304442587945 0  0.5571594006495384 0.1963685282145804 0  0.3067669986803285 0.203627750582736 0  0.4262598344738712 0.2036568242185335 0  0.5814408164431408 0.2041285596160068 0  0.5688286748170428 0.1961819304477386 0  0.4145905603063645 0.2038180695522843 0  0.3473758401724931 0.2038180695522752 0  0.2950977245128307 0.2038180695522663 0  0.5688286748170693 0.203818069552238 0  0.2950977245127906 0.1961819304477774 0  0.3473758401723931 0.1961819304478349 0  0.4145905603061963 0.1961819304479011 0  0.2601812407614425 0.2056861609747042
[...]
<PointData  Vectors="f_46-0"> 
<DataArray  type="Float64"  Name="f_46-0"  NumberOfComponents="3" format="ascii">0.0000000000000000e+00 0.0000000000000000e+00 0.0000000000000000e+00  0.0000000000000000e+00 0.0000000000000000e+00 0.0000000000000000e+00  0.0000000000000000e+00 0.0000000000000000e+00 0.0000000000000000e+00  0.0000000000000000e+00 0.0000000000000000e+00 0.0000000000000000e+00  2.5216372798012296e-05 8.2716652378391744e-04 0.0000000000000000e+00  -3.4760213913468054e-05 8.2722520062464386e-04 0.0000000000000000e+00  0.0000000000000000e+00 0.0000000000000000e+00 0.0000000000000000e+00  0.0000000000000000e+00 0.0000000000000000e+00 0.0000000000000000e+00  0.0000000000000000e+00 0.0000000000000000e+00 0.0000000000000000e+00  0.0000000000000000e+00 0.0000000000000000e+00 0.0000000000000000e+00  -4.7722713620756901e-06 8.2719470998158509e-04 0.0000000000000000e+00  7.9591836734548407e-02 0.0000000000000000e+00 0.0000000000000000e+00  1.4693877550994527e-01 0.0000000000000000e+00 0.0000000000000000e+00  2.0204081632617479e-01 0.0000000000000000e+00 0.0000000000000000e+00  2.4489795918330076e-01 0.0000000000000000e+00 0.0000000000000000e+00  2.7551020408131754e-01 0.0000000000000000e+00 0.0000000000000000e+00  2.9387755102022350e-01 0.0000000000000000e+00 0.0000000000000000e+00  3.0000000000000004e-01 0.0000000000000000e+00 0.0000000000000000e+00  2.9387755102059482e-01 0.0000000000000000e+00 0.0000000000000000e+00  2.7551020408195548e-01 0.0000000000000000e+00 0.0000000000000000e+00  2.4489795918409069e-01 0.0000000000000000e+00 0.0000000000000000e+00  2.0204081632692525e-01 0.0000000000000000e+00 0.0000000000000000e+00  1.4693877551058568e-01 0.0000000000000000e+00 0.0000000000000000e+00  7.9591836734909216e-02 0.0000000000000000e+00 0.0000000000000000e+00  0.0000000000000000e+00 0.0000000000000000e+00 0.0000000000000000e+00  0.0000000000000000e+00 0.0000000000000000e+00 0.0000000000000000e+00  0.0000000000000000e+00 0.0000000000000000e+00 0.0000000000000000e+00  0.0000000000000000e+00 0.0000000000000000e+00 0.0000000000000000e+00  0.0000000000000000e+00 0.0000000000000000e+00 0.0000000000000000e+00  0.0000000000000000e+00 0.0000000000000000e+00 0.0000000000000000e+00  0.0000000000000000e+00 0.0000000000000000e+00 0.0000000000000000e+00  0.0000000000000000e+00 0.0000000000000000e+00 0.0000000000000000e+00  0.0000000000000000e+00 0.0000000000000000e+00 0.0000000000000000e+00  0.0000000000000000e+00 0.0000000000000000e+00 0.0000000000000000e+00  0.0000000000000000e+00 0.0000000000000000e+00 0.0000000000000000e+00  0.0000000000000000e+00 0.0000000000000000e+00 0.0000000000000000e+00  0.0000000000000000e+00 0.0000000000000000e+00 0.0000000000000000e+00  0.0000000000000000e+00 0.0000000000000000e+00 0.0000000000000000e+00  0.0000000000000000e+00 0.0000000000000000e+00 0.0000000000000000e+00  0.0000000000000000e+00 0.0000000000000000e+00 0.0000000000000000e+00  0.0000000000000000e+00 0.0000000000000000e+00 0.0000000000000000e+00  0.0000000000000000e+00 0.0000000000000000e+00 0.0000000000000000e+00  0.0000000000000000e+00 0.0000000000000000e+00 0.0000000000000000e+00  0.0000000000000000e+00 0.0000000000000000e+00 0.0000000000000000e+00  0.0000000000000000e+00 0.0000000000000000e+00 0.0000000000000000e+00  0.0000000000000000e+00 0.0000000000000000e+00 0.0000000000000000e+00  0.0000000000000000e+00 0.0000000000000000e+00 0.0000000000000000e+00  0.0000000000000000e+00 0.0000000000000000e+00 0.0000000000000000e+00  0.0000000000000000e+00 0.0000000000000000e+00 0.0000000000000000e+00  0.0000000000000000e+00 0.0000000000000000e+00 0.0000000000000000e+00  0.0000000000000000e+00 0.0000000000000000e+00 0.0000000000000000e+00  0.0000000000000000e+00 0.0000000000000000e+00 0.0000000000000000e+00  0.0000000000000000e+00 0.0000000000000000e+00 0.0000000000000000e+00  0.0000000000000000e+00 0.0000000000000000e+00 0.0000000000000000e+00  0.0000000000000000e+00 0.0000000000000000e+00 0.0000000000000000e+00  0.0000000000000000e+00 0.0000000000000000e+00 0.0000000000000000e+00  0.0000000000000000e+00 0.0000000000000000e+00 0.0000000000000000e+00  0.0000000000000000e+00 0.0000000000000000e+00 0.0000000000000000e+00  0.0000000000000000e+00 0.0000000000000000e+00 0.0000000000000000e+00  0.0000000000000000e+00 0.0000000000000000e+00 0.0000000000000000e+00  0.0000000000000000e+00 0.0000000000000000e+00 0.0000000000000000e+00  0.0000000000000000e+00 0.0000000000000000e+00 0.0000000000000000e+00  2.5246967921209651e-01 2.5335030105938716e-03 0.0000000000000000e+00  2.9540548013995999e-01 7.1166638037450563e-03 0.0000000000000000e+00  2.4804314938061661e-01 -8.7689995657259569e-03 0.0000000000000000e+00  0.0000000000000000e+00 0.0000000000000000e+00 0.0000000000000000e+00  0.0000000000000000e+00 0.0000000000000000e+00 0.0000000000000000e+00  0.0000000000000000e+00 0.0000000000000000e+00 0.0000000000000000e+00  0.0000000000000000e+00 0.0000000000000000e+00 0.0000000000000000e+00  0.0000000000000000e+00 0.0000000000000000e+00 0.0000000000000000e+00  0.0000000000000000e+00 0.0000000000000000e+00 0.0000000000000000e+00  0.0000000000000000e+00 0.0000000000000000e+00 0.0000000000000000e+00  0.0000000000000000e+00 0.0000000000000000e+00 0.0000000000000000e+00  0.0000000000000000e+00 0.0000000000000000e+00 0.0000000000000000e+00  0.0000000000000000e+00 0.0000000000000000e+00 0.0000000000000000e+00  0.0000000000000000e+00 0.0000000000000000e+00 0.0000000000000000e+00  0.0000000000000000e+00 0.0000000000000000e+00 0.0000000000000000e+00  0.0000000000000000e+00 0.0000000000000000e+00 0.0000000000000000e+00  0.0000000000000000e+00 0.0000000000000000e+00 0.0000000000000000e+00  0.0000000000000000e+00 0.0000000000000000e+00 0.0000000000000000e+00  0.0000000000000000e+00 0.0000000000000000e+00 0.0000000000000000e+00  0.0000000000000000e+00 0.0000000000000000e+00 0.0000000000000000e+00  0.0000000000000000e+00 0.0000000000000000e+00 0.0000000000000000e+00  0.0000000000000000e+00 0.0000000000000000e+00 0.0000000000000000e+00  0.0000000000000000e+00 0.0000000000000000e+00 0.0000000000000000e+00  0.0000000000000000e+00 0.0000000000000000e+00 0.0000000000000000e+00  0.0000000000000000e+00 0.0000000000000000e+00 0.0000000000000000e+00  0.0000000000000000e+00 0.0000000000000000e+00 0.0000000000000000e+00  0.0000000000000000e+00 0.0000000000000000e+00 0.0000000000000000e+00  0.0000000000000000e+00 0.0000000000000000e+00 0.0000000000000000e+00  0.0000000000000000e+00 0.0000000000000000e+00 0.0000000000000000e+00  0.0000000000000000e+00 0.0000000000000000e+00 0.0000000000000000e+00  0.0000000000000000e+00 0.0000000000000000e+00 0.0000000000000000e+00  0.0000000000000000e+00 0.0000000000000000e+00 0.0000000000000000e+00  0.0000000000000000e+00 0.0000000000000000e+00 0.0000000000000000e+00  0.0000000000000000e+00 0.0000000000000000e+00 0.0000000000000000e+00  0.0000000000000000e+00 0.0000000000000000e+00 0.0000000000000000e+00  0.0000000000000000e+00 0.0000000000000000e+00 0.0000000000000000e+00  0.0000000000000000e+00 0.0000000000000000e+00 0.0000000000000000e+00  0.0000000000000000e+00 0.0000000000000000e+00 0.0000000000000000e+00  0.0000000000000000e+00 0.0000000000000000e+00 0.0000000000000000e+00  0.0000000000000000e+00 0.0000000000000000e+00 0.0000000000000000e+00  0.0000000000000000e+00 0.0000000000000000e+00 0.0000000000000000e+00  0.0000000000000000e+00 0.0000000000000000e+00 0.0000000000000000e+00  0.0000000000000000e+00 0.0000000000000000e+00 0.0000000000000000e+00  9.0567543274768370e-17 0.0000000000000000e+00 0.0000000000000000e+00  0.0000000000000000e+00 0.0000000000000000e+00 0.0000000000000000e+00  0.0000000000000000e+00 0.0000000000000000e+00 0.0000000000000000e+00  0.0000000000000000e+00 0.0000000000000000e+00 0.0000000000000000e+00  0.0000000000000000e+00 0.0000000000000000e+00 0.0000000000000000e+00  0.0000000000000000e+00 0.0000000000000000e+00 0.0000000000000000e+00  0.0000000000000000e+00 0.0000000000000000e+00 0.0000000000000000e+00  0.0000000000000000e+00 0.0000000000000000e+00 0.0000000000000000e+00  0.0000000000000000e+00 0.0000000000000000e+00 0.0000000000000000e+00  0.0000000000000000e+00 0.0000000000000000e+00 0.0000000000000000e+00  0.0000000000000000e+00 0.0000000000000000e+00 0.0000000000000000e+00  0.0000000000000000e+00 0.0000000000000000e+00 0.0000000000000000e+00  0.0000000000000000e+00 0.0000000000000000e+00 0.0000000000000000e+00  0.0000000000000000e+00 0.0000000000000000e+00 0.0000000000000000e+00  0.0000000000000000e+00 0.0000000000000000e+00 0.0000000000000000e+00  0.0000000000000000e+00 0.0000000000000000e+00 0.0000000000000000e+00  0.0000000000000000e+00 0.0000000000000000e+00 0.0000000000000000e+00  0.0000000000000000e+00 0.0000000000000000e+00 0.0000000000000000e+00  0.0000000000000000e+00 0.0000000000000000e+00 0.0000000000000000e+00  0.0000000000000000e+00 0.0000000000000000e+00 0.0000000000000000e+00  0.0000000000000000e+00 0.0000000000000000e+00 0.0000000000000000e+00  0.0000000000000000e+00 0.0000000000000000e+00 0.0000000000000000e+00  0.0000000000000000e+00 0.0000000000000000e+00 0.0000000000000000e+00  0.0000000000000000e+00 0.0000000000000000e+00 0.0000000000000000e+00  0.0000000000000000e+00 0.0000000000000000e+00 0.0000000000000000e+00  0.0000000000000000e+00 0.0000000000000000e+00 0.0000000000000000e+00  0.0000000000000000e+00 0.0000000000000000e+00 0.0000000000000000e+00  0.0000000000000000e+00 0.0000000000000000e+00 0.0000000000000000e+00  0.0000000000000000e+00 0.0000000000000000e+00 0.0000000000000000e+00  0.0000000000000000e+00 0.0000000000000000e+00 0.0000000000000000e+00  0.0000000000000000e+00 0.0000000000000000e+00 0.0000000000000000e+00  0.0000000000000000e+00 0.0000000000000000e+00 0.0000000000000000e+00  0.0000000000000000e+00 0.0000000000000000e+00 0.0000000000000000e+00  0.0000000000000000e+00 0.0000000000000000e+00 0.0000000000000000e+00  0.0000000000000000e+00 0.0000000000000000e+00 0.0000000000000000e+00  0.0000000000000000e+00 0.0000000000000000e+00 0.0000000000000000e+00  0.0000000000000000e+00 0.0000000000000000e+00 0.0000000000000000e+00  -8.7846312994654944e-14 0.0000000000000000e+00 0.0000000000000000e+00  -2.0515160724581682e-06 1.7257952425193152e-06 0.0000000000000000e+00  -4.3479399658245531e-06 4.0807094907996246e-06 0.0000000000000000e+00  -6.3620174055028078e-06 7.8920571590078329e-06 0.0000000000000000e+00  -8.5128874383914722e-06 1.3237528849496586e-05 0.0000000000000000e+00  -1.0300577689263503e-05 1.9844468804769752e-05 0.0000000000000000e+00  -1.2298574553796794e-05 2.7825260833921863e-05 0.0000000000000000e+00  -1.3901823546131753e-05 3.6809492749035943e-05 0.0000000000000000e+00  -1.5442761116971602e-05 4.7103036584574874e-05 0.0000000000000000e+00  -1.7185585731775649e-05 5.8376262890902967e-05 0.0000000000000000e+00  -1.8515082920790637e-05 7.0659015396768362e-05 0.0000000000000000e+00  -2.0105282292768274e-05 8.3923403159148768e-05 0.0000000000000000e+00  -2.1302935071280660e-05 9.8078142350962769e-05 0.0000000000000000e+00  -2.2687812717642399e-05 1.1308461717759219e-04 0.0000000000000000e+00  -2.3788708468823487e-05 1.2876959451849686e-04 0.0000000000000000e+00  -2.4840724765503021e-05 1.4528487974734344e-04 0.0000000000000000e+00  -2.6003508690861757e-05 1.6241398064696571e-04 0.0000000000000000e+00  -2.6890749564071092e-05 1.8016373005282389e-04 0.0000000000000000e+00  -2.7912926407228812e-05 1.9851034298653305e-04 0.0000000000000000e+00  -2.8678762278962946e-05 2.1737051434159591e-04 0.0000000000000000e+00  -2.9540378345696961e-05 2.3671114750029655e-04 0.0000000000000000e+00  -3.0219673332374828e-05 2.5649075568118045e-04 0.0000000000000000e+00  -3.0929548998454148e-05 2.7668663208157913e-04 0.0000000000000000e+00  -3.1491683906821712e-05 2.9717326080876019e-04 0.0000000000000000e+00  -3.2004517281201035e-05 3.1802242700025140e-04 0.0000000000000000e+00  -3.2531759506858038e-05 3.3910705047697162e-04 0.0000000000000000e+00  -3.2948904276982765e-05 3.6044566522483104e-04 0.0000000000000000e+00  -3.3334290267813559e-05 3.8200500248648605e-04 0.0000000000000000e+00  -3.3651761831881542e-05 4.0371717443051387e-04 0.0000000000000000e+00  -3.3936043090198580e-05 4.2559854857902754e-04 0.0000000000000000e+00  -3.4164695385752941e-05 4.4758194981101934e-04 0.0000000000000000e+00  -3.4362284106255632e-05 4.6968404955147951e-04 0.0000000000000000e+00  -3.4515550529699550e-05 4.9184796060907862e-04 0.0000000000000000e+00  -3.4641972835359195e-05 5.1409011273638667e-04 0.0000000000000000e+00  -3.4733844992438190e-05 5.3636484032120737e-04 0.0000000000000000e+00  -3.4803839860546200e-05 5.5868767726215964e-04 0.0000000000000000e+00  -3.4850645268844210e-05 5.8102472860367368e-04 0.0000000000000000e+00  -3.4880925402841275e-05 6.0338809073471158e-04 0.0000000000000000e+00  -3.4896052807771318e-05 6.2575470032911031e-04 0.0000000000000000e+00  -3.4898887271974815e-05 6.4813421764676278e-04 0.0000000000000000e+00  -3.4893634028269278e-05 6.7051288618468971e-04 0.0000000000000000e+00  -3.4881128522326876e-05 6.9289606911162541e-04 0.0000000000000000e+00  -3.4864950976352214e-05 7.1527873030663512e-04 0.0000000000000000e+00  -3.4845729206497461e-05 7.3766368976001392e-04 0.0000000000000000e+00  -3.4825530889680110e-05 7.6005014004679617e-04 0.0000000000000000e+00  -3.4804388248893939e-05 7.8243865155573319e-04 0.0000000000000000e+00  -3.4782432398991673e-05 8.0483020053100747e-04 0.0000000000000000e+00  -1.9765091547933494e-05 8.2720975796281933e-04 0.0000000000000000e+00  1.0220578556521507e-05 8.2718038393896770e-04 0.0000000000000000e+00  2.5189370323505157e-05 8.0477075497603504e-04 0.0000000000000000e+00  2.5162121651589671e-05 7.8237896285391414e-04 0.0000000000000000e+00  2.5136471449725563e-05 7.5998817178628221e-04 0.0000000000000000e+00  2.5112081373415892e-05 7.3759862355639424e-04 0.0000000000000000e+00  2.5089883769840109e-05 7.1520907692534453e-04 0.0000000000000000e+00  2.5070317607588977e-05 6.9281924383856079e-04 0.0000000000000000e+00  2.5051409214842616e-05 6.7042894919855313e-04 0.0000000000000000e+00  2.5037123085614940e-05 6.4803749140291864e-04 0.0000000000000000e+00  2.5021198604909069e-05 6.2565023052779537e-04 0.0000000000000000e+00  2.5009868876961652e-05 6.0326528702994296e-04 0.0000000000000000e+00  2.4991413206450869e-05 5.8089204072944592e-04 0.0000000000000000e+00  2.4979786203793595e-05 5.5853125867629872e-04 0.0000000000000000e+00  2.4953399748907499e-05 5.3619675537524972e-04 0.0000000000000000e+00  2.4936006334304537e-05 5.1389405208031032e-04 0.0000000000000000e+00  2.4890642510938416e-05 4.9163939735373627e-04 0.0000000000000000e+00  2.4858738194254440e-05 4.6944519492364214e-04 0.0000000000000000e+00  2.4781974504642948e-05 4.4733062155094875e-04 0.0000000000000000e+00  2.4725806179709884e-05 4.2531567107258780e-04 0.0000000000000000e+00  2.4603907566688565e-05 4.0342279386636925e-04 0.0000000000000000e+00  2.4511735465288015e-05 3.8168028228951849e-04 0.0000000000000000e+00  2.4325934750872810e-05 3.6011281341817705e-04 0.0000000000000000e+00  2.4182334465017321e-05 3.3875813950220356e-04 0.0000000000000000e+00  2.3922521055634670e-05 3.1764727464611640e-04 0.0000000000000000e+00  2.3697384373054436e-05 2.9678947854988813e-04 0.0000000000000000e+00  2.3438260015095268e-05 2.7629710782570784e-04 0.0000000000000000e+00  2.3054677663101872e-05 2.5608490546960447e-04 0.0000000000000000e+00  2.2685309827310282e-05 2.3631580523500320e-04 0.0000000000000000e+00  2.2211328108283505e-05 2.1695326803232817e-04 0.0000000000000000e+00  2.1733921521753257e-05 1.9810288335811045e-04 0.0000000000000000e+00  2.1145258488523380e-05 1.7975587741125921e-04 0.0000000000000000e+00  2.0552302307679726e-05 1.6198658284341335e-04 0.0000000000000000e+00  1.9765575693594898e-05 1.4490386165099466e-04 0.0000000000000000e+00  1.9080212836155967e-05 1.2838726362799415e-04 0.0000000000000000e+00  1.8338900682386847e-05 1.1272145004002316e-04 0.0000000000000000e+00  1.7354778236505756e-05 9.7670690096600163e-05 0.0000000000000000e+00  1.6414987083544085e-05 8.3558944730035658e-05 0.0000000000000000e+00  1.5307518050642319e-05 7.0293914443140485e-05 0.0000000000000000e+00  1.4219837126475722e-05 5.7980373664008620e-05 0.0000000000000000e+00  1.2845333818389944e-05 4.6775437211367200e-05 0.0000000000000000e+00  1.1648441054980604e-05 3.6470389311566249e-05 0.0000000000000000e+00  1.0388553377524662e-05 2.7493384058797242e-05 0.0000000000000000e+00  8.7616157770187830e-06 1.9478097001159331e-05 0.0000000000000000e+00  7.2607317569493446e-06 1.2853322349356829e-05 0.0000000000000000e+00  5.4316006923948954e-06 7.5804408979289020e-06 0.0000000000000000e+00  3.7820406786535676e-06 3.7521288343232682e-06 0.0000000000000000e+00  1.7856747123233551e-06 1.3989246493416573e-06 0.0000000000000000e+00  -2.1063594728223432e-07 1.6716572702206621e-06 0.0000000000000000e+00  -5.1898475411840614e-06 7.9355225249650254e-04 0.0000000000000000e+00  -5.4653966995836881e-06 7.5076203364699804e-04 0.0000000000000000e+00  -5.2464464170514365e-06 6.8086264025944568e-04 0.0000000000000000e+00  -5.2601964301266952e-07 9.3037761208519910e-06 0.0000000000000000e+00  -4.9275635479038579e-06 6.3688866902453613e-04 0.0000000000000000e+00  -7.2433685660460456e-07 2.2007930321699744e-05 0.0000000000000000e+00  -4.9235904652052295e-06 5.9212897059975165e-04 0.0000000000000000e+00  -1.1837503557529130e-06 5.2198375297950009e-05 0.0000000000000000e+00  -1.7278604952911989e-06 7.6397391839492148e-05 0.0000000000000000e+00  -4.8897427127695793e-06 5.4741865360808035e-04 0.0000000000000000e+00  -2.3214948970570724e-06 1.5385201556314407e-04 0.0000000000000000e+00  -4.7062610103454937e-06 4.5843609235847465e-04 0.0000000000000000e+00  -1.8101298333168843e-06 1.0351897800254660e-04 0.0000000000000000e+00  -2.9790022743216605e-06 1.8870523845756666e-04 0.0000000000000000e+00  -4.5482354367897313e-06 4.1440387081363104e-04 0.0000000000000000e+00  -4.8190131614356881e-06 5.0282113967560450e-04 0.0000000000000000e+00  -3.3267912196764753e-06 2.2647615442876988e-04 0.0000000000000000e+00  -4.3430773761872918e-06 3.7090865444497676e-04 0.0000000000000000e+00  -3.2919074418745052e-06 2.6444869212232758e-04 0.0000000000000000e+00  -4.4615759389606882e-06 3.2905193214163256e-04 0.0000000000000000e+00  -3.8613919654590855e-06 2.9513248895755883e-04 0.0000000000000000e+00  -2.3749709624570090e-06 1.2682208301833945e-04 0.0000000000000000e+00  -4.8265656025595991e-06 7.1720272866382829e-04 0.0000000000000000e+00  -1.0986744681231523e-06 3.5302847655320937e-05 0.0000000000000000e+00  5.1997389267137476e-06 7.7199231637785847e-04 0.0000000000000000e+00  1.4368282724043371e-06 4.7975251254265910e-06 0.0000000000000000e+00  3.7817764287648614e-06 6.1449021601180022e-04 0.0000000000000000e+00  3.7955512853516372e-06 6.5926232340649546e-04 0.0000000000000000e+00  -3.7476306511425690e-06 1.5462506582999757e-05 0.0000000000000000e+00  -6.3054740248879131e-06 6.3713932508583160e-05 0.0000000000000000e+00  3.8547841051314300e-06 4.8056922107205170e-04 0.0000000000000000e+00  3.7859952753242003e-06 5.6974600422024394e-04 0.0000000000000000e+00  -9.6825957481144143e-06 1.7073096440603885e-04 0.0000000000000000e+00  3.9150581730723754e-06 4.3633768276223837e-04 0.0000000000000000e+00  -7.3456231319547948e-06 9.0268530758392867e-05 0.0000000000000000e+00  -1.0456237774314572e-05 2.0744617021009314e-04 0.0000000000000000e+00  3.9861768403971999e-06 3.9254638259436523e-04 0.0000000000000000e+00  3.8106585144212128e-06 5.2507869313799915e-04 0.0000000000000000e+00  -1.2833052575477018e-05 2.4596786842029448e-04 0.0000000000000000e+00  4.0626837910009100e-06 3.4940142587501055e-04 0.0000000000000000e+00  -4.1079856854418060e-07 4.0403946453491266e-07 0.0000000000000000e+00  2.2717410971353239e-07 2.9568155649834764e-07 0.0000000000000000e+00  -1.2076895756790729e-05 8.1117087730177815e-04 0.0000000000000000e+00  -2.3580263148780764e-06 4.9347912735411251e-06 0.0000000000000000e+00  6.0262031481380088e-06 3.1182512412858269e-04 0.000000000000000