<?xml version="1.0"?>
<VTKFile type="UnstructuredGrid"  version="0.1"  >
<UnstructuredGrid>
<Piece  NumberOfPoints="1419" NumberOfCells="2698">
<Points>
<DataArray  type="Float64"  NumberOfComponents="3"  format="ascii">0 0 0  0 0.41 0  2.5 0 0  2.5 0.41 0  0.6 0.19 0  0.6 0.21 0  0.25 0.2 0  0.15 0.2 0  0.2489897948556636 0.21 0  0.2489897948556636 0.19 0  0.6 0.2 0  0 0.3807142857143437 0  0 0.3514285714286952 0  0 0.3221428571430699 0  0 0.29285714285744 0  0 0.2635714285718054 0  0 0.2342857142861561 0  0 0.2050000000005308 0  0 0.175714285714732 0  0 0.1464285714289574 0  0 0.1171428571431897 0  0 0.08785714285737878 0  0 0.05857142857161107 0  0 0.02928571428580012 0  0.03015443760436003 0 0  0.06140001986583606 0 0  0.09377624077125973 0 0  0.1273239957535082 0 0  0.1620856860351972 0 0  0.1981052433264291 0 0  0.235428184091502 0 0  0.2741016576309132 0 0  0.3141745521465447 0 0  0.3556974926295285 0 0  0.3987229542472677 0 0  0.4433053055141081 0 0  0.4895008759286886 0 0  0.5373680609405097 0 0  0.5869673343216626 0 0  0.6383613676634521 0 0  0.6916151138468254 0 0  0.7467958595648856 0 0  0.8039733463919316 0 0  0.8632198139502143 0 0  0.9246101326867038 0 0  0.9882218810934433 0 0  1.054135445558498 0 0  1.122434100542598 0 0  1.193204177141305 0 0  1.266535089879536 0 0  1.342519516046404 0 0  1.421253448503939 0 0  1.502836389106271 0 0  1.587371439758838 0 0  1.674965418777374 0 0  1.765729001825544 0 0  1.859776908880082 0 0  1.957227977487062 0 0  2.058205329869943 0 0  2.162836591189951 0 0  2.271253957290865 0 0  2.383594446803425 0 0  2.5 0.1024999999997612 0  2.5 0.2049999999994743 0  2.5 0.3074999999997183 0  2.383594446803656 0.41 0  2.271253957291315 0.41 0  2.162836591190598 0.41 0  2.058205329870775 0.41 0  1.957227977488067 0.41 0  1.859776908881246 0.41 0  1.765729001826854 0.41 0  1.674965418778818 0.41 0  1.58737143976041 0.41 0  1.502836389107956 0.41 0  1.421253448505726 0.41 0  1.342519516048286 0.41 0  1.266535089881505 0.41 0  1.193204177143353 0.41 0  1.122434100544716 0.41 0  1.05413544556068 0.41 0  0.9882218810956305 0.41 0  0.9246101326886647 0.41 0  0.8632198139519631 0.41 0  0.8039733463934788 0.41 0  0.7467958595662458 0.41 0  0.6916151138480078 0.41 0  0.6383613676644679 0.41 0  0.5869673343225223 0.41 0  0.5373680609412221 0.41 0  0.4895008759292634 0.41 0  0.4433053055145528 0.41 0  0.3987229542475914 0.41 0  0.3556974926297398 0.41 0  0.3141745521466497 0.41 0  0.2741016576310038 0.41 0  0.2354281840915826 0.41 0  0.1981052433265003 0.41 0  0.1620856860352591 0.41 0  0.1273239957535623 0.41 0  0.09377624077128965 0.41 0  0.06140001986584975 0.41 0  0.03015443760436654 0.41 0  0.2497468076502589 0.2050254481002335 0  0.2497468076502614 0.1949745518997913 0  0.2469965252529372 0.1829317073451959 0  0.2439893735792749 0.1762316384219906 0  0.2400332147834255 0.1700443375285386 0  0.2352133972704371 0.1645032867342007 0  0.2296339016332438 0.1597280261969788 0  0.2234150974217223 0.1558215752574715 0  0.2166911463437691 0.1528682099456123 0  0.2096071079204251 0.1509316448471593 0  0.2023158100364996 0.1500536585536553 0  0.194974551899914 0.1502531923497262 0  0.1877417105387872 0.1515259415822739 0  0.1807733240461124 0.153844448527136 0  0.1742197252835808 0.15715869474974 0  0.1682222986673531 0.1613971801805478 0  0.162910430003803 0.1664684656256651 0  0.1583987151779087 0.1722631454351573 0  0.1547844879126891 0.178656207771761 0  0.1521457199348551 0.1855097315605723 0  0.1505393388476355 0.1926758619366523 0  0.1505393388476328 0.2073241380633295 0  0.1521457199348437 0.2144902684393899 0  0.1547844879126531 0.221343792228163 0  0.1583987151778488 0.2277368545647528 0  0.1629104300036858 0.2335315343742052 0  0.1682222986671726 0.2386028198193036 0  0.1742197252833576 0.2428413052501257 0  0.1807733240458683 0.2461555514727623 0  0.1877417105384929 0.2484740584176516 0  0.1949745518995776 0.2497468076502398 0  0.202315810036185 0.2499463414463592 0  0.2096071079201568 0.2490683551528932 0  0.2166911463435495 0.2471317900544655 0  0.2234150974215506 0.2441784247426195 0  0.2296339016331197 0.2402719738031125 0  0.2352133972703547 0.2354967132658811 0  0.2400332147833751 0.2299556624715287 0  0.2439893735792577 0.2237683615780412 0  0.246996525252926 0.2170682926548348 0  0.25645809709277 0.21 0  0.2639263993298655 0.21 0  0.271394701566961 0.21 0  0.2788630038040554 0.21 0  0.2863313060411479 0.21 0  0.2937996082782405 0.21 0  0.301267910515333 0.21 0  0.3087362127524279 0.21 0  0.3162045149895234 0.21 0  0.3236728172265972 0.21 0  0.3311411194636928 0.21 0  0.3386094217007701 0.21 0  0.3460777239378666 0.21 0  0.3535460261749672 0.21 0  0.3610143284120516 0.21 0  0.3684826306491596 0.21 0  0.3759509328862226 0.21 0  0.383419235123329 0.21 0  0.3908875373604028 0.21 0  0.3983558395975142 0.21 0  0.4058241418345938 0.21 0  0.4132924440716992 0.21 0  0.4207607463087888 0.21 0  0.4282290485459029 0.21 0  0.4356973507830418 0.21 0  0.4431656530201649 0.21 0  0.4506339552573136 0.21 0  0.4581022574944306 0.21 0  0.4655705597315852 0.21 0  0.4730388619686996 0.21 0  0.480507164205851 0.21 0  0.4879754664429498 0.21 0  0.4954437686800938 0.21 0  0.502912070917267 0.21 0  0.5103803731544119 0.21 0  0.5178486753915261 0.21 0  0.5253169776286404 0.21 0  0.5327852798657868 0.21 0  0.5402535821029386 0.21 0  0.54772188434007 0.21 0  0.5551901865771842 0.21 0  0.5626584888143201 0.21 0  0.5701267910514778 0.21 0  0.5775950932886138 0.21 0  0.5850633955257281 0.21 0  0.5925316977628483 0.21 0  0.6 0.2050000000000054 0  0.6 0.1950000000000217 0  0.5925316977628897 0.19 0  0.5850633955257988 0.19 0  0.5775950932887378 0.19 0  0.5701267910515998 0.19 0  0.5626584888145268 0.19 0  0.5551901865773963 0.19 0  0.547721884340339 0.19 0  0.5402535821032429 0.19 0  0.5327852798661811 0.19 0  0.5253169776290537 0.19 0  0.5178486753919799 0.19 0  0.5103803731549078 0.19 0  0.502912070917822 0.19 0  0.4954437686807294 0.19 0  0.4879754664436223 0.19 0  0.4805071642065402 0.19 0  0.4730388619694271 0.19 0  0.4655705597323621 0.19 0  0.4581022574952563 0.19 0  0.4506339552581777 0.19 0  0.4431656530210671 0.19 0  0.4356973507839815 0.19 0  0.4282290485468779 0.19 0  0.4207607463097617 0.19 0  0.4132924440726327 0.19 0  0.4058241418354857 0.19 0  0.3983558395983636 0.19 0  0.3908875373612097 0.19 0  0.3834192351240934 0.19 0  0.3759509328869369 0.19 0  0.3684826306498175 0.19 0  0.361014328412667 0.19 0  0.3535460261755617 0.19 0  0.3460777239384295 0.19 0  0.3386094217012945 0.19 0  0.3311411194641595 0.19 0  0.3236728172270245 0.19 0  0.3162045149898895 0.19 0  0.3087362127527544 0.19 0  0.3012679105156187 0.19 0  0.2937996082784807 0.19 0  0.2863313060413428 0.19 0  0.2788630038042048 0.19 0  0.2713947015670686 0.19 0  0.2639263993299336 0.19 0  0.2564580970927985 0.19 0  0.2607803159922026 0.2000727136295815 0  0.5887803774232762 0.2001272386983733 0  0.5745072403740523 0.2002044435018727 0  0.5511891430099709 0.2001122610077113 0  0.2751288526855082 0.20000000000002 0  0.5365194309847112 0.1999999999999436 0  0.2894621222999649 0.1998691686390484 0  0.5215828265105155 0.1999999999999228 0  0.3127789816668748 0.1998657885438805 0  0.3274069683451451 0.2000000000000796 0  0.5066462220363641 0.199999999999908 0  0.3650630746574081 0.199866017807523 0  0.476773013087985 0.1999999999998713 0  0.3417402379596385 0.1998691686391011 0  0.3796850840047755 0.200000000000134 0  0.4618364086138087 0.1999999999998546 0  0.4917096175621762 0.1999999999998808 0  0.3946216884789568 0.2000000000001512 0  0.446899804139621 0.1999999999998389 0  0.4089549580935208 0.1998691686391595 0  0.4322718174608562 0.200127451265745 0  0.4201487168029707 0.1999966199048527 0  0.3528922713220932 0.2000185703532356 0  0.5633122436674589 0.1999814296467508 0  0.3006558810093873 0.1999966199048318 0  0.5815926498168407 0.1966545283159175 0  0.2677053789419034 0.1964246479135325 0  0.5290511287476175 0.1970915826863981 0  0.5439877332217911 0.197091582686394 0  0.2825131256993216 0.2035478995978015 0  0.3199386661080599 0.202908417313604 0  0.4842413153250809 0.1970915826863873 0  0.5141145242734466 0.1970915826863843 0  0.3722167817676917 0.2029084173136195 0  0.4693047108508938 0.1970915826863783 0  0.3348752705822316 0.202908417313609 0  0.3871533862418661 0.2029084173136212 0  0.4543681063767183 0.1970915826863795 0  0.4991779197992749 0.1970915826863902 0  0.4020059614928624 0.203547899597858 0  0.4394315019025246 0.1970915826863714 0  0.2550657455369551 0.2034088125358657 0  0.2548908499171161 0.1966940311614271 0  0.5946539510196798 0.2024302972968126 0  0.267698176732111 0.2039977513680092 0  0.4261685417851465 0.196409292431739 0  0.3590076176283495 0.196411355804271 0  0.5571672426447437 0.2036011176410121 0  0.3066757059912147 0.1964092924317024 0  0.594380730180568 0.1966558399668133 0  0.4842413153245942 0.2040749161535287 0  0.4693047108503577 0.2040749161535231 0  0.3871533862424271 0.1959250838464788 0  0.372246743208829 0.1959123236376545 0  0.5141145242731028 0.2040749161535395 0  0.4543681063761134 0.2040749161535186 0  0.4019979587101454 0.1959834479682427 0  0.4394608940728603 0.2040870543693135 0  0.5439623148931173 0.2040856076781014 0  0.5290511287473298 0.2040749161535501 0  0.4991779197988497 0.2040749161535382 0  0.3347912413592433 0.1959225448935183 0  0.3199680582793816 0.1959123018030061 0  0.2825051229162361 0.1959834479681729 0  0.3590471196690275 0.2036304442587945 0  0.5571594006495384 0.1963685282145804 0  0.3067669986803285 0.203627750582736 0  0.4262598344738712 0.2036568242185335 0  0.5814408164431408 0.2041285596160068 0  0.5688286748170428 0.1961819304477386 0  0.4145905603063645 0.2038180695522843 0  0.3473758401724931 0.2038180695522752 0  0.2950977245128307 0.2038180695522663 0  0.5688286748170693 0.203818069552238 0  0.2950977245127906 0.1961819304477774 0  0.3473758401723931 0.1961819304478349 0  0.4145905603061963 0.1961819304479011 0  0.2601812407614425 0.2056861609747042
[...]
<PointData  Vectors="f_46-0"> 
<DataArray  type="Float64"  Name="f_46-0"  NumberOfComponents="3" format="ascii">0.0000000000000000e+00 0.0000000000000000e+00 0.0000000000000000e+00  0.0000000000000000e+00 0.0000000000000000e+00 0.0000000000000000e+00  0.0000000000000000e+00 0.0000000000000000e+00 0.0000000000000000e+00  0.0000000000000000e+00 0.0000000000000000e+00 0.0000000000000000e+00  -1.4264431363595559e-05 1.6539089603387463e-05 0.0000000000000000e+00  -1.0005124755876135e-05 1.6710948289395336e-05 0.0000000000000000e+00  0.0000000000000000e+00 0.0000000000000000e+00 0.0000000000000000e+00  0.0000000000000000e+00 0.0000000000000000e+00 0.0000000000000000e+00  0.0000000000000000e+00 0.0000000000000000e+00 0.0000000000000000e+00  0.0000000000000000e+00 0.0000000000000000e+00 0.0000000000000000e+00  -1.2062065537118867e-05 1.6630714185393050e-05 0.0000000000000000e+00  7.9591836734548407e-02 0.0000000000000000e+00 0.0000000000000000e+00  1.4693877550994527e-01 0.0000000000000000e+00 0.0000000000000000e+00  2.0204081632617479e-01 0.0000000000000000e+00 0.0000000000000000e+00  2.4489795918330076e-01 0.0000000000000000e+00 0.0000000000000000e+00  2.7551020408131754e-01 0.0000000000000000e+00 0.0000000000000000e+00  2.9387755102022350e-01 0.0000000000000000e+00 0.0000000000000000e+00  3.0000000000000004e-01 0.0000000000000000e+00 0.0000000000000000e+00  2.9387755102059482e-01 0.0000000000000000e+00 0.0000000000000000e+00  2.7551020408195548e-01 0.0000000000000000e+00 0.0000000000000000e+00  2.4489795918409074e-01 0.0000000000000000e+00 0.0000000000000000e+00  2.0204081632692528e-01 0.0000000000000000e+00 0.0000000000000000e+00  1.4693877551058568e-01 0.0000000000000000e+00 0.0000000000000000e+00  7.9591836734909216e-02 0.0000000000000000e+00 0.0000000000000000e+00  0.0000000000000000e+00 0.0000000000000000e+00 0.0000000000000000e+00  0.0000000000000000e+00 0.0000000000000000e+00 0.0000000000000000e+00  0.0000000000000000e+00 0.0000000000000000e+00 0.0000000000000000e+00  0.0000000000000000e+00 0.0000000000000000e+00 0.0000000000000000e+00  0.0000000000000000e+00 0.0000000000000000e+00 0.0000000000000000e+00  0.0000000000000000e+00 0.0000000000000000e+00 0.0000000000000000e+00  0.0000000000000000e+00 0.0000000000000000e+00 0.0000000000000000e+00  0.0000000000000000e+00 0.0000000000000000e+00 0.0000000000000000e+00  0.0000000000000000e+00 0.0000000000000000e+00 0.0000000000000000e+00  0.0000000000000000e+00 0.0000000000000000e+00 0.0000000000000000e+00  0.0000000000000000e+00 0.0000000000000000e+00 0.0000000000000000e+00  0.0000000000000000e+00 0.0000000000000000e+00 0.0000000000000000e+00  0.0000000000000000e+00 0.0000000000000000e+00 0.0000000000000000e+00  0.0000000000000000e+00 0.0000000000000000e+00 0.0000000000000000e+00  0.0000000000000000e+00 0.0000000000000000e+00 0.0000000000000000e+00  0.0000000000000000e+00 0.0000000000000000e+00 0.0000000000000000e+00  0.0000000000000000e+00 0.0000000000000000e+00 0.0000000000000000e+00  0.0000000000000000e+00 0.0000000000000000e+00 0.0000000000000000e+00  0.0000000000000000e+00 0.0000000000000000e+00 0.0000000000000000e+00  0.0000000000000000e+00 0.0000000000000000e+00 0.0000000000000000e+00  0.0000000000000000e+00 0.0000000000000000e+00 0.0000000000000000e+00  0.0000000000000000e+00 0.0000000000000000e+00 0.0000000000000000e+00  0.0000000000000000e+00 0.0000000000000000e+00 0.0000000000000000e+00  0.0000000000000000e+00 0.0000000000000000e+00 0.0000000000000000e+00  0.0000000000000000e+00 0.0000000000000000e+00 0.0000000000000000e+00  0.0000000000000000e+00 0.0000000000000000e+00 0.0000000000000000e+00  0.0000000000000000e+00 0.0000000000000000e+00 0.0000000000000000e+00  0.0000000000000000e+00 0.0000000000000000e+00 0.0000000000000000e+00  0.0000000000000000e+00 0.0000000000000000e+00 0.0000000000000000e+00  0.0000000000000000e+00 0.0000000000000000e+00 0.0000000000000000e+00  0.0000000000000000e+00 0.0000000000000000e+00 0.0000000000000000e+00  0.0000000000000000e+00 0.0000000000000000e+00 0.0000000000000000e+00  0.0000000000000000e+00 0.0000000000000000e+00 0.0000000000000000e+00  0.0000000000000000e+00 0.0000000000000000e+00 0.0000000000000000e+00  0.0000000000000000e+00 0.0000000000000000e+00 0.0000000000000000e+00  0.0000000000000000e+00 0.0000000000000000e+00 0.0000000000000000e+00  0.0000000000000000e+00 0.0000000000000000e+00 0.0000000000000000e+00  0.0000000000000000e+00 0.0000000000000000e+00 0.0000000000000000e+00  2.6113669721598881e-01 5.5260721032255019e-03 0.0000000000000000e+00  2.6885315642598195e-01 9.4764155045545563e-03 0.0000000000000000e+00  2.6593128471982774e-01 -1.2834677412091652e-02 0.0000000000000000e+00  0.0000000000000000e+00 0.0000000000000000e+00 0.0000000000000000e+00  0.0000000000000000e+00 0.0000000000000000e+00 0.0000000000000000e+00  0.0000000000000000e+00 0.0000000000000000e+00 0.0000000000000000e+00  0.0000000000000000e+00 0.0000000000000000e+00 0.0000000000000000e+00  0.0000000000000000e+00 0.0000000000000000e+00 0.0000000000000000e+00  0.0000000000000000e+00 0.0000000000000000e+00 0.0000000000000000e+00  0.0000000000000000e+00 0.0000000000000000e+00 0.0000000000000000e+00  0.0000000000000000e+00 0.0000000000000000e+00 0.0000000000000000e+00  0.0000000000000000e+00 0.0000000000000000e+00 0.0000000000000000e+00  0.0000000000000000e+00 0.0000000000000000e+00 0.0000000000000000e+00  0.0000000000000000e+00 0.0000000000000000e+00 0.0000000000000000e+00  0.0000000000000000e+00 0.0000000000000000e+00 0.0000000000000000e+00  0.0000000000000000e+00 0.0000000000000000e+00 0.0000000000000000e+00  0.0000000000000000e+00 0.0000000000000000e+00 0.0000000000000000e+00  0.0000000000000000e+00 0.0000000000000000e+00 0.0000000000000000e+00  0.0000000000000000e+00 0.0000000000000000e+00 0.0000000000000000e+00  0.0000000000000000e+00 0.0000000000000000e+00 0.0000000000000000e+00  0.0000000000000000e+00 0.0000000000000000e+00 0.0000000000000000e+00  0.0000000000000000e+00 0.0000000000000000e+00 0.0000000000000000e+00  0.0000000000000000e+00 0.0000000000000000e+00 0.0000000000000000e+00  0.0000000000000000e+00 0.0000000000000000e+00 0.0000000000000000e+00  0.0000000000000000e+00 0.0000000000000000e+00 0.0000000000000000e+00  0.0000000000000000e+00 0.0000000000000000e+00 0.0000000000000000e+00  0.0000000000000000e+00 0.0000000000000000e+00 0.0000000000000000e+00  0.0000000000000000e+00 0.0000000000000000e+00 0.0000000000000000e+00  0.0000000000000000e+00 0.0000000000000000e+00 0.0000000000000000e+00  0.0000000000000000e+00 0.0000000000000000e+00 0.0000000000000000e+00  0.0000000000000000e+00 0.0000000000000000e+00 0.0000000000000000e+00  0.0000000000000000e+00 0.0000000000000000e+00 0.0000000000000000e+00  0.0000000000000000e+00 0.0000000000000000e+00 0.0000000000000000e+00  0.0000000000000000e+00 0.0000000000000000e+00 0.0000000000000000e+00  0.0000000000000000e+00 0.0000000000000000e+00 0.0000000000000000e+00  0.0000000000000000e+00 0.0000000000000000e+00 0.0000000000000000e+00  0.0000000000000000e+00 0.0000000000000000e+00 0.0000000000000000e+00  0.0000000000000000e+00 0.0000000000000000e+00 0.0000000000000000e+00  0.0000000000000000e+00 0.0000000000000000e+00 0.0000000000000000e+00  0.0000000000000000e+00 0.0000000000000000e+00 0.0000000000000000e+00  0.0000000000000000e+00 0.0000000000000000e+00 0.0000000000000000e+00  0.0000000000000000e+00 0.0000000000000000e+00 0.0000000000000000e+00  0.0000000000000000e+00 0.0000000000000000e+00 0.0000000000000000e+00  8.2246951182823664e-16 0.0000000000000000e+00 0.0000000000000000e+00  0.0000000000000000e+00 0.0000000000000000e+00 0.0000000000000000e+00  0.0000000000000000e+00 0.0000000000000000e+00 0.0000000000000000e+00  0.0000000000000000e+00 0.0000000000000000e+00 0.0000000000000000e+00  0.0000000000000000e+00 0.0000000000000000e+00 0.0000000000000000e+00  0.0000000000000000e+00 0.0000000000000000e+00 0.0000000000000000e+00  0.0000000000000000e+00 0.0000000000000000e+00 0.0000000000000000e+00  0.0000000000000000e+00 0.0000000000000000e+00 0.0000000000000000e+00  0.0000000000000000e+00 0.0000000000000000e+00 0.0000000000000000e+00  0.0000000000000000e+00 0.0000000000000000e+00 0.0000000000000000e+00  0.0000000000000000e+00 0.0000000000000000e+00 0.0000000000000000e+00  0.0000000000000000e+00 0.0000000000000000e+00 0.0000000000000000e+00  0.0000000000000000e+00 0.0000000000000000e+00 0.0000000000000000e+00  0.0000000000000000e+00 0.0000000000000000e+00 0.0000000000000000e+00  0.0000000000000000e+00 0.0000000000000000e+00 0.0000000000000000e+00  0.0000000000000000e+00 0.0000000000000000e+00 0.0000000000000000e+00  0.0000000000000000e+00 0.0000000000000000e+00 0.0000000000000000e+00  0.0000000000000000e+00 0.0000000000000000e+00 0.0000000000000000e+00  0.0000000000000000e+00 0.0000000000000000e+00 0.0000000000000000e+00  0.0000000000000000e+00 0.0000000000000000e+00 0.0000000000000000e+00  0.0000000000000000e+00 0.0000000000000000e+00 0.0000000000000000e+00  0.0000000000000000e+00 0.0000000000000000e+00 0.0000000000000000e+00  0.0000000000000000e+00 0.0000000000000000e+00 0.0000000000000000e+00  0.0000000000000000e+00 0.0000000000000000e+00 0.0000000000000000e+00  0.0000000000000000e+00 0.0000000000000000e+00 0.0000000000000000e+00  0.0000000000000000e+00 0.0000000000000000e+00 0.0000000000000000e+00  0.0000000000000000e+00 0.0000000000000000e+00 0.0000000000000000e+00  0.0000000000000000e+00 0.0000000000000000e+00 0.0000000000000000e+00  0.0000000000000000e+00 0.0000000000000000e+00 0.0000000000000000e+00  0.0000000000000000e+00 0.0000000000000000e+00 0.0000000000000000e+00  0.0000000000000000e+00 0.0000000000000000e+00 0.0000000000000000e+00  0.0000000000000000e+00 0.0000000000000000e+00 0.0000000000000000e+00  0.0000000000000000e+00 0.0000000000000000e+00 0.0000000000000000e+00  0.0000000000000000e+00 0.0000000000000000e+00 0.0000000000000000e+00  0.0000000000000000e+00 0.0000000000000000e+00 0.0000000000000000e+00  0.0000000000000000e+00 0.0000000000000000e+00 0.0000000000000000e+00  0.0000000000000000e+00 0.0000000000000000e+00 0.0000000000000000e+00  1.0230193657689550e-13 0.0000000000000000e+00 0.0000000000000000e+00  -1.2120903750178924e-06 1.2768660566150650e-06 0.0000000000000000e+00  -2.4666632048025400e-06 2.3190337328719104e-06 0.0000000000000000e+00  -3.5908231285132961e-06 3.7771115339598074e-06 0.0000000000000000e+00  -4.6910648176703644e-06 5.6704877716962433e-06 0.0000000000000000e+00  -5.6371270497577683e-06 7.8304231882685021e-06 0.0000000000000000e+00  -6.5409960771954916e-06 1.0264875205634999e-05 0.0000000000000000e+00  -7.3187601496083995e-06 1.2828997240203177e-05 0.0000000000000000e+00  -8.0173205368257413e-06 1.5519532429277657e-05 0.0000000000000000e+00  -8.6576650694299314e-06 1.8258914764077665e-05 0.0000000000000000e+00  -9.2004695194878794e-06 2.0980036049533885e-05 0.0000000000000000e+00  -9.6584630462835722e-06 2.3681139578287448e-05 0.0000000000000000e+00  -1.0062651210475870e-05 2.6264831189246725e-05 0.0000000000000000e+00  -1.0358530437816863e-05 2.8740732554942345e-05 0.0000000000000000e+00  -1.0632890092345065e-05 3.1082008176777606e-05 0.0000000000000000e+00  -1.0841411736143117e-05 3.3224380343290926e-05 0.0000000000000000e+00  -1.0954582900059650e-05 3.5200827135889114e-05 0.0000000000000000e+00  -1.1073789050401949e-05 3.6950084911496607e-05 0.0000000000000000e+00  -1.1074999305410377e-05 3.8506063454845728e-05 0.0000000000000000e+00  -1.1114962319085694e-05 3.9810464457838976e-05 0.0000000000000000e+00  -1.1050874441589919e-05 4.0920599678737712e-05 0.0000000000000000e+00  -1.1017772553580004e-05 4.1773324950318994e-05 0.0000000000000000e+00  -1.0903406315147240e-05 4.2406817764512689e-05 0.0000000000000000e+00  -1.0838426883098464e-05 4.2856582824307917e-05 0.0000000000000000e+00  -1.0755074042154384e-05 4.3060538315288996e-05 0.0000000000000000e+00  -1.0622429361286768e-05 4.3101815181750308e-05 0.0000000000000000e+00  -1.0520968832211582e-05 4.2928949207654026e-05 0.0000000000000000e+00  -1.0403508702982285e-05 4.2588701370552456e-05 0.0000000000000000e+00  -1.0306599748343171e-05 4.2081083069269175e-05 0.0000000000000000e+00  -1.0201181865593912e-05 4.1421902114859012e-05 0.0000000000000000e+00  -1.0119892218325750e-05 4.0626192942566275e-05 0.0000000000000000e+00  -1.0035985951147575e-05 3.9702231587228229e-05 0.0000000000000000e+00  -9.9754740217629668e-06 3.8668332240876049e-05 0.0000000000000000e+00  -9.9167574100193462e-06 3.7531046426776977e-05 0.0000000000000000e+00  -9.8781661198935530e-06 3.6309717484743588e-05 0.0000000000000000e+00  -9.8441163951918053e-06 3.5009371095831510e-05 0.0000000000000000e+00  -9.8276463767367021e-06 3.3647968173702117e-05 0.0000000000000000e+00  -9.8159631814086712e-06 3.2229286164924404e-05 0.0000000000000000e+00  -9.8176198463580866e-06 3.0768633799995811e-05 0.0000000000000000e+00  -9.8233239078422684e-06 2.9269707592993229e-05 0.0000000000000000e+00  -9.8376531229558384e-06 2.7743384654344619e-05 0.0000000000000000e+00  -9.8527437150472001e-06 2.6191238430629251e-05 0.0000000000000000e+00  -9.8744523781221268e-06 2.4625784745614437e-05 0.0000000000000000e+00  -9.8969367926012110e-06 2.3045560008203235e-05 0.0000000000000000e+00  -9.9182346771527061e-06 2.1458148601701918e-05 0.0000000000000000e+00  -9.9384472371515644e-06 1.9861937941576744e-05 0.0000000000000000e+00  -9.9634204705403902e-06 1.8269533081082272e-05 0.0000000000000000e+00  -1.1010790903839973e-05 1.6671300879715779e-05 0.0000000000000000e+00  -1.3140044691480657e-05 1.6589666043988134e-05 0.0000000000000000e+00  -1.4216500034151020e-05 1.8170292539770823e-05 0.0000000000000000e+00  -1.4184605667832384e-05 1.9754620614320874e-05 0.0000000000000000e+00  -1.4151950141198835e-05 2.1331937940964615e-05 0.0000000000000000e+00  -1.4106531278462027e-05 2.2908076097979909e-05 0.0000000000000000e+00  -1.4056486274796550e-05 2.4478570576804329e-05 0.0000000000000000e+00  -1.3995468471884509e-05 2.6035477757654148e-05 0.0000000000000000e+00  -1.3919017570448594e-05 2.7579923770477919e-05 0.0000000000000000e+00  -1.3837721646270716e-05 2.9098830655892677e-05 0.0000000000000000e+00  -1.3732250464082310e-05 3.0594335789630339e-05 0.0000000000000000e+00  -1.3626622294833845e-05 3.2047857451859427e-05 0.0000000000000000e+00  -1.3489416007313296e-05 3.3462929224678105e-05 0.0000000000000000e+00  -1.3355582030531174e-05 3.4816552886698629e-05 0.0000000000000000e+00  -1.3180604609556122e-05 3.6112036741008879e-05 0.0000000000000000e+00  -1.3013416356931119e-05 3.7323312509885891e-05 0.0000000000000000e+00  -1.2795175555227109e-05 3.8453662269613078e-05 0.0000000000000000e+00  -1.2590258069978888e-05 3.9473685433975196e-05 0.0000000000000000e+00  -1.2324191192882848e-05 4.0387856279968214e-05 0.0000000000000000e+00  -1.2076709349164713e-05 4.1162388498187108e-05 0.0000000000000000e+00  -1.1755450677233544e-05 4.1806325365839915e-05 0.0000000000000000e+00  -1.1458637075322498e-05 4.2283050318451576e-05 0.0000000000000000e+00  -1.1076015027158661e-05 4.2603228736595371e-05 0.0000000000000000e+00  -1.0723214393284771e-05 4.2727142542296495e-05 0.0000000000000000e+00  -1.0278379012087096e-05 4.2663366810070207e-05 0.0000000000000000e+00  -9.8565306021173719e-06 4.2407856387584920e-05 0.0000000000000000e+00  -9.4047808252425864e-06 4.1908028246665362e-05 0.0000000000000000e+00  -8.8788526382378004e-06 4.1230747831903739e-05 0.0000000000000000e+00  -8.3560368488599290e-06 4.0293010962500441e-05 0.0000000000000000e+00  -7.7782733266834139e-06 3.9151168410265779e-05 0.0000000000000000e+00  -7.1983021348960047e-06 3.7756204776059359e-05 0.0000000000000000e+00  -6.5734266975791497e-06 3.6154545641004113e-05 0.0000000000000000e+00  -5.9481879783196095e-06 3.4322544310400925e-05 0.0000000000000000e+00  -5.2715016611333825e-06 3.2275874151886292e-05 0.0000000000000000e+00  -4.6347214904985319e-06 3.0064931215835120e-05 0.0000000000000000e+00  -3.9952566017370374e-06 2.7662154173033891e-05 0.0000000000000000e+00  -3.3298408504701046e-06 2.5138841143245702e-05 0.0000000000000000e+00  -2.7009286794830398e-06 2.2489567263818012e-05 0.0000000000000000e+00  -2.0868130368329501e-06 1.9760932223380827e-05 0.0000000000000000e+00  -1.5153344061874255e-06 1.6998048732942780e-05 0.0000000000000000e+00  -1.0020975233193811e-06 1.4242253065512710e-05 0.0000000000000000e+00  -5.2995477984964962e-07 1.1541095829189394e-05 0.0000000000000000e+00  -1.2270065931382154e-07 8.9764525772877343e-06 0.0000000000000000e+00  1.7075889456549927e-07 6.5461001158918956e-06 0.0000000000000000e+00  4.0135984689909891e-07 4.3849170250800442e-06 0.0000000000000000e+00  4.6466440084679891e-07 2.5174970776381617e-06 0.0000000000000000e+00  4.8193827652428802e-07 1.0962022181663780e-06 0.0000000000000000e+00  2.6502029698122265e-07 1.4647326228656460e-07 0.0000000000000000e+00  -6.6619470482583005e-07 8.6230817546217537e-07 0.0000000000000000e+00  -1.2021695561953352e-05 1.9020493659722920e-05 0.0000000000000000e+00  -1.1969187789016782e-05 2.2056773628585578e-05 0.0000000000000000e+00  -1.1869658883908467e-05 2.6961044582406131e-05 0.0000000000000000e+00  -1.8381635714330718e-06 3.8029768568775462e-06 0.0000000000000000e+00  -1.1794848610215441e-05 2.9959849834837223e-05 0.0000000000000000e+00  -2.9348541345064926e-06 8.0214775113042759e-06 0.0000000000000000e+00  -1.1682637376834616e-05 3.2887245164320789e-05 0.0000000000000000e+00  -4.7480186970334286e-06 1.6330713143566757e-05 0.0000000000000000e+00  -5.8762270608727142e-06 2.1767528510973694e-05 0.0000000000000000e+00  -1.1557134824412031e-05 3.5618240715459505e-05 0.0000000000000000e+00  -8.2024890172428478e-06 3.3985279003380330e-05 0.0000000000000000e+00  -1.1257178847120560e-05 4.0141370776611481e-05 0.0000000000000000e+00  -6.8194862533667057e-06 2.6838373493306794e-05 0.0000000000000000e+00  -8.9378064283634578e-06 3.7506369208128713e-05 0.0000000000000000e+00  -1.1071426382346591e-05 4.1732301227531498e-05 0.0000000000000000e+00  -1.1416636607941374e-05 3.8068547925589105e-05 0.0000000000000000e+00  -9.5366148073323464e-06 4.0216241700902195e-05 0.0000000000000000e+00  -1.0848528971650413e-05 4.2734033504549993e-05 0.0000000000000000e+00  -9.9958081128557157e-06 4.1948790241688342e-05 0.0000000000000000e+00  -1.0582059437160697e-05 4.3045547738206454e-05 0.0000000000000000e+00  -1.0298421102679564e-05 4.2702060593964808e-05 0.0000000000000000e+00  -7.5497598064219886e-06 3.0447278672104732e-05 0.0000000000000000e+00  -1.1962239650881708e-05 2.4421320144293388e-05 0.0000000000000000e+00  -3.8504040346267921e-06 1.1904133260199006e-05 0.0000000000000000e+00  -1.2744674571251102e-05 2.0531563533771582e-05 0.0000000000000000e+00  -6.2220026925241441e-07 1.9025982867070732e-06 0.0000000000000000e+00  -1.2301333970658314e-05 3.1413567406093429e-05 0.0000000000000000e+00  -1.2433975676012474e-05 2.8417615213938674e-05 0.0000000000000000e+00  -3.3736624961692951e-06 6.1161765086351941e-06 0.0000000000000000e+00  -6.3644365216385428e-06 1.9187040323653377e-05 0.0000000000000000e+00  -1.1728997952895809e-05 3.9116439774337900e-05 0.0000000000000000e+00  -1.2142111665979758e-05 3.4248989763713278e-05 0.0000000000000000e+00  -9.2815474441061702e-06 3.5918061053317455e-05 0.0000000000000000e+00  -1.1463532183739422e-05 4.0955133250033806e-05 0.0000000000000000e+00  -7.3947812711912645e-06 2.4623180075827925e-05 0.0000000000000000e+00  -9.7777893356718705e-06 3.9059364541658368e-05 0.0000000000000000e+00  -1.1146082415012751e-05 4.2257135411402528e-05 0.0000000000000000e+00  -1.1952988923365083e-05 3.6847117135003569e-05 0.0000000000000000e+00  -1.0227716005129763e-05 4.1297534237657498e-05 0.0000000000000000e+00  -1.0767957658585340e-05 4.2914791595206759e-05 0.0000000000000000e+00  -3.7177316955530300e-07 3.8658254833663164e-07 0.0000000000000000e+00  -1.3006024564002421e-07 1.0000972129888606e-07 0.0000000000000000e+00  -1.1539403638562079e-05 1.7781183726175049e-05 0.0000000000000000e+00  -1.9372916090299905e-06 2.3973088134677756e-06 0.0000000000000000e+00  -1.0348360