<?xml version="1.0"?>
<VTKFile type="UnstructuredGrid"  version="0.1"  >
<UnstructuredGrid>
<Piece  NumberOfPoints="1419" NumberOfCells="2698">
<Points>
<DataArray  type="Float64"  NumberOfComponents="3"  format="ascii">0 0 0  0 0.41 0  2.5 0 0  2.5 0.41 0  0.6 0.19 0  0.6 0.21 0  0.25 0.2 0  0.15 0.2 0  0.2489897948556636 0.21 0  0.2489897948556636 0.19 0  0.6 0.2 0  0 0.3807142857143437 0  0 0.3514285714286952 0  0 0.3221428571430699 0  0 0.29285714285744 0  0 0.2635714285718054 0  0 0.2342857142861561 0  0 0.2050000000005308 0  0 0.175714285714732 0  0 0.1464285714289574 0  0 0.1171428571431897 0  0 0.08785714285737878 0  0 0.05857142857161107 0  0 0.02928571428580012 0  0.03015443760436003 0 0  0.06140001986583606 0 0  0.09377624077125973 0 0  0.1273239957535082 0 0  0.1620856860351972 0 0  0.1981052433264291 0 0  0.235428184091502 0 0  0.2741016576309132 0 0  0.3141745521465447 0 0  0.3556974926295285 0 0  0.3987229542472677 0 0  0.4433053055141081 0 0  0.4895008759286886 0 0  0.5373680609405097 0 0  0.5869673343216626 0 0  0.6383613676634521 0 0  0.6916151138468254 0 0  0.7467958595648856 0 0  0.8039733463919316 0 0  0.8632198139502143 0 0  0.9246101326867038 0 0  0.9882218810934433 0 0  1.054135445558498 0 0  1.122434100542598 0 0  1.193204177141305 0 0  1.266535089879536 0 0  1.342519516046404 0 0  1.421253448503939 0 0  1.502836389106271 0 0  1.587371439758838 0 0  1.674965418777374 0 0  1.765729001825544 0 0  1.859776908880082 0 0  1.957227977487062 0 0  2.058205329869943 0 0  2.162836591189951 0 0  2.271253957290865 0 0  2.383594446803425 0 0  2.5 0.1024999999997612 0  2.5 0.2049999999994743 0  2.5 0.3074999999997183 0  2.383594446803656 0.41 0  2.271253957291315 0.41 0  2.162836591190598 0.41 0  2.058205329870775 0.41 0  1.957227977488067 0.41 0  1.859776908881246 0.41 0  1.765729001826854 0.41 0  1.674965418778818 0.41 0  1.58737143976041 0.41 0  1.502836389107956 0.41 0  1.421253448505726 0.41 0  1.342519516048286 0.41 0  1.266535089881505 0.41 0  1.193204177143353 0.41 0  1.122434100544716 0.41 0  1.05413544556068 0.41 0  0.9882218810956305 0.41 0  0.9246101326886647 0.41 0  0.8632198139519631 0.41 0  0.8039733463934788 0.41 0  0.7467958595662458 0.41 0  0.6916151138480078 0.41 0  0.6383613676644679 0.41 0  0.5869673343225223 0.41 0  0.5373680609412221 0.41 0  0.4895008759292634 0.41 0  0.4433053055145528 0.41 0  0.3987229542475914 0.41 0  0.3556974926297398 0.41 0  0.3141745521466497 0.41 0  0.2741016576310038 0.41 0  0.2354281840915826 0.41 0  0.1981052433265003 0.41 0  0.1620856860352591 0.41 0  0.1273239957535623 0.41 0  0.09377624077128965 0.41 0  0.06140001986584975 0.41 0  0.03015443760436654 0.41 0  0.2497468076502589 0.2050254481002335 0  0.2497468076502614 0.1949745518997913 0  0.2469965252529372 0.1829317073451959 0  0.2439893735792749 0.1762316384219906 0  0.2400332147834255 0.1700443375285386 0  0.2352133972704371 0.1645032867342007 0  0.2296339016332438 0.1597280261969788 0  0.2234150974217223 0.1558215752574715 0  0.2166911463437691 0.1528682099456123 0  0.2096071079204251 0.1509316448471593 0  0.2023158100364996 0.1500536585536553 0  0.194974551899914 0.1502531923497262 0  0.1877417105387872 0.1515259415822739 0  0.1807733240461124 0.153844448527136 0  0.1742197252835808 0.15715869474974 0  0.1682222986673531 0.1613971801805478 0  0.162910430003803 0.1664684656256651 0  0.1583987151779087 0.1722631454351573 0  0.1547844879126891 0.178656207771761 0  0.1521457199348551 0.1855097315605723 0  0.1505393388476355 0.1926758619366523 0  0.1505393388476328 0.2073241380633295 0  0.1521457199348437 0.2144902684393899 0  0.1547844879126531 0.221343792228163 0  0.1583987151778488 0.2277368545647528 0  0.1629104300036858 0.2335315343742052 0  0.1682222986671726 0.2386028198193036 0  0.1742197252833576 0.2428413052501257 0  0.1807733240458683 0.2461555514727623 0  0.1877417105384929 0.2484740584176516 0  0.1949745518995776 0.2497468076502398 0  0.202315810036185 0.2499463414463592 0  0.2096071079201568 0.2490683551528932 0  0.2166911463435495 0.2471317900544655 0  0.2234150974215506 0.2441784247426195 0  0.2296339016331197 0.2402719738031125 0  0.2352133972703547 0.2354967132658811 0  0.2400332147833751 0.2299556624715287 0  0.2439893735792577 0.2237683615780412 0  0.246996525252926 0.2170682926548348 0  0.25645809709277 0.21 0  0.2639263993298655 0.21 0  0.271394701566961 0.21 0  0.2788630038040554 0.21 0  0.2863313060411479 0.21 0  0.2937996082782405 0.21 0  0.301267910515333 0.21 0  0.3087362127524279 0.21 0  0.3162045149895234 0.21 0  0.3236728172265972 0.21 0  0.3311411194636928 0.21 0  0.3386094217007701 0.21 0  0.3460777239378666 0.21 0  0.3535460261749672 0.21 0  0.3610143284120516 0.21 0  0.3684826306491596 0.21 0  0.3759509328862226 0.21 0  0.383419235123329 0.21 0  0.3908875373604028 0.21 0  0.3983558395975142 0.21 0  0.4058241418345938 0.21 0  0.4132924440716992 0.21 0  0.4207607463087888 0.21 0  0.4282290485459029 0.21 0  0.4356973507830418 0.21 0  0.4431656530201649 0.21 0  0.4506339552573136 0.21 0  0.4581022574944306 0.21 0  0.4655705597315852 0.21 0  0.4730388619686996 0.21 0  0.480507164205851 0.21 0  0.4879754664429498 0.21 0  0.4954437686800938 0.21 0  0.502912070917267 0.21 0  0.5103803731544119 0.21 0  0.5178486753915261 0.21 0  0.5253169776286404 0.21 0  0.5327852798657868 0.21 0  0.5402535821029386 0.21 0  0.54772188434007 0.21 0  0.5551901865771842 0.21 0  0.5626584888143201 0.21 0  0.5701267910514778 0.21 0  0.5775950932886138 0.21 0  0.5850633955257281 0.21 0  0.5925316977628483 0.21 0  0.6 0.2050000000000054 0  0.6 0.1950000000000217 0  0.5925316977628897 0.19 0  0.5850633955257988 0.19 0  0.5775950932887378 0.19 0  0.5701267910515998 0.19 0  0.5626584888145268 0.19 0  0.5551901865773963 0.19 0  0.547721884340339 0.19 0  0.5402535821032429 0.19 0  0.5327852798661811 0.19 0  0.5253169776290537 0.19 0  0.5178486753919799 0.19 0  0.5103803731549078 0.19 0  0.502912070917822 0.19 0  0.4954437686807294 0.19 0  0.4879754664436223 0.19 0  0.4805071642065402 0.19 0  0.4730388619694271 0.19 0  0.4655705597323621 0.19 0  0.4581022574952563 0.19 0  0.4506339552581777 0.19 0  0.4431656530210671 0.19 0  0.4356973507839815 0.19 0  0.4282290485468779 0.19 0  0.4207607463097617 0.19 0  0.4132924440726327 0.19 0  0.4058241418354857 0.19 0  0.3983558395983636 0.19 0  0.3908875373612097 0.19 0  0.3834192351240934 0.19 0  0.3759509328869369 0.19 0  0.3684826306498175 0.19 0  0.361014328412667 0.19 0  0.3535460261755617 0.19 0  0.3460777239384295 0.19 0  0.3386094217012945 0.19 0  0.3311411194641595 0.19 0  0.3236728172270245 0.19 0  0.3162045149898895 0.19 0  0.3087362127527544 0.19 0  0.3012679105156187 0.19 0  0.2937996082784807 0.19 0  0.2863313060413428 0.19 0  0.2788630038042048 0.19 0  0.2713947015670686 0.19 0  0.2639263993299336 0.19 0  0.2564580970927985 0.19 0  0.2607803159922026 0.2000727136295815 0  0.5887803774232762 0.2001272386983733 0  0.5745072403740523 0.2002044435018727 0  0.5511891430099709 0.2001122610077113 0  0.2751288526855082 0.20000000000002 0  0.5365194309847112 0.1999999999999436 0  0.2894621222999649 0.1998691686390484 0  0.5215828265105155 0.1999999999999228 0  0.3127789816668748 0.1998657885438805 0  0.3274069683451451 0.2000000000000796 0  0.5066462220363641 0.199999999999908 0  0.3650630746574081 0.199866017807523 0  0.476773013087985 0.1999999999998713 0  0.3417402379596385 0.1998691686391011 0  0.3796850840047755 0.200000000000134 0  0.4618364086138087 0.1999999999998546 0  0.4917096175621762 0.1999999999998808 0  0.3946216884789568 0.2000000000001512 0  0.446899804139621 0.1999999999998389 0  0.4089549580935208 0.1998691686391595 0  0.4322718174608562 0.200127451265745 0  0.4201487168029707 0.1999966199048527 0  0.3528922713220932 0.2000185703532356 0  0.5633122436674589 0.1999814296467508 0  0.3006558810093873 0.1999966199048318 0  0.5815926498168407 0.1966545283159175 0  0.2677053789419034 0.1964246479135325 0  0.5290511287476175 0.1970915826863981 0  0.5439877332217911 0.197091582686394 0  0.2825131256993216 0.2035478995978015 0  0.3199386661080599 0.202908417313604 0  0.4842413153250809 0.1970915826863873 0  0.5141145242734466 0.1970915826863843 0  0.3722167817676917 0.2029084173136195 0  0.4693047108508938 0.1970915826863783 0  0.3348752705822316 0.202908417313609 0  0.3871533862418661 0.2029084173136212 0  0.4543681063767183 0.1970915826863795 0  0.4991779197992749 0.1970915826863902 0  0.4020059614928624 0.203547899597858 0  0.4394315019025246 0.1970915826863714 0  0.2550657455369551 0.2034088125358657 0  0.2548908499171161 0.1966940311614271 0  0.5946539510196798 0.2024302972968126 0  0.267698176732111 0.2039977513680092 0  0.4261685417851465 0.196409292431739 0  0.3590076176283495 0.196411355804271 0  0.5571672426447437 0.2036011176410121 0  0.3066757059912147 0.1964092924317024 0  0.594380730180568 0.1966558399668133 0  0.4842413153245942 0.2040749161535287 0  0.4693047108503577 0.2040749161535231 0  0.3871533862424271 0.1959250838464788 0  0.372246743208829 0.1959123236376545 0  0.5141145242731028 0.2040749161535395 0  0.4543681063761134 0.2040749161535186 0  0.4019979587101454 0.1959834479682427 0  0.4394608940728603 0.2040870543693135 0  0.5439623148931173 0.2040856076781014 0  0.5290511287473298 0.2040749161535501 0  0.4991779197988497 0.2040749161535382 0  0.3347912413592433 0.1959225448935183 0  0.3199680582793816 0.1959123018030061 0  0.2825051229162361 0.1959834479681729 0  0.3590471196690275 0.2036304442587945 0  0.5571594006495384 0.1963685282145804 0  0.3067669986803285 0.203627750582736 0  0.4262598344738712 0.2036568242185335 0  0.5814408164431408 0.2041285596160068 0  0.5688286748170428 0.1961819304477386 0  0.4145905603063645 0.2038180695522843 0  0.3473758401724931 0.2038180695522752 0  0.2950977245128307 0.2038180695522663 0  0.5688286748170693 0.203818069552238 0  0.2950977245127906 0.1961819304477774 0  0.3473758401723931 0.1961819304478349 0  0.4145905603061963 0.1961819304479011 0  0.2601812407614425 0.2056861609747042
[...]
<PointData  Vectors="f_46-0"> 
<DataArray  type="Float64"  Name="f_46-0"  NumberOfComponents="3" format="ascii">0.0000000000000000e+00 0.0000000000000000e+00 0.0000000000000000e+00  0.0000000000000000e+00 0.0000000000000000e+00 0.0000000000000000e+00  0.0000000000000000e+00 0.0000000000000000e+00 0.0000000000000000e+00  0.0000000000000000e+00 0.0000000000000000e+00 0.0000000000000000e+00  3.6506130241691364e-06 3.8047126003154649e-04 0.0000000000000000e+00  -1.8674099014774523e-05 3.8057924991090867e-04 0.0000000000000000e+00  0.0000000000000000e+00 0.0000000000000000e+00 0.0000000000000000e+00  0.0000000000000000e+00 0.0000000000000000e+00 0.0000000000000000e+00  0.0000000000000000e+00 0.0000000000000000e+00 0.0000000000000000e+00  0.0000000000000000e+00 0.0000000000000000e+00 0.0000000000000000e+00  -7.4857870499458803e-06 3.8052924641454415e-04 0.0000000000000000e+00  7.9591836734548407e-02 0.0000000000000000e+00 0.0000000000000000e+00  1.4693877550994527e-01 0.0000000000000000e+00 0.0000000000000000e+00  2.0204081632617479e-01 0.0000000000000000e+00 0.0000000000000000e+00  2.4489795918330073e-01 0.0000000000000000e+00 0.0000000000000000e+00  2.7551020408131754e-01 0.0000000000000000e+00 0.0000000000000000e+00  2.9387755102022350e-01 0.0000000000000000e+00 0.0000000000000000e+00  3.0000000000000004e-01 0.0000000000000000e+00 0.0000000000000000e+00  2.9387755102059482e-01 0.0000000000000000e+00 0.0000000000000000e+00  2.7551020408195548e-01 0.0000000000000000e+00 0.0000000000000000e+00  2.4489795918409071e-01 0.0000000000000000e+00 0.0000000000000000e+00  2.0204081632692525e-01 0.0000000000000000e+00 0.0000000000000000e+00  1.4693877551058568e-01 0.0000000000000000e+00 0.0000000000000000e+00  7.9591836734909244e-02 0.0000000000000000e+00 0.0000000000000000e+00  0.0000000000000000e+00 0.0000000000000000e+00 0.0000000000000000e+00  0.0000000000000000e+00 0.0000000000000000e+00 0.0000000000000000e+00  0.0000000000000000e+00 0.0000000000000000e+00 0.0000000000000000e+00  0.0000000000000000e+00 0.0000000000000000e+00 0.0000000000000000e+00  0.0000000000000000e+00 0.0000000000000000e+00 0.0000000000000000e+00  0.0000000000000000e+00 0.0000000000000000e+00 0.0000000000000000e+00  0.0000000000000000e+00 0.0000000000000000e+00 0.0000000000000000e+00  0.0000000000000000e+00 0.0000000000000000e+00 0.0000000000000000e+00  0.0000000000000000e+00 0.0000000000000000e+00 0.0000000000000000e+00  0.0000000000000000e+00 0.0000000000000000e+00 0.0000000000000000e+00  0.0000000000000000e+00 0.0000000000000000e+00 0.0000000000000000e+00  0.0000000000000000e+00 0.0000000000000000e+00 0.0000000000000000e+00  0.0000000000000000e+00 0.0000000000000000e+00 0.0000000000000000e+00  0.0000000000000000e+00 0.0000000000000000e+00 0.0000000000000000e+00  0.0000000000000000e+00 0.0000000000000000e+00 0.0000000000000000e+00  0.0000000000000000e+00 0.0000000000000000e+00 0.0000000000000000e+00  0.0000000000000000e+00 0.0000000000000000e+00 0.0000000000000000e+00  0.0000000000000000e+00 0.0000000000000000e+00 0.0000000000000000e+00  0.0000000000000000e+00 0.0000000000000000e+00 0.0000000000000000e+00  0.0000000000000000e+00 0.0000000000000000e+00 0.0000000000000000e+00  0.0000000000000000e+00 0.0000000000000000e+00 0.0000000000000000e+00  0.0000000000000000e+00 0.0000000000000000e+00 0.0000000000000000e+00  0.0000000000000000e+00 0.0000000000000000e+00 0.0000000000000000e+00  0.0000000000000000e+00 0.0000000000000000e+00 0.0000000000000000e+00  0.0000000000000000e+00 0.0000000000000000e+00 0.0000000000000000e+00  0.0000000000000000e+00 0.0000000000000000e+00 0.0000000000000000e+00  0.0000000000000000e+00 0.0000000000000000e+00 0.0000000000000000e+00  0.0000000000000000e+00 0.0000000000000000e+00 0.0000000000000000e+00  0.0000000000000000e+00 0.0000000000000000e+00 0.0000000000000000e+00  0.0000000000000000e+00 0.0000000000000000e+00 0.0000000000000000e+00  0.0000000000000000e+00 0.0000000000000000e+00 0.0000000000000000e+00  0.0000000000000000e+00 0.0000000000000000e+00 0.0000000000000000e+00  0.0000000000000000e+00 0.0000000000000000e+00 0.0000000000000000e+00  0.0000000000000000e+00 0.0000000000000000e+00 0.0000000000000000e+00  0.0000000000000000e+00 0.0000000000000000e+00 0.0000000000000000e+00  0.0000000000000000e+00 0.0000000000000000e+00 0.0000000000000000e+00  0.0000000000000000e+00 0.0000000000000000e+00 0.0000000000000000e+00  0.0000000000000000e+00 0.0000000000000000e+00 0.0000000000000000e+00  2.5645462434828931e-01 4.1975724372620574e-03 0.0000000000000000e+00  2.8272810945343074e-01 9.9111537199494254e-03 0.0000000000000000e+00  2.5673563320123988e-01 -1.0302868031232874e-02 0.0000000000000000e+00  0.0000000000000000e+00 0.0000000000000000e+00 0.0000000000000000e+00  0.0000000000000000e+00 0.0000000000000000e+00 0.0000000000000000e+00  0.0000000000000000e+00 0.0000000000000000e+00 0.0000000000000000e+00  0.0000000000000000e+00 0.0000000000000000e+00 0.0000000000000000e+00  0.0000000000000000e+00 0.0000000000000000e+00 0.0000000000000000e+00  0.0000000000000000e+00 0.0000000000000000e+00 0.0000000000000000e+00  0.0000000000000000e+00 0.0000000000000000e+00 0.0000000000000000e+00  0.0000000000000000e+00 0.0000000000000000e+00 0.0000000000000000e+00  0.0000000000000000e+00 0.0000000000000000e+00 0.0000000000000000e+00  0.0000000000000000e+00 0.0000000000000000e+00 0.0000000000000000e+00  0.0000000000000000e+00 0.0000000000000000e+00 0.0000000000000000e+00  0.0000000000000000e+00 0.0000000000000000e+00 0.0000000000000000e+00  0.0000000000000000e+00 0.0000000000000000e+00 0.0000000000000000e+00  0.0000000000000000e+00 0.0000000000000000e+00 0.0000000000000000e+00  0.0000000000000000e+00 0.0000000000000000e+00 0.0000000000000000e+00  0.0000000000000000e+00 0.0000000000000000e+00 0.0000000000000000e+00  0.0000000000000000e+00 0.0000000000000000e+00 0.0000000000000000e+00  0.0000000000000000e+00 0.0000000000000000e+00 0.0000000000000000e+00  0.0000000000000000e+00 0.0000000000000000e+00 0.0000000000000000e+00  0.0000000000000000e+00 0.0000000000000000e+00 0.0000000000000000e+00  0.0000000000000000e+00 0.0000000000000000e+00 0.0000000000000000e+00  0.0000000000000000e+00 0.0000000000000000e+00 0.0000000000000000e+00  0.0000000000000000e+00 0.0000000000000000e+00 0.0000000000000000e+00  0.0000000000000000e+00 0.0000000000000000e+00 0.0000000000000000e+00  0.0000000000000000e+00 0.0000000000000000e+00 0.0000000000000000e+00  0.0000000000000000e+00 0.0000000000000000e+00 0.0000000000000000e+00  0.0000000000000000e+00 0.0000000000000000e+00 0.0000000000000000e+00  0.0000000000000000e+00 0.0000000000000000e+00 0.0000000000000000e+00  0.0000000000000000e+00 0.0000000000000000e+00 0.0000000000000000e+00  0.0000000000000000e+00 0.0000000000000000e+00 0.0000000000000000e+00  0.0000000000000000e+00 0.0000000000000000e+00 0.0000000000000000e+00  0.0000000000000000e+00 0.0000000000000000e+00 0.0000000000000000e+00  0.0000000000000000e+00 0.0000000000000000e+00 0.0000000000000000e+00  0.0000000000000000e+00 0.0000000000000000e+00 0.0000000000000000e+00  0.0000000000000000e+00 0.0000000000000000e+00 0.0000000000000000e+00  0.0000000000000000e+00 0.0000000000000000e+00 0.0000000000000000e+00  0.0000000000000000e+00 0.0000000000000000e+00 0.0000000000000000e+00  0.0000000000000000e+00 0.0000000000000000e+00 0.0000000000000000e+00  0.0000000000000000e+00 0.0000000000000000e+00 0.0000000000000000e+00  0.0000000000000000e+00 0.0000000000000000e+00 0.0000000000000000e+00  -5.9208729468687401e-17 0.0000000000000000e+00 0.0000000000000000e+00  0.0000000000000000e+00 0.0000000000000000e+00 0.0000000000000000e+00  0.0000000000000000e+00 0.0000000000000000e+00 0.0000000000000000e+00  0.0000000000000000e+00 0.0000000000000000e+00 0.0000000000000000e+00  0.0000000000000000e+00 0.0000000000000000e+00 0.0000000000000000e+00  0.0000000000000000e+00 0.0000000000000000e+00 0.0000000000000000e+00  0.0000000000000000e+00 0.0000000000000000e+00 0.0000000000000000e+00  0.0000000000000000e+00 0.0000000000000000e+00 0.0000000000000000e+00  0.0000000000000000e+00 0.0000000000000000e+00 0.0000000000000000e+00  0.0000000000000000e+00 0.0000000000000000e+00 0.0000000000000000e+00  0.0000000000000000e+00 0.0000000000000000e+00 0.0000000000000000e+00  0.0000000000000000e+00 0.0000000000000000e+00 0.0000000000000000e+00  0.0000000000000000e+00 0.0000000000000000e+00 0.0000000000000000e+00  0.0000000000000000e+00 0.0000000000000000e+00 0.0000000000000000e+00  0.0000000000000000e+00 0.0000000000000000e+00 0.0000000000000000e+00  0.0000000000000000e+00 0.0000000000000000e+00 0.0000000000000000e+00  0.0000000000000000e+00 0.0000000000000000e+00 0.0000000000000000e+00  0.0000000000000000e+00 0.0000000000000000e+00 0.0000000000000000e+00  0.0000000000000000e+00 0.0000000000000000e+00 0.0000000000000000e+00  0.0000000000000000e+00 0.0000000000000000e+00 0.0000000000000000e+00  0.0000000000000000e+00 0.0000000000000000e+00 0.0000000000000000e+00  0.0000000000000000e+00 0.0000000000000000e+00 0.0000000000000000e+00  0.0000000000000000e+00 0.0000000000000000e+00 0.0000000000000000e+00  0.0000000000000000e+00 0.0000000000000000e+00 0.0000000000000000e+00  0.0000000000000000e+00 0.0000000000000000e+00 0.0000000000000000e+00  0.0000000000000000e+00 0.0000000000000000e+00 0.0000000000000000e+00  0.0000000000000000e+00 0.0000000000000000e+00 0.0000000000000000e+00  0.0000000000000000e+00 0.0000000000000000e+00 0.0000000000000000e+00  0.0000000000000000e+00 0.0000000000000000e+00 0.0000000000000000e+00  0.0000000000000000e+00 0.0000000000000000e+00 0.0000000000000000e+00  0.0000000000000000e+00 0.0000000000000000e+00 0.0000000000000000e+00  0.0000000000000000e+00 0.0000000000000000e+00 0.0000000000000000e+00  0.0000000000000000e+00 0.0000000000000000e+00 0.0000000000000000e+00  0.0000000000000000e+00 0.0000000000000000e+00 0.0000000000000000e+00  0.0000000000000000e+00 0.0000000000000000e+00 0.0000000000000000e+00  0.0000000000000000e+00 0.0000000000000000e+00 0.0000000000000000e+00  0.0000000000000000e+00 0.0000000000000000e+00 0.0000000000000000e+00  0.0000000000000000e+00 0.0000000000000000e+00 0.0000000000000000e+00  -1.6847905086310580e-06 1.5360343212635321e-06 0.0000000000000000e+00  -3.5116064068795875e-06 3.3523736541019173e-06 0.0000000000000000e+00  -5.1062791310123670e-06 6.1672847606223863e-06 0.0000000000000000e+00  -6.7500136276924555e-06 1.0029642557224225e-05 0.0000000000000000e+00  -8.1153204839353081e-06 1.4694760585648294e-05 0.0000000000000000e+00  -9.5585855592806517e-06 2.0219419472328760e-05 0.0000000000000000e+00  -1.0726613158031820e-05 2.6329549398848113e-05 0.0000000000000000e+00  -1.1816569330068526e-05 3.3169921672227783e-05 0.0000000000000000e+00  -1.2967787053231715e-05 4.0523506655178157e-05 0.0000000000000000e+00  -1.3859651362401005e-05 4.8358854446959245e-05 0.0000000000000000e+00  -1.4821334334580831e-05 5.6647733599677460e-05 0.0000000000000000e+00  -1.5564016685877589e-05 6.5282863650092878e-05 0.0000000000000000e+00  -1.6322188043716822e-05 7.4236376590680148e-05 0.0000000000000000e+00  -1.6934042450664729e-05 8.3404182847411816e-05 0.0000000000000000e+00  -1.7479730221617514e-05 9.2802860224314941e-05 0.0000000000000000e+00  -1.8001587152795899e-05 1.0234670795658178e-04 0.0000000000000000e+00  -1.8406910461829321e-05 1.1198916592587089e-04 0.0000000000000000e+00  -1.8777233707217177e-05 1.2173099210794852e-04 0.0000000000000000e+00  -1.9065208038314245e-05 1.3148747608886764e-04 0.0000000000000000e+00  -1.9304922205037304e-05 1.4128002217465811e-04 0.0000000000000000e+00  -1.9490210815713036e-05 1.5103366793978331e-04 0.0000000000000000e+00  -1.9613142884742165e-05 1.6076141173601579e-04 0.0000000000000000e+00  -1.9714113052885810e-05 1.7043860691365569e-04 0.0000000000000000e+00  -1.9774539778498754e-05 1.8003370883327342e-04 0.0000000000000000e+00  -1.9789955824648105e-05 1.8956688873991744e-04 0.0000000000000000e+00  -1.9785693800923703e-05 1.9899258200336409e-04 0.0000000000000000e+00  -1.9748797533463574e-05 2.0833972044733741e-04 0.0000000000000000e+00  -1.9701834831427705e-05 2.1757669446583933e-04 0.0000000000000000e+00  -1.9629789651893496e-05 2.2672508889707776e-04 0.0000000000000000e+00  -1.9558271943469044e-05 2.3577039946251035e-04 0.0000000000000000e+00  -1.9469535183152589e-05 2.4472711588944878e-04 0.0000000000000000e+00  -1.9387449492515284e-05 2.5359078311140156e-04 0.0000000000000000e+00  -1.9296150132450518e-05 2.6237312584934819e-04 0.0000000000000000e+00  -1.9213441394548997e-05 2.7107728619464057e-04 0.0000000000000000e+00  -1.9128330902156435e-05 2.7971217543093502e-04 0.0000000000000000e+00  -1.9055769734934950e-05 2.8828677318038957e-04 0.0000000000000000e+00  -1.8984378586235264e-05 2.9680585199237945e-04 0.0000000000000000e+00  -1.8925400755329454e-05 3.0528146622097618e-04 0.0000000000000000e+00  -1.8869632303287452e-05 3.1371661492689924e-04 0.0000000000000000e+00  -1.8825473697364059e-05 3.2212382196315320e-04 0.0000000000000000e+00  -1.8784931412361268e-05 3.3050217867922624e-04 0.0000000000000000e+00  -1.8754781280724564e-05 3.3886702322344256e-04 0.0000000000000000e+00  -1.8730354901690957e-05 3.4721635598877309e-04 0.0000000000000000e+00  -1.8707824627412689e-05 3.5555894981653750e-04 0.0000000000000000e+00  -1.8690662774076841e-05 3.6389556175337601e-04 0.0000000000000000e+00  -1.8678484697169617e-05 3.7223178364685281e-04 0.0000000000000000e+00  -1.3072080912937913e-05 3.8055495796581173e-04 0.0000000000000000e+00  -1.9091857468683964e-06 3.8050303198140393e-04 0.0000000000000000e+00  3.6508997118903993e-06 3.7215276304184162e-04 0.0000000000000000e+00  3.6453267920931663e-06 3.6381619091640019e-04 0.0000000000000000e+00  3.6402610465169172e-06 3.5547623475025582e-04 0.0000000000000000e+00  3.6430717966465708e-06 3.4713243900061103e-04 0.0000000000000000e+00  3.6484344473502776e-06 3.3878206643818382e-04 0.0000000000000000e+00  3.6609676608880803e-06 3.3041625824640765e-04 0.0000000000000000e+00  3.6867213051391001e-06 3.2203476451255256e-04 0.0000000000000000e+00  3.7145031784561413e-06 3.1362568263837589e-04 0.0000000000000000e+00  3.7640337891879811e-06 3.0518811820637651e-04 0.0000000000000000e+00  3.8115827492097030e-06 2.9670662780962876e-04 0.0000000000000000e+00  3.8872852163521495e-06 2.8818270434963358e-04 0.0000000000000000e+00  3.9588815808536407e-06 2.7959704035085051e-04 0.0000000000000000e+00  4.0662303426967967e-06 2.7095394622365812e-04 0.0000000000000000e+00  4.1660015100309432e-06 2.6223194072281787e-04 0.0000000000000000e+00  4.3067237004563794e-06 2.5343770465629422e-04 0.0000000000000000e+00  4.4358409338856264e-06 2.4454929190111238e-04 0.0000000000000000e+00  4.6091360362871191e-06 2.3557675049214554e-04 0.0000000000000000e+00  4.7683202874444172e-06 2.2649759071283201e-04 0.0000000000000000e+00  4.9742733447441623e-06 2.1732867711431913e-04 0.0000000000000000e+00  5.1629401385232883e-06 2.0804942227810642e-04 0.0000000000000000e+00  5.3955964055167452e-06 1.9867961216938438e-04 0.0000000000000000e+00  5.6096619641726816e-06 1.8920261289670701e-04 0.0000000000000000e+00  5.8590369360985119e-06 1.7964035927776981e-04 0.0000000000000000e+00  6.0922906879456215e-06 1.6999965737010298e-04 0.0000000000000000e+00  6.3298145238054083e-06 1.6028159483861390e-04 0.0000000000000000e+00  6.5742622287704964e-06 1.5051686905226259e-04 0.0000000000000000e+00  6.8065381758383391e-06 1.4071037368164566e-04 0.0000000000000000e+00  7.0283344860439780e-06 1.3089218046276433e-04 0.0000000000000000e+00  7.2340507439007887e-06 1.2108878257117215e-04 0.0000000000000000e+00  7.4105941366998014e-06 1.1132451852692136e-04 0.0000000000000000e+00  7.5653782449938211e-06 1.0163918391734505e-04 0.0000000000000000e+00  7.6506293783414302e-06 9.2084774253624424e-05 0.0000000000000000e+00  7.7340183437009233e-06 8.2665042667937782e-05 0.0000000000000000e+00  7.7712997412352696e-06 7.3489066136484487e-05 0.0000000000000000e+00  7.6995261833859035e-06 6.4509653580608025e-05 0.0000000000000000e+00  7.5965914263173513e-06 5.5884169113954484e-05 0.0000000000000000e+00  7.3839671400526471e-06 4.7595103600180810e-05 0.0000000000000000e+00  7.1333223095133743e-06 3.9747329680619404e-05 0.0000000000000000e+00  6.6857864856548941e-06 3.2435025142006245e-05 0.0000000000000000e+00  6.2872432603780303e-06 2.5600164932835339e-05 0.0000000000000000e+00  5.8040101431364908e-06 1.9506109081128305e-05 0.0000000000000000e+00  5.0596678680977340e-06 1.3973306723347062e-05 0.0000000000000000e+00  4.3323079898369991e-06 9.3052288169816398e-06 0.0000000000000000e+00  3.3337231528608939e-06 5.4967528735240001e-06 0.0000000000000000e+00  2.3999616084221137e-06 2.6884598182950528e-06 0.0000000000000000e+00  1.1563647619354300e-06 9.0832439500267538e-07 0.0000000000000000e+00  -3.8714196301407545e-07 1.3687046162758178e-06 0.0000000000000000e+00  -7.6513075809538132e-06 3.6800753106414741e-04 0.0000000000000000e+00  -7.7637173061560317e-06 3.5207566242576944e-04 0.0000000000000000e+00  -7.6901084901961927e-06 3.2598888947705547e-04 0.0000000000000000e+00  -1.0332212841149788e-06 7.0273622194530247e-06 0.0000000000000000e+00  -7.5756759384139898e-06 3.0948123112965471e-04 0.0000000000000000e+00  -1.5879983758819470e-06 1.6035541256979847e-05 0.0000000000000000e+00  -7.5806958984615824e-06 2.9253502382362798e-04 0.0000000000000000e+00  -2.6121754453813630e-06 3.6348952276949934e-05 0.0000000000000000e+00  -3.4159298581271899e-06 5.1810887393934925e-05 0.0000000000000000e+00  -7.5724848250298336e-06 2.7538670773390319e-04 0.0000000000000000e+00  -4.8870521191487668e-06 9.7503730461816771e-05 0.0000000000000000e+00  -7.4825711444660999e-06 2.4022572902491503e-04 0.0000000000000000e+00  -3.9125609488428535e-06 6.8416418150731790e-05 0.0000000000000000e+00  -5.6092388760234531e-06 1.1648119129860544e-04 0.0000000000000000e+00  -7.3801610167205778e-06 2.2210600879953303e-04 0.0000000000000000e+00  -7.5429156795609823e-06 2.5797045580164735e-04 0.0000000000000000e+00  -6.1065894515214801e-06 1.3608642595518624e-04 0.0000000000000000e+00  -7.2235701158776471e-06 2.0358669481147925e-04 0.0000000000000000e+00  -6.3426705950116920e-06 1.5488726388067296e-04 0.0000000000000000e+00  -7.1710737619413524e-06 1.8507086215805674e-04 0.0000000000000000e+00  -6.7615366405073172e-06 1.6945491914151787e-04 0.0000000000000000e+00  -4.5713179139984408e-06 8.2117017268515570e-05 0.0000000000000000e+00  -7.5288032983267266e-06 3.3956308139105300e-04 0.0000000000000000e+00  -2.1801982089209550e-06 2.5123693437885265e-05 0.0000000000000000e+00  -3.7862184727417619e-06 3.5997134385901445e-04 0.0000000000000000e+00  5.8648502359405439e-07 3.6329913259941858e-06 0.0000000000000000e+00  -4.2713058317283947e-06 3.0101135379158382e-04 0.0000000000000000e+00  -4.2901587157166639e-06 3.1788238423887831e-04 0.0000000000000000e+00  -3.4863545175070685e-06 1.1512686228074986e-05 0.0000000000000000e+00  -6.0797445244406042e-06 4.3852066397020551e-05 0.0000000000000000e+00  -4.0557092866324355e-06 2.4911079652006256e-04 0.0000000000000000e+00  -4.2308889990976477e-06 2.8396893865336494e-04 0.0000000000000000e+00  -9.0684237330774805e-06 1.0685485580042611e-04 0.0000000000000000e+00  -3.9061057752331848e-06 2.3117580717723347e-04 0.0000000000000000e+00  -7.0647793427626366e-06 6.0455839038925302e-05 0.0000000000000000e+00  -9.6521852020346284e-06 1.2636615126382418e-04 0.0000000000000000e+00  -3.7041973773547994e-06 2.1284956330960849e-04 0.0000000000000000e+00  -4.1615123087488416e-06 2.6669040151675418e-04 0.0000000000000000e+00  -1.0951164017004555e-05 1.4588371999992204e-04 0.0000000000000000e+00  -3.4461575194275614e-06 1.9412143559360845e-04 0.0000000000000000e+00  -3.8795737966571158e-07 4.1021668730272346e-07 0.0000000000000000e+00  8.0352514468653141e-08 2.3502991138180288e-07 0.0000000000000000e+00  -1.0210291881585496e-05 3.7457180343818212e-04 0.0000000000000000e+00  -2.1348648185922431e-06 3.9045659343698088e-06 0.0000000000000000e+00  -2.2898786074621677e-06 1.7715467123936892e-04 0.0000