<?xml version="1.0"?>
<VTKFile type="UnstructuredGrid"  version="0.1"  >
<UnstructuredGrid>
<Piece  NumberOfPoints="1419" NumberOfCells="2698">
<Points>
<DataArray  type="Float64"  NumberOfComponents="3"  format="ascii">0 0 0  0 0.41 0  2.5 0 0  2.5 0.41 0  0.6 0.19 0  0.6 0.21 0  0.25 0.2 0  0.15 0.2 0  0.2489897948556636 0.21 0  0.2489897948556636 0.19 0  0.6 0.2 0  0 0.3807142857143437 0  0 0.3514285714286952 0  0 0.3221428571430699 0  0 0.29285714285744 0  0 0.2635714285718054 0  0 0.2342857142861561 0  0 0.2050000000005308 0  0 0.175714285714732 0  0 0.1464285714289574 0  0 0.1171428571431897 0  0 0.08785714285737878 0  0 0.05857142857161107 0  0 0.02928571428580012 0  0.03015443760436003 0 0  0.06140001986583606 0 0  0.09377624077125973 0 0  0.1273239957535082 0 0  0.1620856860351972 0 0  0.1981052433264291 0 0  0.235428184091502 0 0  0.2741016576309132 0 0  0.3141745521465447 0 0  0.3556974926295285 0 0  0.3987229542472677 0 0  0.4433053055141081 0 0  0.4895008759286886 0 0  0.5373680609405097 0 0  0.5869673343216626 0 0  0.6383613676634521 0 0  0.6916151138468254 0 0  0.7467958595648856 0 0  0.8039733463919316 0 0  0.8632198139502143 0 0  0.9246101326867038 0 0  0.9882218810934433 0 0  1.054135445558498 0 0  1.122434100542598 0 0  1.193204177141305 0 0  1.266535089879536 0 0  1.342519516046404 0 0  1.421253448503939 0 0  1.502836389106271 0 0  1.587371439758838 0 0  1.674965418777374 0 0  1.765729001825544 0 0  1.859776908880082 0 0  1.957227977487062 0 0  2.058205329869943 0 0  2.162836591189951 0 0  2.271253957290865 0 0  2.383594446803425 0 0  2.5 0.1024999999997612 0  2.5 0.2049999999994743 0  2.5 0.3074999999997183 0  2.383594446803656 0.41 0  2.271253957291315 0.41 0  2.162836591190598 0.41 0  2.058205329870775 0.41 0  1.957227977488067 0.41 0  1.859776908881246 0.41 0  1.765729001826854 0.41 0  1.674965418778818 0.41 0  1.58737143976041 0.41 0  1.502836389107956 0.41 0  1.421253448505726 0.41 0  1.342519516048286 0.41 0  1.266535089881505 0.41 0  1.193204177143353 0.41 0  1.122434100544716 0.41 0  1.05413544556068 0.41 0  0.9882218810956305 0.41 0  0.9246101326886647 0.41 0  0.8632198139519631 0.41 0  0.8039733463934788 0.41 0  0.7467958595662458 0.41 0  0.6916151138480078 0.41 0  0.6383613676644679 0.41 0  0.5869673343225223 0.41 0  0.5373680609412221 0.41 0  0.4895008759292634 0.41 0  0.4433053055145528 0.41 0  0.3987229542475914 0.41 0  0.3556974926297398 0.41 0  0.3141745521466497 0.41 0  0.2741016576310038 0.41 0  0.2354281840915826 0.41 0  0.1981052433265003 0.41 0  0.1620856860352591 0.41 0  0.1273239957535623 0.41 0  0.09377624077128965 0.41 0  0.06140001986584975 0.41 0  0.03015443760436654 0.41 0  0.2497468076502589 0.2050254481002335 0  0.2497468076502614 0.1949745518997913 0  0.2469965252529372 0.1829317073451959 0  0.2439893735792749 0.1762316384219906 0  0.2400332147834255 0.1700443375285386 0  0.2352133972704371 0.1645032867342007 0  0.2296339016332438 0.1597280261969788 0  0.2234150974217223 0.1558215752574715 0  0.2166911463437691 0.1528682099456123 0  0.2096071079204251 0.1509316448471593 0  0.2023158100364996 0.1500536585536553 0  0.194974551899914 0.1502531923497262 0  0.1877417105387872 0.1515259415822739 0  0.1807733240461124 0.153844448527136 0  0.1742197252835808 0.15715869474974 0  0.1682222986673531 0.1613971801805478 0  0.162910430003803 0.1664684656256651 0  0.1583987151779087 0.1722631454351573 0  0.1547844879126891 0.178656207771761 0  0.1521457199348551 0.1855097315605723 0  0.1505393388476355 0.1926758619366523 0  0.1505393388476328 0.2073241380633295 0  0.1521457199348437 0.2144902684393899 0  0.1547844879126531 0.221343792228163 0  0.1583987151778488 0.2277368545647528 0  0.1629104300036858 0.2335315343742052 0  0.1682222986671726 0.2386028198193036 0  0.1742197252833576 0.2428413052501257 0  0.1807733240458683 0.2461555514727623 0  0.1877417105384929 0.2484740584176516 0  0.1949745518995776 0.2497468076502398 0  0.202315810036185 0.2499463414463592 0  0.2096071079201568 0.2490683551528932 0  0.2166911463435495 0.2471317900544655 0  0.2234150974215506 0.2441784247426195 0  0.2296339016331197 0.2402719738031125 0  0.2352133972703547 0.2354967132658811 0  0.2400332147833751 0.2299556624715287 0  0.2439893735792577 0.2237683615780412 0  0.246996525252926 0.2170682926548348 0  0.25645809709277 0.21 0  0.2639263993298655 0.21 0  0.271394701566961 0.21 0  0.2788630038040554 0.21 0  0.2863313060411479 0.21 0  0.2937996082782405 0.21 0  0.301267910515333 0.21 0  0.3087362127524279 0.21 0  0.3162045149895234 0.21 0  0.3236728172265972 0.21 0  0.3311411194636928 0.21 0  0.3386094217007701 0.21 0  0.3460777239378666 0.21 0  0.3535460261749672 0.21 0  0.3610143284120516 0.21 0  0.3684826306491596 0.21 0  0.3759509328862226 0.21 0  0.383419235123329 0.21 0  0.3908875373604028 0.21 0  0.3983558395975142 0.21 0  0.4058241418345938 0.21 0  0.4132924440716992 0.21 0  0.4207607463087888 0.21 0  0.4282290485459029 0.21 0  0.4356973507830418 0.21 0  0.4431656530201649 0.21 0  0.4506339552573136 0.21 0  0.4581022574944306 0.21 0  0.4655705597315852 0.21 0  0.4730388619686996 0.21 0  0.480507164205851 0.21 0  0.4879754664429498 0.21 0  0.4954437686800938 0.21 0  0.502912070917267 0.21 0  0.5103803731544119 0.21 0  0.5178486753915261 0.21 0  0.5253169776286404 0.21 0  0.5327852798657868 0.21 0  0.5402535821029386 0.21 0  0.54772188434007 0.21 0  0.5551901865771842 0.21 0  0.5626584888143201 0.21 0  0.5701267910514778 0.21 0  0.5775950932886138 0.21 0  0.5850633955257281 0.21 0  0.5925316977628483 0.21 0  0.6 0.2050000000000054 0  0.6 0.1950000000000217 0  0.5925316977628897 0.19 0  0.5850633955257988 0.19 0  0.5775950932887378 0.19 0  0.5701267910515998 0.19 0  0.5626584888145268 0.19 0  0.5551901865773963 0.19 0  0.547721884340339 0.19 0  0.5402535821032429 0.19 0  0.5327852798661811 0.19 0  0.5253169776290537 0.19 0  0.5178486753919799 0.19 0  0.5103803731549078 0.19 0  0.502912070917822 0.19 0  0.4954437686807294 0.19 0  0.4879754664436223 0.19 0  0.4805071642065402 0.19 0  0.4730388619694271 0.19 0  0.4655705597323621 0.19 0  0.4581022574952563 0.19 0  0.4506339552581777 0.19 0  0.4431656530210671 0.19 0  0.4356973507839815 0.19 0  0.4282290485468779 0.19 0  0.4207607463097617 0.19 0  0.4132924440726327 0.19 0  0.4058241418354857 0.19 0  0.3983558395983636 0.19 0  0.3908875373612097 0.19 0  0.3834192351240934 0.19 0  0.3759509328869369 0.19 0  0.3684826306498175 0.19 0  0.361014328412667 0.19 0  0.3535460261755617 0.19 0  0.3460777239384295 0.19 0  0.3386094217012945 0.19 0  0.3311411194641595 0.19 0  0.3236728172270245 0.19 0  0.3162045149898895 0.19 0  0.3087362127527544 0.19 0  0.3012679105156187 0.19 0  0.2937996082784807 0.19 0  0.2863313060413428 0.19 0  0.2788630038042048 0.19 0  0.2713947015670686 0.19 0  0.2639263993299336 0.19 0  0.2564580970927985 0.19 0  0.2607803159922026 0.2000727136295815 0  0.5887803774232762 0.2001272386983733 0  0.5745072403740523 0.2002044435018727 0  0.5511891430099709 0.2001122610077113 0  0.2751288526855082 0.20000000000002 0  0.5365194309847112 0.1999999999999436 0  0.2894621222999649 0.1998691686390484 0  0.5215828265105155 0.1999999999999228 0  0.3127789816668748 0.1998657885438805 0  0.3274069683451451 0.2000000000000796 0  0.5066462220363641 0.199999999999908 0  0.3650630746574081 0.199866017807523 0  0.476773013087985 0.1999999999998713 0  0.3417402379596385 0.1998691686391011 0  0.3796850840047755 0.200000000000134 0  0.4618364086138087 0.1999999999998546 0  0.4917096175621762 0.1999999999998808 0  0.3946216884789568 0.2000000000001512 0  0.446899804139621 0.1999999999998389 0  0.4089549580935208 0.1998691686391595 0  0.4322718174608562 0.200127451265745 0  0.4201487168029707 0.1999966199048527 0  0.3528922713220932 0.2000185703532356 0  0.5633122436674589 0.1999814296467508 0  0.3006558810093873 0.1999966199048318 0  0.5815926498168407 0.1966545283159175 0  0.2677053789419034 0.1964246479135325 0  0.5290511287476175 0.1970915826863981 0  0.5439877332217911 0.197091582686394 0  0.2825131256993216 0.2035478995978015 0  0.3199386661080599 0.202908417313604 0  0.4842413153250809 0.1970915826863873 0  0.5141145242734466 0.1970915826863843 0  0.3722167817676917 0.2029084173136195 0  0.4693047108508938 0.1970915826863783 0  0.3348752705822316 0.202908417313609 0  0.3871533862418661 0.2029084173136212 0  0.4543681063767183 0.1970915826863795 0  0.4991779197992749 0.1970915826863902 0  0.4020059614928624 0.203547899597858 0  0.4394315019025246 0.1970915826863714 0  0.2550657455369551 0.2034088125358657 0  0.2548908499171161 0.1966940311614271 0  0.5946539510196798 0.2024302972968126 0  0.267698176732111 0.2039977513680092 0  0.4261685417851465 0.196409292431739 0  0.3590076176283495 0.196411355804271 0  0.5571672426447437 0.2036011176410121 0  0.3066757059912147 0.1964092924317024 0  0.594380730180568 0.1966558399668133 0  0.4842413153245942 0.2040749161535287 0  0.4693047108503577 0.2040749161535231 0  0.3871533862424271 0.1959250838464788 0  0.372246743208829 0.1959123236376545 0  0.5141145242731028 0.2040749161535395 0  0.4543681063761134 0.2040749161535186 0  0.4019979587101454 0.1959834479682427 0  0.4394608940728603 0.2040870543693135 0  0.5439623148931173 0.2040856076781014 0  0.5290511287473298 0.2040749161535501 0  0.4991779197988497 0.2040749161535382 0  0.3347912413592433 0.1959225448935183 0  0.3199680582793816 0.1959123018030061 0  0.2825051229162361 0.1959834479681729 0  0.3590471196690275 0.2036304442587945 0  0.5571594006495384 0.1963685282145804 0  0.3067669986803285 0.203627750582736 0  0.4262598344738712 0.2036568242185335 0  0.5814408164431408 0.2041285596160068 0  0.5688286748170428 0.1961819304477386 0  0.4145905603063645 0.2038180695522843 0  0.3473758401724931 0.2038180695522752 0  0.2950977245128307 0.2038180695522663 0  0.5688286748170693 0.203818069552238 0  0.2950977245127906 0.1961819304477774 0  0.3473758401723931 0.1961819304478349 0  0.4145905603061963 0.1961819304479011 0  0.2601812407614425 0.2056861609747042
[...]
<PointData  Vectors="f_46-0"> 
<DataArray  type="Float64"  Name="f_46-0"  NumberOfComponents="3" format="ascii">0.0000000000000000e+00 0.0000000000000000e+00 0.0000000000000000e+00  0.0000000000000000e+00 0.0000000000000000e+00 0.0000000000000000e+00  0.0000000000000000e+00 0.0000000000000000e+00 0.0000000000000000e+00  0.0000000000000000e+00 0.0000000000000000e+00 0.0000000000000000e+00  2.2866912152058883e-05 7.7786850879295831e-04 0.0000000000000000e+00  -3.2803827242522202e-05 7.7793336267181290e-04 0.0000000000000000e+00  0.0000000000000000e+00 0.0000000000000000e+00 0.0000000000000000e+00  0.0000000000000000e+00 0.0000000000000000e+00 0.0000000000000000e+00  0.0000000000000000e+00 0.0000000000000000e+00 0.0000000000000000e+00  0.0000000000000000e+00 0.0000000000000000e+00 0.0000000000000000e+00  -4.9679334697105595e-06 7.7790062043716311e-04 0.0000000000000000e+00  7.9591836734548407e-02 0.0000000000000000e+00 0.0000000000000000e+00  1.4693877550994527e-01 0.0000000000000000e+00 0.0000000000000000e+00  2.0204081632617479e-01 0.0000000000000000e+00 0.0000000000000000e+00  2.4489795918330076e-01 0.0000000000000000e+00 0.0000000000000000e+00  2.7551020408131754e-01 0.0000000000000000e+00 0.0000000000000000e+00  2.9387755102022350e-01 0.0000000000000000e+00 0.0000000000000000e+00  3.0000000000000004e-01 0.0000000000000000e+00 0.0000000000000000e+00  2.9387755102059482e-01 0.0000000000000000e+00 0.0000000000000000e+00  2.7551020408195548e-01 0.0000000000000000e+00 0.0000000000000000e+00  2.4489795918409071e-01 0.0000000000000000e+00 0.0000000000000000e+00  2.0204081632692525e-01 0.0000000000000000e+00 0.0000000000000000e+00  1.4693877551058568e-01 0.0000000000000000e+00 0.0000000000000000e+00  7.9591836734909230e-02 0.0000000000000000e+00 0.0000000000000000e+00  0.0000000000000000e+00 0.0000000000000000e+00 0.0000000000000000e+00  0.0000000000000000e+00 0.0000000000000000e+00 0.0000000000000000e+00  0.0000000000000000e+00 0.0000000000000000e+00 0.0000000000000000e+00  0.0000000000000000e+00 0.0000000000000000e+00 0.0000000000000000e+00  0.0000000000000000e+00 0.0000000000000000e+00 0.0000000000000000e+00  0.0000000000000000e+00 0.0000000000000000e+00 0.0000000000000000e+00  0.0000000000000000e+00 0.0000000000000000e+00 0.0000000000000000e+00  0.0000000000000000e+00 0.0000000000000000e+00 0.0000000000000000e+00  0.0000000000000000e+00 0.0000000000000000e+00 0.0000000000000000e+00  0.0000000000000000e+00 0.0000000000000000e+00 0.0000000000000000e+00  0.0000000000000000e+00 0.0000000000000000e+00 0.0000000000000000e+00  0.0000000000000000e+00 0.0000000000000000e+00 0.0000000000000000e+00  0.0000000000000000e+00 0.0000000000000000e+00 0.0000000000000000e+00  0.0000000000000000e+00 0.0000000000000000e+00 0.0000000000000000e+00  0.0000000000000000e+00 0.0000000000000000e+00 0.0000000000000000e+00  0.0000000000000000e+00 0.0000000000000000e+00 0.0000000000000000e+00  0.0000000000000000e+00 0.0000000000000000e+00 0.0000000000000000e+00  0.0000000000000000e+00 0.0000000000000000e+00 0.0000000000000000e+00  0.0000000000000000e+00 0.0000000000000000e+00 0.0000000000000000e+00  0.0000000000000000e+00 0.0000000000000000e+00 0.0000000000000000e+00  0.0000000000000000e+00 0.0000000000000000e+00 0.0000000000000000e+00  0.0000000000000000e+00 0.0000000000000000e+00 0.0000000000000000e+00  0.0000000000000000e+00 0.0000000000000000e+00 0.0000000000000000e+00  0.0000000000000000e+00 0.0000000000000000e+00 0.0000000000000000e+00  0.0000000000000000e+00 0.0000000000000000e+00 0.0000000000000000e+00  0.0000000000000000e+00 0.0000000000000000e+00 0.0000000000000000e+00  0.0000000000000000e+00 0.0000000000000000e+00 0.0000000000000000e+00  0.0000000000000000e+00 0.0000000000000000e+00 0.0000000000000000e+00  0.0000000000000000e+00 0.0000000000000000e+00 0.0000000000000000e+00  0.0000000000000000e+00 0.0000000000000000e+00 0.0000000000000000e+00  0.0000000000000000e+00 0.0000000000000000e+00 0.0000000000000000e+00  0.0000000000000000e+00 0.0000000000000000e+00 0.0000000000000000e+00  0.0000000000000000e+00 0.0000000000000000e+00 0.0000000000000000e+00  0.0000000000000000e+00 0.0000000000000000e+00 0.0000000000000000e+00  0.0000000000000000e+00 0.0000000000000000e+00 0.0000000000000000e+00  0.0000000000000000e+00 0.0000000000000000e+00 0.0000000000000000e+00  0.0000000000000000e+00 0.0000000000000000e+00 0.0000000000000000e+00  0.0000000000000000e+00 0.0000000000000000e+00 0.0000000000000000e+00  2.5292092840163638e-01 2.7343533006469098e-03 0.0000000000000000e+00  2.9407272006382529e-01 7.5357308411192377e-03 0.0000000000000000e+00  2.4892434254797599e-01 -8.9367574825841012e-03 0.0000000000000000e+00  0.0000000000000000e+00 0.0000000000000000e+00 0.0000000000000000e+00  0.0000000000000000e+00 0.0000000000000000e+00 0.0000000000000000e+00  0.0000000000000000e+00 0.0000000000000000e+00 0.0000000000000000e+00  0.0000000000000000e+00 0.0000000000000000e+00 0.0000000000000000e+00  0.0000000000000000e+00 0.0000000000000000e+00 0.0000000000000000e+00  0.0000000000000000e+00 0.0000000000000000e+00 0.0000000000000000e+00  0.0000000000000000e+00 0.0000000000000000e+00 0.0000000000000000e+00  0.0000000000000000e+00 0.0000000000000000e+00 0.0000000000000000e+00  0.0000000000000000e+00 0.0000000000000000e+00 0.0000000000000000e+00  0.0000000000000000e+00 0.0000000000000000e+00 0.0000000000000000e+00  0.0000000000000000e+00 0.0000000000000000e+00 0.0000000000000000e+00  0.0000000000000000e+00 0.0000000000000000e+00 0.0000000000000000e+00  0.0000000000000000e+00 0.0000000000000000e+00 0.0000000000000000e+00  0.0000000000000000e+00 0.0000000000000000e+00 0.0000000000000000e+00  0.0000000000000000e+00 0.0000000000000000e+00 0.0000000000000000e+00  0.0000000000000000e+00 0.0000000000000000e+00 0.0000000000000000e+00  0.0000000000000000e+00 0.0000000000000000e+00 0.0000000000000000e+00  0.0000000000000000e+00 0.0000000000000000e+00 0.0000000000000000e+00  0.0000000000000000e+00 0.0000000000000000e+00 0.0000000000000000e+00  0.0000000000000000e+00 0.0000000000000000e+00 0.0000000000000000e+00  0.0000000000000000e+00 0.0000000000000000e+00 0.0000000000000000e+00  0.0000000000000000e+00 0.0000000000000000e+00 0.0000000000000000e+00  0.0000000000000000e+00 0.0000000000000000e+00 0.0000000000000000e+00  0.0000000000000000e+00 0.0000000000000000e+00 0.0000000000000000e+00  0.0000000000000000e+00 0.0000000000000000e+00 0.0000000000000000e+00  0.0000000000000000e+00 0.0000000000000000e+00 0.0000000000000000e+00  0.0000000000000000e+00 0.0000000000000000e+00 0.0000000000000000e+00  0.0000000000000000e+00 0.0000000000000000e+00 0.0000000000000000e+00  0.0000000000000000e+00 0.0000000000000000e+00 0.0000000000000000e+00  0.0000000000000000e+00 0.0000000000000000e+00 0.0000000000000000e+00  0.0000000000000000e+00 0.0000000000000000e+00 0.0000000000000000e+00  0.0000000000000000e+00 0.0000000000000000e+00 0.0000000000000000e+00  0.0000000000000000e+00 0.0000000000000000e+00 0.0000000000000000e+00  0.0000000000000000e+00 0.0000000000000000e+00 0.0000000000000000e+00  0.0000000000000000e+00 0.0000000000000000e+00 0.0000000000000000e+00  0.0000000000000000e+00 0.0000000000000000e+00 0.0000000000000000e+00  0.0000000000000000e+00 0.0000000000000000e+00 0.0000000000000000e+00  0.0000000000000000e+00 0.0000000000000000e+00 0.0000000000000000e+00  0.0000000000000000e+00 0.0000000000000000e+00 0.0000000000000000e+00  0.0000000000000000e+00 0.0000000000000000e+00 0.0000000000000000e+00  -7.6068758018410443e-14 0.0000000000000000e+00 0.0000000000000000e+00  0.0000000000000000e+00 0.0000000000000000e+00 0.0000000000000000e+00  0.0000000000000000e+00 0.0000000000000000e+00 0.0000000000000000e+00  0.0000000000000000e+00 0.0000000000000000e+00 0.0000000000000000e+00  0.0000000000000000e+00 0.0000000000000000e+00 0.0000000000000000e+00  0.0000000000000000e+00 0.0000000000000000e+00 0.0000000000000000e+00  0.0000000000000000e+00 0.0000000000000000e+00 0.0000000000000000e+00  0.0000000000000000e+00 0.0000000000000000e+00 0.0000000000000000e+00  0.0000000000000000e+00 0.0000000000000000e+00 0.0000000000000000e+00  0.0000000000000000e+00 0.0000000000000000e+00 0.0000000000000000e+00  0.0000000000000000e+00 0.0000000000000000e+00 0.0000000000000000e+00  0.0000000000000000e+00 0.0000000000000000e+00 0.0000000000000000e+00  0.0000000000000000e+00 0.0000000000000000e+00 0.0000000000000000e+00  0.0000000000000000e+00 0.0000000000000000e+00 0.0000000000000000e+00  0.0000000000000000e+00 0.0000000000000000e+00 0.0000000000000000e+00  0.0000000000000000e+00 0.0000000000000000e+00 0.0000000000000000e+00  0.0000000000000000e+00 0.0000000000000000e+00 0.0000000000000000e+00  0.0000000000000000e+00 0.0000000000000000e+00 0.0000000000000000e+00  0.0000000000000000e+00 0.0000000000000000e+00 0.0000000000000000e+00  0.0000000000000000e+00 0.0000000000000000e+00 0.0000000000000000e+00  0.0000000000000000e+00 0.0000000000000000e+00 0.0000000000000000e+00  0.0000000000000000e+00 0.0000000000000000e+00 0.0000000000000000e+00  0.0000000000000000e+00 0.0000000000000000e+00 0.0000000000000000e+00  0.0000000000000000e+00 0.0000000000000000e+00 0.0000000000000000e+00  0.0000000000000000e+00 0.0000000000000000e+00 0.0000000000000000e+00  0.0000000000000000e+00 0.0000000000000000e+00 0.0000000000000000e+00  0.0000000000000000e+00 0.0000000000000000e+00 0.0000000000000000e+00  0.0000000000000000e+00 0.0000000000000000e+00 0.0000000000000000e+00  0.0000000000000000e+00 0.0000000000000000e+00 0.0000000000000000e+00  0.0000000000000000e+00 0.0000000000000000e+00 0.0000000000000000e+00  0.0000000000000000e+00 0.0000000000000000e+00 0.0000000000000000e+00  0.0000000000000000e+00 0.0000000000000000e+00 0.0000000000000000e+00  0.0000000000000000e+00 0.0000000000000000e+00 0.0000000000000000e+00  0.0000000000000000e+00 0.0000000000000000e+00 0.0000000000000000e+00  0.0000000000000000e+00 0.0000000000000000e+00 0.0000000000000000e+00  0.0000000000000000e+00 0.0000000000000000e+00 0.0000000000000000e+00  0.0000000000000000e+00 0.0000000000000000e+00 0.0000000000000000e+00  5.1566020142353125e-13 0.0000000000000000e+00 0.0000000000000000e+00  -2.0078840543179248e-06 1.6996436205476937e-06 0.0000000000000000e+00  -4.2499864005004734e-06 3.9936830620456891e-06 0.0000000000000000e+00  -6.2154980477390323e-06 7.6950995409270774e-06 0.0000000000000000e+00  -8.3088925986744718e-06 1.2878725017962149e-05 0.0000000000000000e+00  -1.0048572387083837e-05 1.9275750502130143e-05 0.0000000000000000e+00  -1.1985232646856012e-05 2.6992885036854843e-05 0.0000000000000000e+00  -1.3539994703710735e-05 3.5670432199000265e-05 0.0000000000000000e+00  -1.5031320228833550e-05 4.5597839817481566e-05 0.0000000000000000e+00  -1.6710462352845762e-05 5.6457314140515553e-05 0.0000000000000000e+00  -1.7992742346837101e-05 6.8272773640032692e-05 0.0000000000000000e+00  -1.9516515037153978e-05 8.1015825960110659e-05 0.0000000000000000e+00  -2.0666007186948307e-05 9.4594074953376360e-05 0.0000000000000000e+00  -2.1985369842441463e-05 1.0896926178127764e-04 0.0000000000000000e+00  -2.3035068790177319e-05 1.2397507718980518e-04 0.0000000000000000e+00  -2.4034288570435380e-05 1.3974890100831107e-04 0.0000000000000000e+00  -2.5129777645570536e-05 1.5608712390443550e-04 0.0000000000000000e+00  -2.5966391413899022e-05 1.7299035484686314e-04 0.0000000000000000e+00  -2.6919031780760821e-05 1.9043642522282886e-04 0.0000000000000000e+00  -2.7633571616988018e-05 2.0834084325546199e-04 0.0000000000000000e+00  -2.8426857327518970e-05 2.2667593869341460e-04 0.0000000000000000e+00  -2.9051137708331446e-05 2.4539484764740188e-04 0.0000000000000000e+00  -2.9693701713141879e-05 2.6447813168551938e-04 0.0000000000000000e+00  -3.0202036559906757e-05 2.8381095331731339e-04 0.0000000000000000e+00  -3.0660695497064415e-05 3.0345166492224112e-04 0.0000000000000000e+00  -3.1124853949035286e-05 3.2329046701417180e-04 0.0000000000000000e+00  -3.1488359998623652e-05 3.4333619527067010e-04 0.0000000000000000e+00  -3.1818189946915204e-05 3.6356372444483302e-04 0.0000000000000000e+00  -3.2086112491818273e-05 3.8390757620847206e-04 0.0000000000000000e+00  -3.2320232031620990e-05 4.0438563367419450e-04 0.0000000000000000e+00  -3.2505024771410463e-05 4.2493580330309270e-04 0.0000000000000000e+00  -3.2659210918353990e-05 4.4557527746581386e-04 0.0000000000000000e+00  -3.2775241463249722e-05 4.6625289379997512e-04 0.0000000000000000e+00  -3.2865840635327927e-05 4.8698519058500465e-04 0.0000000000000000e+00  -3.2927379862159141e-05 5.0773234675190713e-04 0.0000000000000000e+00  -3.2969158231636163e-05 5.2850962485811298e-04 0.0000000000000000e+00  -3.2992765506459313e-05 5.4928879179198863e-04 0.0000000000000000e+00  -3.3002062627929176e-05 5.7008124736386871e-04 0.0000000000000000e+00  -3.3000346984637348e-05 5.9086896822498503e-04 0.0000000000000000e+00  -3.2988472366494684e-05 6.1166081611242903e-04 0.0000000000000000e+00  -3.2971792921648493e-05 6.3244717117844746e-04 0.0000000000000000e+00  -3.2949612925611597e-05 6.5323233754893217e-04 0.0000000000000000e+00  -3.2926274515614019e-05 6.7401475808334232e-04 0.0000000000000000e+00  -3.2901595190286849e-05 6.9479644714191434e-04 0.0000000000000000e+00  -3.2876559822298654e-05 7.1557826339071703e-04 0.0000000000000000e+00  -3.2852086985591422e-05 7.3636093025774316e-04 0.0000000000000000e+00  -3.2827739684439312e-05 7.5714568628308372e-04 0.0000000000000000e+00  -1.8884781038495700e-05 7.7791698988427819e-04 0.0000000000000000e+00  8.9485985599645593e-06 7.7788472795480392e-04 0.0000000000000000e+00  2.2839974857439015e-05 7.5708184075793793e-04 0.0000000000000000e+00  2.2812578993847165e-05 7.3629740454106993e-04 0.0000000000000000e+00  2.2786575940465995e-05 7.1551336958756843e-04 0.0000000000000000e+00  2.2762616516254166e-05 6.9472940543599505e-04 0.0000000000000000e+00  2.2740776441303331e-05 6.7394417982406557e-04 0.0000000000000000e+00  2.2722134096961766e-05 6.5315589225617052e-04 0.0000000000000000e+00  2.2706141919946822e-05 6.3236429998629173e-04 0.0000000000000000e+00  2.2694310169351249e-05 6.1156687134507315e-04 0.0000000000000000e+00  2.2684650553565555e-05 5.9076789865581639e-04 0.0000000000000000e+00  2.2678552351776431e-05 5.6996327598734891e-04 0.0000000000000000e+00  2.2671010280953935e-05 5.4916126142556538e-04 0.0000000000000000e+00  2.2668715832704026e-05 5.2835932536861514e-04 0.0000000000000000e+00  2.2659641526888535e-05 5.0757024126121104e-04 0.0000000000000000e+00  2.2657115652440712e-05 4.8679522798582379e-04 0.0000000000000000e+00  2.2637039115733724e-05 4.6604970829903114e-04 0.0000000000000000e+00  2.2626706300265171e-05 4.4534096657317422e-04 0.0000000000000000e+00  2.2584382300595328e-05 4.2468764859903709e-04 0.0000000000000000e+00  2.2557568079207272e-05 4.0410386140901958e-04 0.0000000000000000e+00  2.2480482068051227e-05 3.8361226575878599e-04 0.0000000000000000e+00  2.2426253691357379e-05 3.6323490648184449e-04 0.0000000000000000e+00  2.2296253057461726e-05 3.4299680408532055e-04 0.0000000000000000e+00  2.2199771651103298e-05 3.2292938479200426e-04 0.0000000000000000e+00  2.2005631191034789e-05 3.0306364793880527e-04 0.0000000000000000e+00  2.1838714416988543e-05 2.8340954793040454e-04 0.0000000000000000e+00  2.1641419477567148e-05 2.6406687320409570e-04 0.0000000000000000e+00  2.1334253673395599e-05 2.4496527427249321e-04 0.0000000000000000e+00  2.1036549815719947e-05 2.2625050648909909e-04 0.0000000000000000e+00  2.0643588803667378e-05 2.0789400419092774e-04 0.0000000000000000e+00  2.0244153219582954e-05 1.8999478090178266e-04 0.0000000000000000e+00  1.9740852459701878e-05 1.7254719776290672e-04 0.0000000000000000e+00  1.9229676261518754e-05 1.5562419336421566e-04 0.0000000000000000e+00  1.8536182981841749e-05 1.3932808409709914e-04 0.0000000000000000e+00  1.7931947045925912e-05 1.2355311210106860e-04 0.0000000000000000e+00  1.7271350071947380e-05 1.0856556488131143e-04 0.0000000000000000e+00  1.6380877549522042e-05 9.4149924106139900e-05 0.0000000000000000e+00  1.5525705878857195e-05 8.0613321763800088e-05 0.0000000000000000e+00  1.4507981693725725e-05 6.7870797412878240e-05 0.0000000000000000e+00  1.3503613942436546e-05 5.6027964121316397e-05 0.0000000000000000e+00  1.2221262850692105e-05 4.5234874106688359e-05 0.0000000000000000e+00  1.1103368162690299e-05 3.5298342284461747e-05 0.0000000000000000e+00  9.9204106443336259e-06 2.6629246848331711e-05 0.0000000000000000e+00  8.3817557910328871e-06 1.8880323430583811e-05 0.0000000000000000e+00  6.9584889168428719e-06 1.2466887164762740e-05 0.0000000000000000e+00  5.2137896187106778e-06 7.3536168992381101e-06 0.0000000000000000e+00  3.6374288280015451e-06 3.6371110244304122e-06 0.0000000000000000e+00  1.7194990371467624e-06 1.3476544475217793e-06 0.0000000000000000e+00  -2.2569785205336316e-07 1.6358255765482174e-06 0.0000000000000000e+00  -5.3603938395986919e-06 7.4667343997973147e-04 0.0000000000000000e+00  -5.6230540687788547e-06 7.0695381108335431e-04 0.0000000000000000e+00  -5.4331440877053752e-06 6.4205896508064413e-04 0.0000000000000000e+00  -5.6917674546552498e-07 9.0502196078487531e-06 0.0000000000000000e+00  -5.1464863008717126e-06 6.0121633378115756e-04 0.0000000000000000e+00  -7.9815488965664375e-07 2.1354309422400600e-05 0.0000000000000000e+00  -5.1529338478761775e-06 5.5961870713661023e-04 0.0000000000000000e+00  -1.3058713405043661e-06 5.0493319695120568e-05 0.0000000000000000e+00  -1.8717796709976997e-06 7.3772872265905973e-05 0.0000000000000000e+00  -5.1311130007996732e-06 5.1802868224827439e-04 0.0000000000000000e+00  -2.5535431919924921e-06 1.4791094514498863e-04 0.0000000000000000e+00  -4.9727148204644881e-06 4.3508144115031959e-04 0.0000000000000000e+00  -1.9939889768984069e-06 9.9794233275390202e-05 0.0000000000000000e+00  -3.2207180267782478e-06 1.8110533503977032e-04 0.0000000000000000e+00  -4.8250269508651909e-06 3.9391810228838256e-04 0.0000000000000000e+00  -5.0731514667952105e-06 4.7649044542282535e-04 0.0000000000000000e+00  -3.5885910216488685e-06 2.1696908312137338e-04 0.0000000000000000e+00  -4.6267634845851765e-06 3.5316020532152469e-04 0.0000000000000000e+00  -3.5871307452410177e-06 2.5291435308294702e-04 0.0000000000000000e+00  -4.7258259768759345e-06 3.1383461061564694e-04 0.0000000000000000e+00  -4.1435719229784086e-06 2.8188006798884516e-04 0.0000000000000000e+00  -2.5679922681929606e-06 1.2209533820028970e-04 0.0000000000000000e+00  -5.0361197109620292e-06 6.7579940254545502e-04 0.0000000000000000e+00  -1.1899641797282910e-06 3.4199371206939369e-05 0.0000000000000000e+00  4.2807445798568733e-06 7.2665944956151708e-04 0.0000000000000000e+00  1.3523552872533777e-06 4.6678746649788942e-06 0.0000000000000000e+00  2.9442796686577205e-06 5.8040281219931013e-04 0.0000000000000000e+00  2.9618078888739754e-06 6.2199796230531649e-04 0.0000000000000000e+00  -3.7042326086332712e-06 1.5025530656915834e-05 0.0000000000000000e+00  -6.2506316082230664e-06 6.1585015478511973e-05 0.0000000000000000e+00  3.0182170346841679e-06 4.5573693579663592e-04 0.0000000000000000e+00  2.9458743637500429e-06 5.3880178457095735e-04 0.0000000000000000e+00  -9.5827182607297684e-06 1.6400492172540012e-04 0.0000000000000000e+00  3.0878711248810087e-06 4.1442996692118620e-04 0.0000000000000000e+00  -7.2812550652373268e-06 8.7096289052419283e-05 0.0000000000000000e+00  -1.0338505540744193e-05 1.9891915513255750e-04 0.0000000000000000e+00  3.1757016941877575e-06 3.7344369944277003e-04 0.0000000000000000e+00  2.9703260831047822e-06 4.9722651205545004e-04 0.0000000000000000e+00  -1.2603210948918321e-05 2.3543940878879328e-04 0.0000000000000000e+00  3.2768793789837312e-06 3.3296020604828681e-04 0.0000000000000000e+00  -4.0673331227376326e-07 4.0255269447303280e-07 0.0000000000000000e+00  2.1260840990139435e-07 2.8879772510673615e-07 0.0000000000000000e+00  -1.1750584826682046e-05 7.6302820482940074e-04 0.0000000000000000e+00  -2.3257851314537973e-06 4.8162790185848922e-06 0.0000000000000000e+00  5.1599256714858039e-06 2.9760695051714244e-04 0.000000000000000