<?xml version="1.0"?>
<VTKFile type="UnstructuredGrid"  version="0.1"  >
<UnstructuredGrid>
<Piece  NumberOfPoints="1419" NumberOfCells="2698">
<Points>
<DataArray  type="Float64"  NumberOfComponents="3"  format="ascii">0 0 0  0 0.41 0  2.5 0 0  2.5 0.41 0  0.6 0.19 0  0.6 0.21 0  0.25 0.2 0  0.15 0.2 0  0.2489897948556636 0.21 0  0.2489897948556636 0.19 0  0.6 0.2 0  0 0.3807142857143437 0  0 0.3514285714286952 0  0 0.3221428571430699 0  0 0.29285714285744 0  0 0.2635714285718054 0  0 0.2342857142861561 0  0 0.2050000000005308 0  0 0.175714285714732 0  0 0.1464285714289574 0  0 0.1171428571431897 0  0 0.08785714285737878 0  0 0.05857142857161107 0  0 0.02928571428580012 0  0.03015443760436003 0 0  0.06140001986583606 0 0  0.09377624077125973 0 0  0.1273239957535082 0 0  0.1620856860351972 0 0  0.1981052433264291 0 0  0.235428184091502 0 0  0.2741016576309132 0 0  0.3141745521465447 0 0  0.3556974926295285 0 0  0.3987229542472677 0 0  0.4433053055141081 0 0  0.4895008759286886 0 0  0.5373680609405097 0 0  0.5869673343216626 0 0  0.6383613676634521 0 0  0.6916151138468254 0 0  0.7467958595648856 0 0  0.8039733463919316 0 0  0.8632198139502143 0 0  0.9246101326867038 0 0  0.9882218810934433 0 0  1.054135445558498 0 0  1.122434100542598 0 0  1.193204177141305 0 0  1.266535089879536 0 0  1.342519516046404 0 0  1.421253448503939 0 0  1.502836389106271 0 0  1.587371439758838 0 0  1.674965418777374 0 0  1.765729001825544 0 0  1.859776908880082 0 0  1.957227977487062 0 0  2.058205329869943 0 0  2.162836591189951 0 0  2.271253957290865 0 0  2.383594446803425 0 0  2.5 0.1024999999997612 0  2.5 0.2049999999994743 0  2.5 0.3074999999997183 0  2.383594446803656 0.41 0  2.271253957291315 0.41 0  2.162836591190598 0.41 0  2.058205329870775 0.41 0  1.957227977488067 0.41 0  1.859776908881246 0.41 0  1.765729001826854 0.41 0  1.674965418778818 0.41 0  1.58737143976041 0.41 0  1.502836389107956 0.41 0  1.421253448505726 0.41 0  1.342519516048286 0.41 0  1.266535089881505 0.41 0  1.193204177143353 0.41 0  1.122434100544716 0.41 0  1.05413544556068 0.41 0  0.9882218810956305 0.41 0  0.9246101326886647 0.41 0  0.8632198139519631 0.41 0  0.8039733463934788 0.41 0  0.7467958595662458 0.41 0  0.6916151138480078 0.41 0  0.6383613676644679 0.41 0  0.5869673343225223 0.41 0  0.5373680609412221 0.41 0  0.4895008759292634 0.41 0  0.4433053055145528 0.41 0  0.3987229542475914 0.41 0  0.3556974926297398 0.41 0  0.3141745521466497 0.41 0  0.2741016576310038 0.41 0  0.2354281840915826 0.41 0  0.1981052433265003 0.41 0  0.1620856860352591 0.41 0  0.1273239957535623 0.41 0  0.09377624077128965 0.41 0  0.06140001986584975 0.41 0  0.03015443760436654 0.41 0  0.2497468076502589 0.2050254481002335 0  0.2497468076502614 0.1949745518997913 0  0.2469965252529372 0.1829317073451959 0  0.2439893735792749 0.1762316384219906 0  0.2400332147834255 0.1700443375285386 0  0.2352133972704371 0.1645032867342007 0  0.2296339016332438 0.1597280261969788 0  0.2234150974217223 0.1558215752574715 0  0.2166911463437691 0.1528682099456123 0  0.2096071079204251 0.1509316448471593 0  0.2023158100364996 0.1500536585536553 0  0.194974551899914 0.1502531923497262 0  0.1877417105387872 0.1515259415822739 0  0.1807733240461124 0.153844448527136 0  0.1742197252835808 0.15715869474974 0  0.1682222986673531 0.1613971801805478 0  0.162910430003803 0.1664684656256651 0  0.1583987151779087 0.1722631454351573 0  0.1547844879126891 0.178656207771761 0  0.1521457199348551 0.1855097315605723 0  0.1505393388476355 0.1926758619366523 0  0.1505393388476328 0.2073241380633295 0  0.1521457199348437 0.2144902684393899 0  0.1547844879126531 0.221343792228163 0  0.1583987151778488 0.2277368545647528 0  0.1629104300036858 0.2335315343742052 0  0.1682222986671726 0.2386028198193036 0  0.1742197252833576 0.2428413052501257 0  0.1807733240458683 0.2461555514727623 0  0.1877417105384929 0.2484740584176516 0  0.1949745518995776 0.2497468076502398 0  0.202315810036185 0.2499463414463592 0  0.2096071079201568 0.2490683551528932 0  0.2166911463435495 0.2471317900544655 0  0.2234150974215506 0.2441784247426195 0  0.2296339016331197 0.2402719738031125 0  0.2352133972703547 0.2354967132658811 0  0.2400332147833751 0.2299556624715287 0  0.2439893735792577 0.2237683615780412 0  0.246996525252926 0.2170682926548348 0  0.25645809709277 0.21 0  0.2639263993298655 0.21 0  0.271394701566961 0.21 0  0.2788630038040554 0.21 0  0.2863313060411479 0.21 0  0.2937996082782405 0.21 0  0.301267910515333 0.21 0  0.3087362127524279 0.21 0  0.3162045149895234 0.21 0  0.3236728172265972 0.21 0  0.3311411194636928 0.21 0  0.3386094217007701 0.21 0  0.3460777239378666 0.21 0  0.3535460261749672 0.21 0  0.3610143284120516 0.21 0  0.3684826306491596 0.21 0  0.3759509328862226 0.21 0  0.383419235123329 0.21 0  0.3908875373604028 0.21 0  0.3983558395975142 0.21 0  0.4058241418345938 0.21 0  0.4132924440716992 0.21 0  0.4207607463087888 0.21 0  0.4282290485459029 0.21 0  0.4356973507830418 0.21 0  0.4431656530201649 0.21 0  0.4506339552573136 0.21 0  0.4581022574944306 0.21 0  0.4655705597315852 0.21 0  0.4730388619686996 0.21 0  0.480507164205851 0.21 0  0.4879754664429498 0.21 0  0.4954437686800938 0.21 0  0.502912070917267 0.21 0  0.5103803731544119 0.21 0  0.5178486753915261 0.21 0  0.5253169776286404 0.21 0  0.5327852798657868 0.21 0  0.5402535821029386 0.21 0  0.54772188434007 0.21 0  0.5551901865771842 0.21 0  0.5626584888143201 0.21 0  0.5701267910514778 0.21 0  0.5775950932886138 0.21 0  0.5850633955257281 0.21 0  0.5925316977628483 0.21 0  0.6 0.2050000000000054 0  0.6 0.1950000000000217 0  0.5925316977628897 0.19 0  0.5850633955257988 0.19 0  0.5775950932887378 0.19 0  0.5701267910515998 0.19 0  0.5626584888145268 0.19 0  0.5551901865773963 0.19 0  0.547721884340339 0.19 0  0.5402535821032429 0.19 0  0.5327852798661811 0.19 0  0.5253169776290537 0.19 0  0.5178486753919799 0.19 0  0.5103803731549078 0.19 0  0.502912070917822 0.19 0  0.4954437686807294 0.19 0  0.4879754664436223 0.19 0  0.4805071642065402 0.19 0  0.4730388619694271 0.19 0  0.4655705597323621 0.19 0  0.4581022574952563 0.19 0  0.4506339552581777 0.19 0  0.4431656530210671 0.19 0  0.4356973507839815 0.19 0  0.4282290485468779 0.19 0  0.4207607463097617 0.19 0  0.4132924440726327 0.19 0  0.4058241418354857 0.19 0  0.3983558395983636 0.19 0  0.3908875373612097 0.19 0  0.3834192351240934 0.19 0  0.3759509328869369 0.19 0  0.3684826306498175 0.19 0  0.361014328412667 0.19 0  0.3535460261755617 0.19 0  0.3460777239384295 0.19 0  0.3386094217012945 0.19 0  0.3311411194641595 0.19 0  0.3236728172270245 0.19 0  0.3162045149898895 0.19 0  0.3087362127527544 0.19 0  0.3012679105156187 0.19 0  0.2937996082784807 0.19 0  0.2863313060413428 0.19 0  0.2788630038042048 0.19 0  0.2713947015670686 0.19 0  0.2639263993299336 0.19 0  0.2564580970927985 0.19 0  0.2607803159922026 0.2000727136295815 0  0.5887803774232762 0.2001272386983733 0  0.5745072403740523 0.2002044435018727 0  0.5511891430099709 0.2001122610077113 0  0.2751288526855082 0.20000000000002 0  0.5365194309847112 0.1999999999999436 0  0.2894621222999649 0.1998691686390484 0  0.5215828265105155 0.1999999999999228 0  0.3127789816668748 0.1998657885438805 0  0.3274069683451451 0.2000000000000796 0  0.5066462220363641 0.199999999999908 0  0.3650630746574081 0.199866017807523 0  0.476773013087985 0.1999999999998713 0  0.3417402379596385 0.1998691686391011 0  0.3796850840047755 0.200000000000134 0  0.4618364086138087 0.1999999999998546 0  0.4917096175621762 0.1999999999998808 0  0.3946216884789568 0.2000000000001512 0  0.446899804139621 0.1999999999998389 0  0.4089549580935208 0.1998691686391595 0  0.4322718174608562 0.200127451265745 0  0.4201487168029707 0.1999966199048527 0  0.3528922713220932 0.2000185703532356 0  0.5633122436674589 0.1999814296467508 0  0.3006558810093873 0.1999966199048318 0  0.5815926498168407 0.1966545283159175 0  0.2677053789419034 0.1964246479135325 0  0.5290511287476175 0.1970915826863981 0  0.5439877332217911 0.197091582686394 0  0.2825131256993216 0.2035478995978015 0  0.3199386661080599 0.202908417313604 0  0.4842413153250809 0.1970915826863873 0  0.5141145242734466 0.1970915826863843 0  0.3722167817676917 0.2029084173136195 0  0.4693047108508938 0.1970915826863783 0  0.3348752705822316 0.202908417313609 0  0.3871533862418661 0.2029084173136212 0  0.4543681063767183 0.1970915826863795 0  0.4991779197992749 0.1970915826863902 0  0.4020059614928624 0.203547899597858 0  0.4394315019025246 0.1970915826863714 0  0.2550657455369551 0.2034088125358657 0  0.2548908499171161 0.1966940311614271 0  0.5946539510196798 0.2024302972968126 0  0.267698176732111 0.2039977513680092 0  0.4261685417851465 0.196409292431739 0  0.3590076176283495 0.196411355804271 0  0.5571672426447437 0.2036011176410121 0  0.3066757059912147 0.1964092924317024 0  0.594380730180568 0.1966558399668133 0  0.4842413153245942 0.2040749161535287 0  0.4693047108503577 0.2040749161535231 0  0.3871533862424271 0.1959250838464788 0  0.372246743208829 0.1959123236376545 0  0.5141145242731028 0.2040749161535395 0  0.4543681063761134 0.2040749161535186 0  0.4019979587101454 0.1959834479682427 0  0.4394608940728603 0.2040870543693135 0  0.5439623148931173 0.2040856076781014 0  0.5290511287473298 0.2040749161535501 0  0.4991779197988497 0.2040749161535382 0  0.3347912413592433 0.1959225448935183 0  0.3199680582793816 0.1959123018030061 0  0.2825051229162361 0.1959834479681729 0  0.3590471196690275 0.2036304442587945 0  0.5571594006495384 0.1963685282145804 0  0.3067669986803285 0.203627750582736 0  0.4262598344738712 0.2036568242185335 0  0.5814408164431408 0.2041285596160068 0  0.5688286748170428 0.1961819304477386 0  0.4145905603063645 0.2038180695522843 0  0.3473758401724931 0.2038180695522752 0  0.2950977245128307 0.2038180695522663 0  0.5688286748170693 0.203818069552238 0  0.2950977245127906 0.1961819304477774 0  0.3473758401723931 0.1961819304478349 0  0.4145905603061963 0.1961819304479011 0  0.2601812407614425 0.2056861609747042
[...]
<PointData  Vectors="f_46-0"> 
<DataArray  type="Float64"  Name="f_46-0"  NumberOfComponents="3" format="ascii">0.0000000000000000e+00 0.0000000000000000e+00 0.0000000000000000e+00  0.0000000000000000e+00 0.0000000000000000e+00 0.0000000000000000e+00  0.0000000000000000e+00 0.0000000000000000e+00 0.0000000000000000e+00  0.0000000000000000e+00 0.0000000000000000e+00 0.0000000000000000e+00  1.5520959754187755e-05 6.2587007633629953e-04 0.0000000000000000e+00  -2.6972434239905730e-05 6.2595142528425619e-04 0.0000000000000000e+00  0.0000000000000000e+00 0.0000000000000000e+00 0.0000000000000000e+00  0.0000000000000000e+00 0.0000000000000000e+00 0.0000000000000000e+00  0.0000000000000000e+00 0.0000000000000000e+00 0.0000000000000000e+00  0.0000000000000000e+00 0.0000000000000000e+00 0.0000000000000000e+00  -5.7188554874411970e-06 6.2591256903291091e-04 0.0000000000000000e+00  7.9591836734548407e-02 0.0000000000000000e+00 0.0000000000000000e+00  1.4693877550994527e-01 0.0000000000000000e+00 0.0000000000000000e+00  2.0204081632617482e-01 0.0000000000000000e+00 0.0000000000000000e+00  2.4489795918330079e-01 0.0000000000000000e+00 0.0000000000000000e+00  2.7551020408131754e-01 0.0000000000000000e+00 0.0000000000000000e+00  2.9387755102022350e-01 0.0000000000000000e+00 0.0000000000000000e+00  3.0000000000000004e-01 0.0000000000000000e+00 0.0000000000000000e+00  2.9387755102059482e-01 0.0000000000000000e+00 0.0000000000000000e+00  2.7551020408195548e-01 0.0000000000000000e+00 0.0000000000000000e+00  2.4489795918409071e-01 0.0000000000000000e+00 0.0000000000000000e+00  2.0204081632692528e-01 0.0000000000000000e+00 0.0000000000000000e+00  1.4693877551058568e-01 0.0000000000000000e+00 0.0000000000000000e+00  7.9591836734909230e-02 0.0000000000000000e+00 0.0000000000000000e+00  0.0000000000000000e+00 0.0000000000000000e+00 0.0000000000000000e+00  0.0000000000000000e+00 0.0000000000000000e+00 0.0000000000000000e+00  0.0000000000000000e+00 0.0000000000000000e+00 0.0000000000000000e+00  0.0000000000000000e+00 0.0000000000000000e+00 0.0000000000000000e+00  0.0000000000000000e+00 0.0000000000000000e+00 0.0000000000000000e+00  0.0000000000000000e+00 0.0000000000000000e+00 0.0000000000000000e+00  0.0000000000000000e+00 0.0000000000000000e+00 0.0000000000000000e+00  0.0000000000000000e+00 0.0000000000000000e+00 0.0000000000000000e+00  0.0000000000000000e+00 0.0000000000000000e+00 0.0000000000000000e+00  0.0000000000000000e+00 0.0000000000000000e+00 0.0000000000000000e+00  0.0000000000000000e+00 0.0000000000000000e+00 0.0000000000000000e+00  0.0000000000000000e+00 0.0000000000000000e+00 0.0000000000000000e+00  0.0000000000000000e+00 0.0000000000000000e+00 0.0000000000000000e+00  0.0000000000000000e+00 0.0000000000000000e+00 0.0000000000000000e+00  0.0000000000000000e+00 0.0000000000000000e+00 0.0000000000000000e+00  0.0000000000000000e+00 0.0000000000000000e+00 0.0000000000000000e+00  0.0000000000000000e+00 0.0000000000000000e+00 0.0000000000000000e+00  0.0000000000000000e+00 0.0000000000000000e+00 0.0000000000000000e+00  0.0000000000000000e+00 0.0000000000000000e+00 0.0000000000000000e+00  0.0000000000000000e+00 0.0000000000000000e+00 0.0000000000000000e+00  0.0000000000000000e+00 0.0000000000000000e+00 0.0000000000000000e+00  0.0000000000000000e+00 0.0000000000000000e+00 0.0000000000000000e+00  0.0000000000000000e+00 0.0000000000000000e+00 0.0000000000000000e+00  0.0000000000000000e+00 0.0000000000000000e+00 0.0000000000000000e+00  0.0000000000000000e+00 0.0000000000000000e+00 0.0000000000000000e+00  0.0000000000000000e+00 0.0000000000000000e+00 0.0000000000000000e+00  0.0000000000000000e+00 0.0000000000000000e+00 0.0000000000000000e+00  0.0000000000000000e+00 0.0000000000000000e+00 0.0000000000000000e+00  0.0000000000000000e+00 0.0000000000000000e+00 0.0000000000000000e+00  0.0000000000000000e+00 0.0000000000000000e+00 0.0000000000000000e+00  0.0000000000000000e+00 0.0000000000000000e+00 0.0000000000000000e+00  0.0000000000000000e+00 0.0000000000000000e+00 0.0000000000000000e+00  0.0000000000000000e+00 0.0000000000000000e+00 0.0000000000000000e+00  0.0000000000000000e+00 0.0000000000000000e+00 0.0000000000000000e+00  0.0000000000000000e+00 0.0000000000000000e+00 0.0000000000000000e+00  0.0000000000000000e+00 0.0000000000000000e+00 0.0000000000000000e+00  0.0000000000000000e+00 0.0000000000000000e+00 0.0000000000000000e+00  0.0000000000000000e+00 0.0000000000000000e+00 0.0000000000000000e+00  2.5423711419867645e-01 3.3247851604916905e-03 0.0000000000000000e+00  2.8995897952679339e-01 8.6786940791428492e-03 0.0000000000000000e+00  2.5172154410354280e-01 -9.4150068826425615e-03 0.0000000000000000e+00  0.0000000000000000e+00 0.0000000000000000e+00 0.0000000000000000e+00  0.0000000000000000e+00 0.0000000000000000e+00 0.0000000000000000e+00  0.0000000000000000e+00 0.0000000000000000e+00 0.0000000000000000e+00  0.0000000000000000e+00 0.0000000000000000e+00 0.0000000000000000e+00  0.0000000000000000e+00 0.0000000000000000e+00 0.0000000000000000e+00  0.0000000000000000e+00 0.0000000000000000e+00 0.0000000000000000e+00  0.0000000000000000e+00 0.0000000000000000e+00 0.0000000000000000e+00  0.0000000000000000e+00 0.0000000000000000e+00 0.0000000000000000e+00  0.0000000000000000e+00 0.0000000000000000e+00 0.0000000000000000e+00  0.0000000000000000e+00 0.0000000000000000e+00 0.0000000000000000e+00  0.0000000000000000e+00 0.0000000000000000e+00 0.0000000000000000e+00  0.0000000000000000e+00 0.0000000000000000e+00 0.0000000000000000e+00  0.0000000000000000e+00 0.0000000000000000e+00 0.0000000000000000e+00  0.0000000000000000e+00 0.0000000000000000e+00 0.0000000000000000e+00  0.0000000000000000e+00 0.0000000000000000e+00 0.0000000000000000e+00  0.0000000000000000e+00 0.0000000000000000e+00 0.0000000000000000e+00  0.0000000000000000e+00 0.0000000000000000e+00 0.0000000000000000e+00  0.0000000000000000e+00 0.0000000000000000e+00 0.0000000000000000e+00  0.0000000000000000e+00 0.0000000000000000e+00 0.0000000000000000e+00  0.0000000000000000e+00 0.0000000000000000e+00 0.0000000000000000e+00  0.0000000000000000e+00 0.0000000000000000e+00 0.0000000000000000e+00  0.0000000000000000e+00 0.0000000000000000e+00 0.0000000000000000e+00  0.0000000000000000e+00 0.0000000000000000e+00 0.0000000000000000e+00  0.0000000000000000e+00 0.0000000000000000e+00 0.0000000000000000e+00  0.0000000000000000e+00 0.0000000000000000e+00 0.0000000000000000e+00  0.0000000000000000e+00 0.0000000000000000e+00 0.0000000000000000e+00  0.0000000000000000e+00 0.0000000000000000e+00 0.0000000000000000e+00  0.0000000000000000e+00 0.0000000000000000e+00 0.0000000000000000e+00  0.0000000000000000e+00 0.0000000000000000e+00 0.0000000000000000e+00  0.0000000000000000e+00 0.0000000000000000e+00 0.0000000000000000e+00  0.0000000000000000e+00 0.0000000000000000e+00 0.0000000000000000e+00  0.0000000000000000e+00 0.0000000000000000e+00 0.0000000000000000e+00  0.0000000000000000e+00 0.0000000000000000e+00 0.0000000000000000e+00  0.0000000000000000e+00 0.0000000000000000e+00 0.0000000000000000e+00  0.0000000000000000e+00 0.0000000000000000e+00 0.0000000000000000e+00  0.0000000000000000e+00 0.0000000000000000e+00 0.0000000000000000e+00  0.0000000000000000e+00 0.0000000000000000e+00 0.0000000000000000e+00  0.0000000000000000e+00 0.0000000000000000e+00 0.0000000000000000e+00  0.0000000000000000e+00 0.0000000000000000e+00 0.0000000000000000e+00  0.0000000000000000e+00 0.0000000000000000e+00 0.0000000000000000e+00  -2.3264093478545762e-13 0.0000000000000000e+00 0.0000000000000000e+00  0.0000000000000000e+00 0.0000000000000000e+00 0.0000000000000000e+00  0.0000000000000000e+00 0.0000000000000000e+00 0.0000000000000000e+00  0.0000000000000000e+00 0.0000000000000000e+00 0.0000000000000000e+00  0.0000000000000000e+00 0.0000000000000000e+00 0.0000000000000000e+00  0.0000000000000000e+00 0.0000000000000000e+00 0.0000000000000000e+00  0.0000000000000000e+00 0.0000000000000000e+00 0.0000000000000000e+00  0.0000000000000000e+00 0.0000000000000000e+00 0.0000000000000000e+00  0.0000000000000000e+00 0.0000000000000000e+00 0.0000000000000000e+00  0.0000000000000000e+00 0.0000000000000000e+00 0.0000000000000000e+00  0.0000000000000000e+00 0.0000000000000000e+00 0.0000000000000000e+00  0.0000000000000000e+00 0.0000000000000000e+00 0.0000000000000000e+00  0.0000000000000000e+00 0.0000000000000000e+00 0.0000000000000000e+00  0.0000000000000000e+00 0.0000000000000000e+00 0.0000000000000000e+00  0.0000000000000000e+00 0.0000000000000000e+00 0.0000000000000000e+00  0.0000000000000000e+00 0.0000000000000000e+00 0.0000000000000000e+00  0.0000000000000000e+00 0.0000000000000000e+00 0.0000000000000000e+00  0.0000000000000000e+00 0.0000000000000000e+00 0.0000000000000000e+00  0.0000000000000000e+00 0.0000000000000000e+00 0.0000000000000000e+00  0.0000000000000000e+00 0.0000000000000000e+00 0.0000000000000000e+00  0.0000000000000000e+00 0.0000000000000000e+00 0.0000000000000000e+00  0.0000000000000000e+00 0.0000000000000000e+00 0.0000000000000000e+00  0.0000000000000000e+00 0.0000000000000000e+00 0.0000000000000000e+00  0.0000000000000000e+00 0.0000000000000000e+00 0.0000000000000000e+00  0.0000000000000000e+00 0.0000000000000000e+00 0.0000000000000000e+00  0.0000000000000000e+00 0.0000000000000000e+00 0.0000000000000000e+00  0.0000000000000000e+00 0.0000000000000000e+00 0.0000000000000000e+00  0.0000000000000000e+00 0.0000000000000000e+00 0.0000000000000000e+00  0.0000000000000000e+00 0.0000000000000000e+00 0.0000000000000000e+00  0.0000000000000000e+00 0.0000000000000000e+00 0.0000000000000000e+00  0.0000000000000000e+00 0.0000000000000000e+00 0.0000000000000000e+00  0.0000000000000000e+00 0.0000000000000000e+00 0.0000000000000000e+00  0.0000000000000000e+00 0.0000000000000000e+00 0.0000000000000000e+00  0.0000000000000000e+00 0.0000000000000000e+00 0.0000000000000000e+00  0.0000000000000000e+00 0.0000000000000000e+00 0.0000000000000000e+00  0.0000000000000000e+00 0.0000000000000000e+00 0.0000000000000000e+00  0.0000000000000000e+00 0.0000000000000000e+00 0.0000000000000000e+00  0.0000000000000000e+00 0.0000000000000000e+00 0.0000000000000000e+00  -1.8922660249200996e-06 1.6392849227144353e-06 0.0000000000000000e+00  -3.9852739835755097e-06 3.7679883973185821e-06 0.0000000000000000e+00  -5.8156266266213619e-06 7.1608893491337250e-06 0.0000000000000000e+00  -7.7447239763444801e-06 1.1883734258059732e-05 0.0000000000000000e+00  -9.3458195143234537e-06 1.7674843846333735e-05 0.0000000000000000e+00  -1.1100477576782319e-05 2.4622822471353043e-05 0.0000000000000000e+00  -1.2510596466518071e-05 3.2397965987629861e-05 0.0000000000000000e+00  -1.3851537561199610e-05 4.1237150076864725e-05 0.0000000000000000e+00  -1.5333867864930047e-05 5.0857884268982342e-05 0.0000000000000000e+00  -1.6468986808995286e-05 6.1263215554102019e-05 0.0000000000000000e+00  -1.7782117243199646e-05 7.2423061686225715e-05 0.0000000000000000e+00  -1.8777699207663116e-05 8.4238766596451088e-05 0.0000000000000000e+00  -1.9885149806727678e-05 9.6673652339384117e-05 0.0000000000000000e+00  -2.0768184275351300e-05 1.0958307755480273e-04 0.0000000000000000e+00  -2.1594250397468690e-05 1.2305727304214194e-04 0.0000000000000000e+00  -2.2469024930119571e-05 1.3693497819486654e-04 0.0000000000000000e+00  -2.3138512443181819e-05 1.5119667400658254e-04 0.0000000000000000e+00  -2.3863002389422663e-05 1.6582670319329740e-04 0.0000000000000000e+00  -2.4408828853635277e-05 1.8073753918046106e-04 0.0000000000000000e+00  -2.4979911941065742e-05 1.9591981050404533e-04 0.0000000000000000e+00  -2.5425842489645784e-05 2.1131150238118900e-04 0.0000000000000000e+00  -2.5853386757181427e-05 2.2690475034463297e-04 0.0000000000000000e+00  -2.6190961732160579e-05 2.4261982453714780e-04 0.0000000000000000e+00  -2.6479836664762867e-05 2.5847496494706194e-04 0.0000000000000000e+00  -2.6749365187252038e-05 2.7441461120432479e-04 0.0000000000000000e+00  -2.6949954053235721e-05 2.9042080944286560e-04 0.0000000000000000e+00  -2.7114027424546129e-05 3.0649254987066420e-04 0.0000000000000000e+00  -2.7236615300574809e-05 3.2257531279637801e-04 0.0000000000000000e+00  -2.7326362334122855e-05 3.3869010060437281e-04 0.0000000000000000e+00  -2.7387369806002197e-05 3.5479302559756032e-04 0.0000000000000000e+00  -2.7421470277684955e-05 3.7090142491993694e-04 0.0000000000000000e+00  -2.7436739890801889e-05 3.8698321439164179e-04 0.0000000000000000e+00  -2.7432385229611463e-05 4.0305394976823764e-04 0.0000000000000000e+00  -2.7415690721194699e-05 4.1909225942859908e-04 0.0000000000000000e+00  -2.7386358805167183e-05 4.3511149006604408e-04 0.0000000000000000e+00  -2.7353299496472738e-05 4.5110028781436914e-04 0.0000000000000000e+00  -2.7312761289858287e-05 4.6706744455899416e-04 0.0000000000000000e+00  -2.7272694413502533e-05 4.8300926716200520e-04 0.0000000000000000e+00  -2.7228700652963902e-05 4.9893203593615531e-04 0.0000000000000000e+00  -2.7188536647433581e-05 5.1483733548950226e-04 0.0000000000000000e+00  -2.7147593782954971e-05 5.3072666876758181e-04 0.0000000000000000e+00  -2.7111894128910755e-05 5.4660750057127568e-04 0.0000000000000000e+00  -2.7079055322459094e-05 5.6247973582686153e-04 0.0000000000000000e+00  -2.7047343847405728e-05 5.7834851467905915e-04 0.0000000000000000e+00  -2.7019617213516197e-05 5.9421484913689505e-04 0.0000000000000000e+00  -2.6994521220086869e-05 6.1008125985517931e-04 0.0000000000000000e+00  -1.6343295201337515e-05 6.2593242932632823e-04 0.0000000000000000e+00  4.9028874402351985e-06 6.2589260739668402e-04 0.0000000000000000e+00  1.5500073548885339e-05 6.1000920074934597e-04 0.0000000000000000e+00  1.5477361257362035e-05 5.9414389789826051e-04 0.0000000000000000e+00  1.5455551939276889e-05 5.7827731660531898e-04 0.0000000000000000e+00  1.5438205719999917e-05 5.6240815066861205e-04 0.0000000000000000e+00  1.5422946484755269e-05 5.4653462388801655e-04 0.0000000000000000e+00  1.5412568649149718e-05 5.3065108766952478e-04 0.0000000000000000e+00  1.5410150815885855e-05 5.1475717059696919e-04 0.0000000000000000e+00  1.5410666969850744e-05 4.9884554274754681e-04 0.0000000000000000e+00  1.5423386779723793e-05 4.8291768149014375e-04 0.0000000000000000e+00  1.5436820149360568e-05 4.6696369668712561e-04 0.0000000000000000e+00  1.5463882388809051e-05 4.5098858485541994e-04 0.0000000000000000e+00  1.5491666903335630e-05 4.3498122820308173e-04 0.0000000000000000e+00  1.5534069325974615e-05 4.1895086465055327e-04 0.0000000000000000e+00  1.5576136758966949e-05 4.0288727602633107e-04 0.0000000000000000e+00  1.5629286908372337e-05 3.8680260356663694e-04 0.0000000000000000e+00  1.5681779792319158e-05 3.7068999977327334e-04 0.0000000000000000e+00  1.5738528363345681e-05 3.5456529673740488e-04 0.0000000000000000e+00  1.5796478896631168e-05 3.3842566596215868e-04 0.0000000000000000e+00  1.5848906963594686e-05 3.2229270637283046e-04 0.0000000000000000e+00  1.5904845356010161e-05 3.0616968612536850e-04 0.0000000000000000e+00  1.5938282361760823e-05 2.9008093776569730e-04 0.0000000000000000e+00  1.5980462789935927e-05 2.7403791703446440e-04 0.0000000000000000e+00  1.5981944613015932e-05 2.5806967687238213e-04 0.0000000000000000e+00  1.5989572005299801e-05 2.4218678545186420e-04 0.0000000000000000e+00  1.5979418647678746e-05 2.2644879750583142e-04 0.0000000000000000e+00  1.5906304975168061e-05 2.1083011274261986e-04 0.0000000000000000e+00  1.5830005243949768e-05 1.9542078130458212e-04 0.0000000000000000e+00  1.5689936211216029e-05 1.8021697859372081e-04 0.0000000000000000e+00  1.5535736567556384e-05 1.6529370450749976e-04 0.0000000000000000e+00  1.5303437312163707e-05 1.5065625591694406e-04 0.0000000000000000e+00  1.5053634716136857e-05 1.3637025329494868e-04 0.0000000000000000e+00  1.4660448945645862e-05 1.2251785425238125e-04 0.0000000000000000e+00  1.4318211690696615e-05 1.0903950162983868e-04 0.0000000000000000e+00  1.3919406345342094e-05 9.6142430605437878e-05 0.0000000000000000e+00  1.3333104687747840e-05 8.3676548886261234e-05 0.0000000000000000e+00  1.2753037445725883e-05 7.1895202172489215e-05 0.0000000000000000e+00  1.2026616009751795e-05 6.0738036283515973e-05 0.0000000000000000e+00  1.1291918688769419e-05 5.0314338951733061e-05 0.0000000000000000e+00  1.0305679410788488e-05 4.0752986747115331e-05 0.0000000000000000e+00  9.4406057661166058e-06 3.1911749842072155e-05 0.0000000000000000e+00  8.5017312024313233e-06 2.4148894534326136e-05 0.0000000000000000e+00  7.2397855194973365e-06 1.7177882433487923e-05 0.0000000000000000e+00  6.0570962850695354e-06 1.1375245331266976e-05 0.0000000000000000e+00  4.5698085842561111e-06 6.7167006206055741e-06 0.0000000000000000e+00  3.2139640094278163e-06 3.3154586184533721e-06 0.0000000000000000e+00  1.5273798755238333e-06 1.2011345667983756e-06 0.0000000000000000e+00  -2.7717194529079811e-07 1.5455938513952903e-06 0.0000000000000000e+00  -6.0272221280370283e-06 6.0207719169353031e-04 0.0000000000000000e+00  -6.2395311341573201e-06 5.7175629575501768e-04 0.0000000000000000e+00  -6.1159807214412968e-06 5.2218627086375070e-04 0.0000000000000000e+00  -7.1658003864000916e-07 8.3507447534662861e-06 0.0000000000000000e+00  -5.9124239292047967e-06 4.9094112582691600e-04 0.0000000000000000e+00  -1.0496386153072014e-06 1.9502809434336497e-05 0.0000000000000000e+00  -5.9347728139706446e-06 4.5904793651631667e-04 0.0000000000000000e+00  -1.7241609027466714e-06 4.5534030843934647e-05 0.0000000000000000e+00  -2.3679362300300004e-06 6.6041673542768854e-05 0.0000000000000000e+00  -5.9348493812974778e-06 4.2705285701615507e-04 0.0000000000000000e+00  -3.3343138378223331e-06 1.2996827609457271e-04 0.0000000000000000e+00  -5.8317873507225393e-06 3.6274280779285712e-04 0.0000000000000000e+00  -2.6209020180132604e-06 8.8704196613739283e-05 0.0000000000000000e+00  -4.0284394663302811e-06 1.5798888874599216e-04 0.0000000000000000e+00  -5.7112783231925781e-06 3.3048516597024633e-04 0.0000000000000000e+00  -5.9034573842494113e-06 3.9494672336608429e-04 0.0000000000000000e+00  -4.4523591221692351e-06 1.8788066408631686e-04 0.0000000000000000e+00  -5.5343519332652178e-06 2.9825580212852179e-04 0.0000000000000000e+00  -4.5472971036367280e-06 2.1746704477985498e-04 0.0000000000000000e+00  -5.5767214330346433e-06 2.6684203473453761e-04 0.0000000000000000e+00  -5.0566397759469252e-06 2.4104408887367959e-04 0.0000000000000000e+00  -3.2264301748559142e-06 1.0791720024323569e-04 0.0000000000000000e+00  -5.8009843586567167e-06 5.4796494975067347e-04 0.0000000000000000e+00  -1.5044403239959759e-06 3.1027579428587629e-05 0.0000000000000000e+00  1.3279373125125547e-06 5.8679574434708449e-04 0.0000000000000000e+00  1.0946360840404476e-06 4.3138446022214711e-06 0.0000000000000000e+00  2.8718656148337861e-07 4.7499007210784910e-04 0.0000000000000000e+00  3.0270442676122501e-07 5.0684216276240845e-04 0.0000000000000000e+00  -3.6071730980027003e-06 1.3803642022268626e-05 0.0000000000000000e+00  -6.1401020863966351e-06 5.5353835729140090e-05 0.0000000000000000e+00  3.9128312436730361e-07 3.7882561118706505e-04 0.0000000000000000e+00  2.9281152977536530e-07 4.4304444653851289e-04 0.0000000000000000e+00  -9.3279919134337301e-06 1.4361522859326803e-04 0.0000000000000000e+00  4.9139734464699592e-07 3.4658125939414223e-04 0.0000000000000000e+00  -7.1455426704675957e-06 7.7698066358561170e-05 0.0000000000000000e+00  -1.0018931740982448e-05 1.7289896195856483e-04 0.0000000000000000e+00  6.2807856647774525e-07 3.1431922575834341e-04 0.0000000000000000e+00  3.2602530296212367e-07 4.1098943569720174e-04 0.0000000000000000e+00  -1.1922568110341860e-05 2.0314374133916096e-04 0.0000000000000000e+00  7.9936767391204460e-07 2.8214269781680281e-04 0.0000000000000000e+00  -3.9852404665054387e-07 4.0522268740481163e-07 0.0000000000000000e+00  1.6815785519147028e-07 2.7238080834363176e-07 0.0000000000000000e+00  -1.0900577888207736e-05 6.1456333593091030e-04 0.0000000000000000e+00  -2.2494721861234431e-06 4.5006217084020130e-06 0.0000000000000000e+00  2.4220972710305521e-06 2.5374834199573033e-04 0.000000000000000