<?xml version="1.0"?>
<VTKFile type="UnstructuredGrid"  version="0.1"  >
<UnstructuredGrid>
<Piece  NumberOfPoints="1419" NumberOfCells="2698">
<Points>
<DataArray  type="Float64"  NumberOfComponents="3"  format="ascii">0 0 0  0 0.41 0  2.5 0 0  2.5 0.41 0  0.6 0.19 0  0.6 0.21 0  0.25 0.2 0  0.15 0.2 0  0.2489897948556636 0.21 0  0.2489897948556636 0.19 0  0.6 0.2 0  0 0.3807142857143437 0  0 0.3514285714286952 0  0 0.3221428571430699 0  0 0.29285714285744 0  0 0.2635714285718054 0  0 0.2342857142861561 0  0 0.2050000000005308 0  0 0.175714285714732 0  0 0.1464285714289574 0  0 0.1171428571431897 0  0 0.08785714285737878 0  0 0.05857142857161107 0  0 0.02928571428580012 0  0.03015443760436003 0 0  0.06140001986583606 0 0  0.09377624077125973 0 0  0.1273239957535082 0 0  0.1620856860351972 0 0  0.1981052433264291 0 0  0.235428184091502 0 0  0.2741016576309132 0 0  0.3141745521465447 0 0  0.3556974926295285 0 0  0.3987229542472677 0 0  0.4433053055141081 0 0  0.4895008759286886 0 0  0.5373680609405097 0 0  0.5869673343216626 0 0  0.6383613676634521 0 0  0.6916151138468254 0 0  0.7467958595648856 0 0  0.8039733463919316 0 0  0.8632198139502143 0 0  0.9246101326867038 0 0  0.9882218810934433 0 0  1.054135445558498 0 0  1.122434100542598 0 0  1.193204177141305 0 0  1.266535089879536 0 0  1.342519516046404 0 0  1.421253448503939 0 0  1.502836389106271 0 0  1.587371439758838 0 0  1.674965418777374 0 0  1.765729001825544 0 0  1.859776908880082 0 0  1.957227977487062 0 0  2.058205329869943 0 0  2.162836591189951 0 0  2.271253957290865 0 0  2.383594446803425 0 0  2.5 0.1024999999997612 0  2.5 0.2049999999994743 0  2.5 0.3074999999997183 0  2.383594446803656 0.41 0  2.271253957291315 0.41 0  2.162836591190598 0.41 0  2.058205329870775 0.41 0  1.957227977488067 0.41 0  1.859776908881246 0.41 0  1.765729001826854 0.41 0  1.674965418778818 0.41 0  1.58737143976041 0.41 0  1.502836389107956 0.41 0  1.421253448505726 0.41 0  1.342519516048286 0.41 0  1.266535089881505 0.41 0  1.193204177143353 0.41 0  1.122434100544716 0.41 0  1.05413544556068 0.41 0  0.9882218810956305 0.41 0  0.9246101326886647 0.41 0  0.8632198139519631 0.41 0  0.8039733463934788 0.41 0  0.7467958595662458 0.41 0  0.6916151138480078 0.41 0  0.6383613676644679 0.41 0  0.5869673343225223 0.41 0  0.5373680609412221 0.41 0  0.4895008759292634 0.41 0  0.4433053055145528 0.41 0  0.3987229542475914 0.41 0  0.3556974926297398 0.41 0  0.3141745521466497 0.41 0  0.2741016576310038 0.41 0  0.2354281840915826 0.41 0  0.1981052433265003 0.41 0  0.1620856860352591 0.41 0  0.1273239957535623 0.41 0  0.09377624077128965 0.41 0  0.06140001986584975 0.41 0  0.03015443760436654 0.41 0  0.2497468076502589 0.2050254481002335 0  0.2497468076502614 0.1949745518997913 0  0.2469965252529372 0.1829317073451959 0  0.2439893735792749 0.1762316384219906 0  0.2400332147834255 0.1700443375285386 0  0.2352133972704371 0.1645032867342007 0  0.2296339016332438 0.1597280261969788 0  0.2234150974217223 0.1558215752574715 0  0.2166911463437691 0.1528682099456123 0  0.2096071079204251 0.1509316448471593 0  0.2023158100364996 0.1500536585536553 0  0.194974551899914 0.1502531923497262 0  0.1877417105387872 0.1515259415822739 0  0.1807733240461124 0.153844448527136 0  0.1742197252835808 0.15715869474974 0  0.1682222986673531 0.1613971801805478 0  0.162910430003803 0.1664684656256651 0  0.1583987151779087 0.1722631454351573 0  0.1547844879126891 0.178656207771761 0  0.1521457199348551 0.1855097315605723 0  0.1505393388476355 0.1926758619366523 0  0.1505393388476328 0.2073241380633295 0  0.1521457199348437 0.2144902684393899 0  0.1547844879126531 0.221343792228163 0  0.1583987151778488 0.2277368545647528 0  0.1629104300036858 0.2335315343742052 0  0.1682222986671726 0.2386028198193036 0  0.1742197252833576 0.2428413052501257 0  0.1807733240458683 0.2461555514727623 0  0.1877417105384929 0.2484740584176516 0  0.1949745518995776 0.2497468076502398 0  0.202315810036185 0.2499463414463592 0  0.2096071079201568 0.2490683551528932 0  0.2166911463435495 0.2471317900544655 0  0.2234150974215506 0.2441784247426195 0  0.2296339016331197 0.2402719738031125 0  0.2352133972703547 0.2354967132658811 0  0.2400332147833751 0.2299556624715287 0  0.2439893735792577 0.2237683615780412 0  0.246996525252926 0.2170682926548348 0  0.25645809709277 0.21 0  0.2639263993298655 0.21 0  0.271394701566961 0.21 0  0.2788630038040554 0.21 0  0.2863313060411479 0.21 0  0.2937996082782405 0.21 0  0.301267910515333 0.21 0  0.3087362127524279 0.21 0  0.3162045149895234 0.21 0  0.3236728172265972 0.21 0  0.3311411194636928 0.21 0  0.3386094217007701 0.21 0  0.3460777239378666 0.21 0  0.3535460261749672 0.21 0  0.3610143284120516 0.21 0  0.3684826306491596 0.21 0  0.3759509328862226 0.21 0  0.383419235123329 0.21 0  0.3908875373604028 0.21 0  0.3983558395975142 0.21 0  0.4058241418345938 0.21 0  0.4132924440716992 0.21 0  0.4207607463087888 0.21 0  0.4282290485459029 0.21 0  0.4356973507830418 0.21 0  0.4431656530201649 0.21 0  0.4506339552573136 0.21 0  0.4581022574944306 0.21 0  0.4655705597315852 0.21 0  0.4730388619686996 0.21 0  0.480507164205851 0.21 0  0.4879754664429498 0.21 0  0.4954437686800938 0.21 0  0.502912070917267 0.21 0  0.5103803731544119 0.21 0  0.5178486753915261 0.21 0  0.5253169776286404 0.21 0  0.5327852798657868 0.21 0  0.5402535821029386 0.21 0  0.54772188434007 0.21 0  0.5551901865771842 0.21 0  0.5626584888143201 0.21 0  0.5701267910514778 0.21 0  0.5775950932886138 0.21 0  0.5850633955257281 0.21 0  0.5925316977628483 0.21 0  0.6 0.2050000000000054 0  0.6 0.1950000000000217 0  0.5925316977628897 0.19 0  0.5850633955257988 0.19 0  0.5775950932887378 0.19 0  0.5701267910515998 0.19 0  0.5626584888145268 0.19 0  0.5551901865773963 0.19 0  0.547721884340339 0.19 0  0.5402535821032429 0.19 0  0.5327852798661811 0.19 0  0.5253169776290537 0.19 0  0.5178486753919799 0.19 0  0.5103803731549078 0.19 0  0.502912070917822 0.19 0  0.4954437686807294 0.19 0  0.4879754664436223 0.19 0  0.4805071642065402 0.19 0  0.4730388619694271 0.19 0  0.4655705597323621 0.19 0  0.4581022574952563 0.19 0  0.4506339552581777 0.19 0  0.4431656530210671 0.19 0  0.4356973507839815 0.19 0  0.4282290485468779 0.19 0  0.4207607463097617 0.19 0  0.4132924440726327 0.19 0  0.4058241418354857 0.19 0  0.3983558395983636 0.19 0  0.3908875373612097 0.19 0  0.3834192351240934 0.19 0  0.3759509328869369 0.19 0  0.3684826306498175 0.19 0  0.361014328412667 0.19 0  0.3535460261755617 0.19 0  0.3460777239384295 0.19 0  0.3386094217012945 0.19 0  0.3311411194641595 0.19 0  0.3236728172270245 0.19 0  0.3162045149898895 0.19 0  0.3087362127527544 0.19 0  0.3012679105156187 0.19 0  0.2937996082784807 0.19 0  0.2863313060413428 0.19 0  0.2788630038042048 0.19 0  0.2713947015670686 0.19 0  0.2639263993299336 0.19 0  0.2564580970927985 0.19 0  0.2607803159922026 0.2000727136295815 0  0.5887803774232762 0.2001272386983733 0  0.5745072403740523 0.2002044435018727 0  0.5511891430099709 0.2001122610077113 0  0.2751288526855082 0.20000000000002 0  0.5365194309847112 0.1999999999999436 0  0.2894621222999649 0.1998691686390484 0  0.5215828265105155 0.1999999999999228 0  0.3127789816668748 0.1998657885438805 0  0.3274069683451451 0.2000000000000796 0  0.5066462220363641 0.199999999999908 0  0.3650630746574081 0.199866017807523 0  0.476773013087985 0.1999999999998713 0  0.3417402379596385 0.1998691686391011 0  0.3796850840047755 0.200000000000134 0  0.4618364086138087 0.1999999999998546 0  0.4917096175621762 0.1999999999998808 0  0.3946216884789568 0.2000000000001512 0  0.446899804139621 0.1999999999998389 0  0.4089549580935208 0.1998691686391595 0  0.4322718174608562 0.200127451265745 0  0.4201487168029707 0.1999966199048527 0  0.3528922713220932 0.2000185703532356 0  0.5633122436674589 0.1999814296467508 0  0.3006558810093873 0.1999966199048318 0  0.5815926498168407 0.1966545283159175 0  0.2677053789419034 0.1964246479135325 0  0.5290511287476175 0.1970915826863981 0  0.5439877332217911 0.197091582686394 0  0.2825131256993216 0.2035478995978015 0  0.3199386661080599 0.202908417313604 0  0.4842413153250809 0.1970915826863873 0  0.5141145242734466 0.1970915826863843 0  0.3722167817676917 0.2029084173136195 0  0.4693047108508938 0.1970915826863783 0  0.3348752705822316 0.202908417313609 0  0.3871533862418661 0.2029084173136212 0  0.4543681063767183 0.1970915826863795 0  0.4991779197992749 0.1970915826863902 0  0.4020059614928624 0.203547899597858 0  0.4394315019025246 0.1970915826863714 0  0.2550657455369551 0.2034088125358657 0  0.2548908499171161 0.1966940311614271 0  0.5946539510196798 0.2024302972968126 0  0.267698176732111 0.2039977513680092 0  0.4261685417851465 0.196409292431739 0  0.3590076176283495 0.196411355804271 0  0.5571672426447437 0.2036011176410121 0  0.3066757059912147 0.1964092924317024 0  0.594380730180568 0.1966558399668133 0  0.4842413153245942 0.2040749161535287 0  0.4693047108503577 0.2040749161535231 0  0.3871533862424271 0.1959250838464788 0  0.372246743208829 0.1959123236376545 0  0.5141145242731028 0.2040749161535395 0  0.4543681063761134 0.2040749161535186 0  0.4019979587101454 0.1959834479682427 0  0.4394608940728603 0.2040870543693135 0  0.5439623148931173 0.2040856076781014 0  0.5290511287473298 0.2040749161535501 0  0.4991779197988497 0.2040749161535382 0  0.3347912413592433 0.1959225448935183 0  0.3199680582793816 0.1959123018030061 0  0.2825051229162361 0.1959834479681729 0  0.3590471196690275 0.2036304442587945 0  0.5571594006495384 0.1963685282145804 0  0.3067669986803285 0.203627750582736 0  0.4262598344738712 0.2036568242185335 0  0.5814408164431408 0.2041285596160068 0  0.5688286748170428 0.1961819304477386 0  0.4145905603063645 0.2038180695522843 0  0.3473758401724931 0.2038180695522752 0  0.2950977245128307 0.2038180695522663 0  0.5688286748170693 0.203818069552238 0  0.2950977245127906 0.1961819304477774 0  0.3473758401723931 0.1961819304478349 0  0.4145905603061963 0.1961819304479011 0  0.2601812407614425 0.2056861609747042
[...]
<PointData  Vectors="f_46-0"> 
<DataArray  type="Float64"  Name="f_46-0"  NumberOfComponents="3" format="ascii">0.0000000000000000e+00 0.0000000000000000e+00 0.0000000000000000e+00  0.0000000000000000e+00 0.0000000000000000e+00 0.0000000000000000e+00  0.0000000000000000e+00 0.0000000000000000e+00 0.0000000000000000e+00  0.0000000000000000e+00 0.0000000000000000e+00 0.0000000000000000e+00  -1.0817371200835743e-04 -4.0549692998190744e-04 0.0000000000000000e+00  -7.5336989741867278e-05 -4.0356332336470227e-04 0.0000000000000000e+00  0.0000000000000000e+00 0.0000000000000000e+00 0.0000000000000000e+00  0.0000000000000000e+00 0.0000000000000000e+00 0.0000000000000000e+00  0.0000000000000000e+00 0.0000000000000000e+00 0.0000000000000000e+00  0.0000000000000000e+00 0.0000000000000000e+00 0.0000000000000000e+00  -9.1349865307252361e-05 -4.0452944625236372e-04 0.0000000000000000e+00  7.9591836734548407e-02 0.0000000000000000e+00 0.0000000000000000e+00  1.4693877550994527e-01 0.0000000000000000e+00 0.0000000000000000e+00  2.0204081632617482e-01 0.0000000000000000e+00 0.0000000000000000e+00  2.4489795918330076e-01 0.0000000000000000e+00 0.0000000000000000e+00  2.7551020408131754e-01 0.0000000000000000e+00 0.0000000000000000e+00  2.9387755102022350e-01 0.0000000000000000e+00 0.0000000000000000e+00  3.0000000000000004e-01 0.0000000000000000e+00 0.0000000000000000e+00  2.9387755102059482e-01 0.0000000000000000e+00 0.0000000000000000e+00  2.7551020408195548e-01 0.0000000000000000e+00 0.0000000000000000e+00  2.4489795918409071e-01 0.0000000000000000e+00 0.0000000000000000e+00  2.0204081632692528e-01 0.0000000000000000e+00 0.0000000000000000e+00  1.4693877551058568e-01 0.0000000000000000e+00 0.0000000000000000e+00  7.9591836734909230e-02 0.0000000000000000e+00 0.0000000000000000e+00  0.0000000000000000e+00 0.0000000000000000e+00 0.0000000000000000e+00  0.0000000000000000e+00 0.0000000000000000e+00 0.0000000000000000e+00  0.0000000000000000e+00 0.0000000000000000e+00 0.0000000000000000e+00  0.0000000000000000e+00 0.0000000000000000e+00 0.0000000000000000e+00  0.0000000000000000e+00 0.0000000000000000e+00 0.0000000000000000e+00  0.0000000000000000e+00 0.0000000000000000e+00 0.0000000000000000e+00  0.0000000000000000e+00 0.0000000000000000e+00 0.0000000000000000e+00  0.0000000000000000e+00 0.0000000000000000e+00 0.0000000000000000e+00  0.0000000000000000e+00 0.0000000000000000e+00 0.0000000000000000e+00  0.0000000000000000e+00 0.0000000000000000e+00 0.0000000000000000e+00  0.0000000000000000e+00 0.0000000000000000e+00 0.0000000000000000e+00  0.0000000000000000e+00 0.0000000000000000e+00 0.0000000000000000e+00  0.0000000000000000e+00 0.0000000000000000e+00 0.0000000000000000e+00  0.0000000000000000e+00 0.0000000000000000e+00 0.0000000000000000e+00  0.0000000000000000e+00 0.0000000000000000e+00 0.0000000000000000e+00  0.0000000000000000e+00 0.0000000000000000e+00 0.0000000000000000e+00  0.0000000000000000e+00 0.0000000000000000e+00 0.0000000000000000e+00  0.0000000000000000e+00 0.0000000000000000e+00 0.0000000000000000e+00  0.0000000000000000e+00 0.0000000000000000e+00 0.0000000000000000e+00  0.0000000000000000e+00 0.0000000000000000e+00 0.0000000000000000e+00  0.0000000000000000e+00 0.0000000000000000e+00 0.0000000000000000e+00  0.0000000000000000e+00 0.0000000000000000e+00 0.0000000000000000e+00  0.0000000000000000e+00 0.0000000000000000e+00 0.0000000000000000e+00  0.0000000000000000e+00 0.0000000000000000e+00 0.0000000000000000e+00  0.0000000000000000e+00 0.0000000000000000e+00 0.0000000000000000e+00  0.0000000000000000e+00 0.0000000000000000e+00 0.0000000000000000e+00  0.0000000000000000e+00 0.0000000000000000e+00 0.0000000000000000e+00  0.0000000000000000e+00 0.0000000000000000e+00 0.0000000000000000e+00  0.0000000000000000e+00 0.0000000000000000e+00 0.0000000000000000e+00  0.0000000000000000e+00 0.0000000000000000e+00 0.0000000000000000e+00  0.0000000000000000e+00 0.0000000000000000e+00 0.0000000000000000e+00  0.0000000000000000e+00 0.0000000000000000e+00 0.0000000000000000e+00  0.0000000000000000e+00 0.0000000000000000e+00 0.0000000000000000e+00  0.0000000000000000e+00 0.0000000000000000e+00 0.0000000000000000e+00  0.0000000000000000e+00 0.0000000000000000e+00 0.0000000000000000e+00  0.0000000000000000e+00 0.0000000000000000e+00 0.0000000000000000e+00  0.0000000000000000e+00 0.0000000000000000e+00 0.0000000000000000e+00  0.0000000000000000e+00 0.0000000000000000e+00 0.0000000000000000e+00  2.7299644676290780e-01 1.0759750547846721e-02 0.0000000000000000e+00  2.4249769114117292e-01 3.6435070667450841e-03 0.0000000000000000e+00  2.8044054592615342e-01 -2.1892372280468409e-02 0.0000000000000000e+00  0.0000000000000000e+00 0.0000000000000000e+00 0.0000000000000000e+00  0.0000000000000000e+00 0.0000000000000000e+00 0.0000000000000000e+00  0.0000000000000000e+00 0.0000000000000000e+00 0.0000000000000000e+00  0.0000000000000000e+00 0.0000000000000000e+00 0.0000000000000000e+00  0.0000000000000000e+00 0.0000000000000000e+00 0.0000000000000000e+00  0.0000000000000000e+00 0.0000000000000000e+00 0.0000000000000000e+00  0.0000000000000000e+00 0.0000000000000000e+00 0.0000000000000000e+00  0.0000000000000000e+00 0.0000000000000000e+00 0.0000000000000000e+00  0.0000000000000000e+00 0.0000000000000000e+00 0.0000000000000000e+00  0.0000000000000000e+00 0.0000000000000000e+00 0.0000000000000000e+00  0.0000000000000000e+00 0.0000000000000000e+00 0.0000000000000000e+00  0.0000000000000000e+00 0.0000000000000000e+00 0.0000000000000000e+00  0.0000000000000000e+00 0.0000000000000000e+00 0.0000000000000000e+00  0.0000000000000000e+00 0.0000000000000000e+00 0.0000000000000000e+00  0.0000000000000000e+00 0.0000000000000000e+00 0.0000000000000000e+00  0.0000000000000000e+00 0.0000000000000000e+00 0.0000000000000000e+00  0.0000000000000000e+00 0.0000000000000000e+00 0.0000000000000000e+00  0.0000000000000000e+00 0.0000000000000000e+00 0.0000000000000000e+00  0.0000000000000000e+00 0.0000000000000000e+00 0.0000000000000000e+00  0.0000000000000000e+00 0.0000000000000000e+00 0.0000000000000000e+00  0.0000000000000000e+00 0.0000000000000000e+00 0.0000000000000000e+00  0.0000000000000000e+00 0.0000000000000000e+00 0.0000000000000000e+00  0.0000000000000000e+00 0.0000000000000000e+00 0.0000000000000000e+00  0.0000000000000000e+00 0.0000000000000000e+00 0.0000000000000000e+00  0.0000000000000000e+00 0.0000000000000000e+00 0.0000000000000000e+00  0.0000000000000000e+00 0.0000000000000000e+00 0.0000000000000000e+00  0.0000000000000000e+00 0.0000000000000000e+00 0.0000000000000000e+00  0.0000000000000000e+00 0.0000000000000000e+00 0.0000000000000000e+00  0.0000000000000000e+00 0.0000000000000000e+00 0.0000000000000000e+00  0.0000000000000000e+00 0.0000000000000000e+00 0.0000000000000000e+00  0.0000000000000000e+00 0.0000000000000000e+00 0.0000000000000000e+00  0.0000000000000000e+00 0.0000000000000000e+00 0.0000000000000000e+00  0.0000000000000000e+00 0.0000000000000000e+00 0.0000000000000000e+00  0.0000000000000000e+00 0.0000000000000000e+00 0.0000000000000000e+00  0.0000000000000000e+00 0.0000000000000000e+00 0.0000000000000000e+00  0.0000000000000000e+00 0.0000000000000000e+00 0.0000000000000000e+00  0.0000000000000000e+00 0.0000000000000000e+00 0.0000000000000000e+00  0.0000000000000000e+00 0.0000000000000000e+00 0.0000000000000000e+00  0.0000000000000000e+00 0.0000000000000000e+00 0.0000000000000000e+00  0.0000000000000000e+00 0.0000000000000000e+00 0.0000000000000000e+00  2.7832621727250501e-16 0.0000000000000000e+00 0.0000000000000000e+00  0.0000000000000000e+00 0.0000000000000000e+00 0.0000000000000000e+00  0.0000000000000000e+00 0.0000000000000000e+00 0.0000000000000000e+00  0.0000000000000000e+00 0.0000000000000000e+00 0.0000000000000000e+00  0.0000000000000000e+00 0.0000000000000000e+00 0.0000000000000000e+00  0.0000000000000000e+00 0.0000000000000000e+00 0.0000000000000000e+00  0.0000000000000000e+00 0.0000000000000000e+00 0.0000000000000000e+00  0.0000000000000000e+00 0.0000000000000000e+00 0.0000000000000000e+00  0.0000000000000000e+00 0.0000000000000000e+00 0.0000000000000000e+00  0.0000000000000000e+00 0.0000000000000000e+00 0.0000000000000000e+00  0.0000000000000000e+00 0.0000000000000000e+00 0.0000000000000000e+00  0.0000000000000000e+00 0.0000000000000000e+00 0.0000000000000000e+00  0.0000000000000000e+00 0.0000000000000000e+00 0.0000000000000000e+00  0.0000000000000000e+00 0.0000000000000000e+00 0.0000000000000000e+00  0.0000000000000000e+00 0.0000000000000000e+00 0.0000000000000000e+00  0.0000000000000000e+00 0.0000000000000000e+00 0.0000000000000000e+00  0.0000000000000000e+00 0.0000000000000000e+00 0.0000000000000000e+00  0.0000000000000000e+00 0.0000000000000000e+00 0.0000000000000000e+00  0.0000000000000000e+00 0.0000000000000000e+00 0.0000000000000000e+00  0.0000000000000000e+00 0.0000000000000000e+00 0.0000000000000000e+00  0.0000000000000000e+00 0.0000000000000000e+00 0.0000000000000000e+00  0.0000000000000000e+00 0.0000000000000000e+00 0.0000000000000000e+00  0.0000000000000000e+00 0.0000000000000000e+00 0.0000000000000000e+00  0.0000000000000000e+00 0.0000000000000000e+00 0.0000000000000000e+00  0.0000000000000000e+00 0.0000000000000000e+00 0.0000000000000000e+00  0.0000000000000000e+00 0.0000000000000000e+00 0.0000000000000000e+00  0.0000000000000000e+00 0.0000000000000000e+00 0.0000000000000000e+00  0.0000000000000000e+00 0.0000000000000000e+00 0.0000000000000000e+00  0.0000000000000000e+00 0.0000000000000000e+00 0.0000000000000000e+00  0.0000000000000000e+00 0.0000000000000000e+00 0.0000000000000000e+00  0.0000000000000000e+00 0.0000000000000000e+00 0.0000000000000000e+00  0.0000000000000000e+00 0.0000000000000000e+00 0.0000000000000000e+00  0.0000000000000000e+00 0.0000000000000000e+00 0.0000000000000000e+00  0.0000000000000000e+00 0.0000000000000000e+00 0.0000000000000000e+00  0.0000000000000000e+00 0.0000000000000000e+00 0.0000000000000000e+00  0.0000000000000000e+00 0.0000000000000000e+00 0.0000000000000000e+00  0.0000000000000000e+00 0.0000000000000000e+00 0.0000000000000000e+00  0.0000000000000000e+00 0.0000000000000000e+00 0.0000000000000000e+00  -2.5134828871993492e-06 3.8470903196478185e-06 0.0000000000000000e+00  -5.1578466319274395e-06 3.7009693293130657e-06 0.0000000000000000e+00  -8.0808568800356028e-06 2.8345454572100690e-06 0.0000000000000000e+00  -1.0974945409365042e-05 1.3622222816706397e-06 0.0000000000000000e+00  -1.3931036691816346e-05 -6.2890973478331106e-07 0.0000000000000000e+00  -1.6665480606702761e-05 -3.1220252968576922e-06 0.0000000000000000e+00  -1.9463026882493007e-05 -6.0762696822096183e-06 0.0000000000000000e+00  -2.2147350522912782e-05 -9.6459281974131123e-06 0.0000000000000000e+00  -2.4621642478571555e-05 -1.3691080185739701e-05 0.0000000000000000e+00  -2.7162770760220193e-05 -1.8301291607868359e-05 0.0000000000000000e+00  -2.9435556962039509e-05 -2.3391874863331712e-05 0.0000000000000000e+00  -3.1808111671078937e-05 -2.9052178808892940e-05 0.0000000000000000e+00  -3.3935259953428927e-05 -3.5185633531693736e-05 0.0000000000000000e+00  -3.6148276640712921e-05 -4.1736282349273358e-05 0.0000000000000000e+00  -3.8271345330082448e-05 -4.8828823528654593e-05 0.0000000000000000e+00  -4.0237576083618222e-05 -5.6303628992293518e-05 0.0000000000000000e+00  -4.2280005599917247e-05 -6.4241516877367361e-05 0.0000000000000000e+00  -4.4127911832287681e-05 -7.2546161436192329e-05 0.0000000000000000e+00  -4.6069094420971166e-05 -8.1278522507589743e-05 0.0000000000000000e+00  -4.7846931225808043e-05 -9.0321099968601137e-05 0.0000000000000000e+00  -4.9670903326649732e-05 -9.9757006808447822e-05 0.0000000000000000e+00  -5.1362326710184704e-05 -1.0950295581068584e-04 0.0000000000000000e+00  -5.3104882062943463e-05 -1.1949431489331928e-04 0.0000000000000000e+00  -5.4781508888460210e-05 -1.2981740804986720e-04 0.0000000000000000e+00  -5.6365525105087626e-05 -1.4033504811487334e-04 0.0000000000000000e+00  -5.7936754943547200e-05 -1.5114377819176346e-04 0.0000000000000000e+00  -5.9431467342556853e-05 -1.6212267911707798e-04 0.0000000000000000e+00  -6.0894411637074358e-05 -1.7333513843444882e-04 0.0000000000000000e+00  -6.2281645582510948e-05 -1.8469379934038459e-04 0.0000000000000000e+00  -6.3628687810939532e-05 -1.9624316475065238e-04 0.0000000000000000e+00  -6.4900791878342974e-05 -2.0791049356106849e-04 0.0000000000000000e+00  -6.6120103490128343e-05 -2.1973832806878040e-04 0.0000000000000000e+00  -6.7269676330608565e-05 -2.3164795662953215e-04 0.0000000000000000e+00  -6.8355208966509615e-05 -2.4370029528495910e-04 0.0000000000000000e+00  -6.9357025337738032e-05 -2.5579050515281713e-04 0.0000000000000000e+00  -7.0297344011497316e-05 -2.6798754460580790e-04 0.0000000000000000e+00  -7.1158774060042082e-05 -2.8020414494748922e-04 0.0000000000000000e+00  -7.1948628038602647e-05 -2.9250761637073511e-04 0.0000000000000000e+00  -7.2651455900208379e-05 -3.0481127754278345e-04 0.0000000000000000e+00  -7.3270513472538924e-05 -3.1717838057724836e-04 0.0000000000000000e+00  -7.3793095819192102e-05 -3.2954172794896449e-04 0.0000000000000000e+00  -7.4248646630169370e-05 -3.4192938304611386e-04 0.0000000000000000e+00  -7.4593324668795940e-05 -3.5431670804074336e-04 0.0000000000000000e+00  -7.4876463395770520e-05 -3.6670751195661970e-04 0.0000000000000000e+00  -7.5053756051592102e-05 -3.7912435267549471e-04 0.0000000000000000e+00  -7.5179751007987020e-05 -3.9148247360953003e-04 0.0000000000000000e+00  -8.3195655799234204e-05 -4.0404670454151158e-04 0.0000000000000000e+00  -9.9632128889806147e-05 -4.0500827810938670e-04 0.0000000000000000e+00  -1.0803611426794930e-04 -3.9303917659146354e-04 0.0000000000000000e+00  -1.0793304651064538e-04 -3.8085343615550701e-04 0.0000000000000000e+00  -1.0776669351559967e-04 -3.6870038456019479e-04 0.0000000000000000e+00  -1.0748633647887560e-04 -3.5651464259623083e-04 0.0000000000000000e+00  -1.0713415768363948e-04 -3.4432682236214582e-04 0.0000000000000000e+00  -1.0665407886955367e-04 -3.3214271120541569e-04 0.0000000000000000e+00  -1.0608336850406765e-04 -3.1995601546535549e-04 0.0000000000000000e+00  -1.0540260924901516e-04 -3.0780962860595958e-04 0.0000000000000000e+00  -1.0460680490460356e-04 -2.9564762666757505e-04 0.0000000000000000e+00  -1.0371736179481715e-04 -2.8356852899638949e-04 0.0000000000000000e+00  -1.0270338019419558e-04 -2.7148846447209123e-04 0.0000000000000000e+00  -1.0160211931862446e-04 -2.5950903324123740e-04 0.0000000000000000e+00  -1.0036783508037088e-04 -2.4754869885627498e-04 0.0000000000000000e+00  -9.9057577745115635e-05 -2.3571415112126344e-04 0.0000000000000000e+00  -9.7606173531071376e-05 -2.2393020882205110e-04 0.0000000000000000e+00  -9.6088257406211179e-05 -2.1230468036127027e-04 0.0000000000000000e+00  -9.4418608818062373e-05 -2.0076283922237592e-04 0.0000000000000000e+00  -9.2694493133464772e-05 -1.8940847567777016e-04 0.0000000000000000e+00  -9.0809326366981852e-05 -1.7816631529300324e-04 0.0000000000000000e+00  -8.8885640097887157e-05 -1.6714209769032597e-04 0.0000000000000000e+00  -8.6788749356476471e-05 -1.5627034178140775e-04 0.0000000000000000e+00  -8.4664619733788919e-05 -1.4565519570582678e-04 0.0000000000000000e+00  -8.2352168733680755e-05 -1.3525137582382185e-04 0.0000000000000000e+00  -8.0019391335216803e-05 -1.2508703838300756e-04 0.0000000000000000e+00  -7.7576366725722357e-05 -1.1523870350782384e-04 0.0000000000000000e+00  -7.4986112346066088e-05 -1.0561680270028725e-04 0.0000000000000000e+00  -7.2334523615076037e-05 -9.6377292818900138e-05 0.0000000000000000e+00  -6.9540912949532584e-05 -8.7418032623217464e-05 0.0000000000000000e+00  -6.6683092774135608e-05 -7.8889788271559541e-05 0.0000000000000000e+00  -6.3681786358821458e-05 -7.0690021645782432e-05 0.0000000000000000e+00  -6.0612793892415493e-05 -6.2945470129931554e-05 0.0000000000000000e+00  -5.7342713207498032e-05 -5.5639799486701878e-05 0.0000000000000000e+00  -5.4094442141653924e-05 -4.8733717374105441e-05 0.0000000000000000e+00  -5.0732532099967977e-05 -4.2363960655790106e-05 0.0000000000000000e+00  -4.7179912067986061e-05 -3.6384020519328765e-05 0.0000000000000000e+00  -4.3572754201102947e-05 -3.0984674877666758e-05 0.0000000000000000e+00  -3.9807087058740507e-05 -2.6033539748377767e-05 0.0000000000000000e+00  -3.5988092966308495e-05 -2.1646419288461941e-05 0.0000000000000000e+00  -3.1962162685417970e-05 -1.7809195694699291e-05 0.0000000000000000e+00  -2.7989373375387360e-05 -1.4421996288459406e-05 0.0000000000000000e+00  -2.3935350168179850e-05 -1.1636575222297756e-05 0.0000000000000000e+00  -1.9712072764979372e-05 -9.2571255910276574e-06 0.0000000000000000e+00  -1.5522736988778617e-05 -7.4619566938867912e-06 0.0000000000000000e+00  -1.1275348043703278e-05 -6.1406353686781707e-06 0.0000000000000000e+00  -7.2245856364986841e-06 -5.1521790104630054e-06 0.0000000000000000e+00  -3.3973021117698545e-06 -4.3468023525432248e-06 0.0000000000000000e+00  -3.9725935326030101e-06 -1.6139683064731787e-07 0.0000000000000000e+00  -9.1196776490994332e-05 -3.8609361284236860e-04 0.0000000000000000e+00  -9.0847335555962634e-05 -3.6260467181789194e-04 0.0000000000000000e+00  -8.9726106158849033e-05 -3.2423731982377679e-04 0.0000000000000000e+00  -1.1386484591780402e-05 -1.9804851665438334e-06 0.0000000000000000e+00  -8.8617526187811376e-05 -3.0016929955892403e-04 0.0000000000000000e+00  -1.8256928746032953e-05 -5.6164214286263423e-06 0.0000000000000000e+00  -8.6936223393564331e-05 -2.7577093730614275e-04 0.0000000000000000e+00  -2.8817974806862569e-05 -1.5503750998948115e-05 0.0000000000000000e+00  -3.4903950410952217e-05 -2.4285476937816218e-05 0.0000000000000000e+00  -8.4887076640545136e-05 -2.5157442689897468e-04 0.0000000000000000e+00  -4.9317614174351021e-05 -5.5941664516826038e-05 0.0000000000000000e+00  -7.9725212869599863e-05 -2.0419853210144781e-04 0.0000000000000000e+00  -4.0718621203498071e-05 -3.4914849781400309e-05 0.0000000000000000e+00  -5.4135849674981967e-05 -7.1286266211292534e-05 0.0000000000000000e+00  -7.6636347404809580e-05 -1.8126721802164762e-04 0.0000000000000000e+00  -8.2479890984414551e-05 -2.2767633394315271e-04 0.0000000000000000e+00  -5.8899229480594432e-05 -8.8574617300665089e-05 0.0000000000000000e+00  -7.3227255831218740e-05 -1.5900938832415185e-04 0.0000000000000000e+00  -6.3364420242975644e-05 -1.0653525013738480e-04 0.0000000000000000e+00  -6.9415147348131891e-05 -1.3797039978156070e-04 0.0000000000000000e+00  -6.6338423275313007e-05 -1.2133213733240446e-04 0.0000000000000000e+00  -4.4770405782800156e-05 -4.4420910774429085e-05 0.0000000000000000e+00  -9.0695111995624144e-05 -3.4420203367297174e-04 0.0000000000000000e+00  -2.3341655341494564e-05 -9.7469972818865968e-06 0.0000000000000000e+00  -9.6851044360222186e-05 -3.7457949187212131e-04 0.0000000000000000e+00  -8.1638773269286514e-06 -2.5691738781196911e-06 0.0000000000000000e+00  -9.2562350184351595e-05 -2.8842649596603110e-04 0.0000000000000000e+00  -9.4082390971803365e-05 -3.1284253479906487e-04 0.0000000000000000e+00  -1.4024688010749246e-05 -2.0997146201968472e-06 0.0000000000000000e+00  -3.0047766207030411e-05 -1.8425383115704784e-05 0.0000000000000000e+00  -8.5698397507541604e-05 -2.1651206982487448e-04 0.0000000000000000e+00  -9.0654222525267747e-05 -2.6417349500470431e-04 0.0000000000000000e+00  -4.8599986369747172e-05 -6.2309971005372925e-05 0.0000000000000000e+00  -8.2668429185659602e-05 -1.9334280976153665e-04 0.0000000000000000e+00  -3.5786441331494203e-05 -2.8522746386322935e-05 0.0000000000000000e+00  -5.3212034353320927e-05 -7.8868131191361747e-05 0.0000000000000000e+00  -7.9283735586000605e-05 -1.7077891345549672e-04 0.0000000000000000e+00  -8.8362858272944908e-05 -2.4016518015819221e-04 0.0000000000000000e+00  -5.6740291676105939e-05 -9.6632139479726779e-05 0.0000000000000000e+00  -7.5562280641131149e-05 -1.4895689084227343e-04 0.0000000000000000e+00  -1.3329348236544435e-06 1.0395889374044300e-06 0.0000000000000000e+00  -1.4303886722800878e-06 -9.1114710826617623e-07 0.0000000000000000e+00  -8.739354328