<?xml version="1.0"?>
<VTKFile type="UnstructuredGrid"  version="0.1"  >
<UnstructuredGrid>
<Piece  NumberOfPoints="1419" NumberOfCells="2698">
<Points>
<DataArray  type="Float64"  NumberOfComponents="3"  format="ascii">0 0 0  0 0.41 0  2.5 0 0  2.5 0.41 0  0.6 0.19 0  0.6 0.21 0  0.25 0.2 0  0.15 0.2 0  0.2489897948556636 0.21 0  0.2489897948556636 0.19 0  0.6 0.2 0  0 0.3807142857143437 0  0 0.3514285714286952 0  0 0.3221428571430699 0  0 0.29285714285744 0  0 0.2635714285718054 0  0 0.2342857142861561 0  0 0.2050000000005308 0  0 0.175714285714732 0  0 0.1464285714289574 0  0 0.1171428571431897 0  0 0.08785714285737878 0  0 0.05857142857161107 0  0 0.02928571428580012 0  0.03015443760436003 0 0  0.06140001986583606 0 0  0.09377624077125973 0 0  0.1273239957535082 0 0  0.1620856860351972 0 0  0.1981052433264291 0 0  0.235428184091502 0 0  0.2741016576309132 0 0  0.3141745521465447 0 0  0.3556974926295285 0 0  0.3987229542472677 0 0  0.4433053055141081 0 0  0.4895008759286886 0 0  0.5373680609405097 0 0  0.5869673343216626 0 0  0.6383613676634521 0 0  0.6916151138468254 0 0  0.7467958595648856 0 0  0.8039733463919316 0 0  0.8632198139502143 0 0  0.9246101326867038 0 0  0.9882218810934433 0 0  1.054135445558498 0 0  1.122434100542598 0 0  1.193204177141305 0 0  1.266535089879536 0 0  1.342519516046404 0 0  1.421253448503939 0 0  1.502836389106271 0 0  1.587371439758838 0 0  1.674965418777374 0 0  1.765729001825544 0 0  1.859776908880082 0 0  1.957227977487062 0 0  2.058205329869943 0 0  2.162836591189951 0 0  2.271253957290865 0 0  2.383594446803425 0 0  2.5 0.1024999999997612 0  2.5 0.2049999999994743 0  2.5 0.3074999999997183 0  2.383594446803656 0.41 0  2.271253957291315 0.41 0  2.162836591190598 0.41 0  2.058205329870775 0.41 0  1.957227977488067 0.41 0  1.859776908881246 0.41 0  1.765729001826854 0.41 0  1.674965418778818 0.41 0  1.58737143976041 0.41 0  1.502836389107956 0.41 0  1.421253448505726 0.41 0  1.342519516048286 0.41 0  1.266535089881505 0.41 0  1.193204177143353 0.41 0  1.122434100544716 0.41 0  1.05413544556068 0.41 0  0.9882218810956305 0.41 0  0.9246101326886647 0.41 0  0.8632198139519631 0.41 0  0.8039733463934788 0.41 0  0.7467958595662458 0.41 0  0.6916151138480078 0.41 0  0.6383613676644679 0.41 0  0.5869673343225223 0.41 0  0.5373680609412221 0.41 0  0.4895008759292634 0.41 0  0.4433053055145528 0.41 0  0.3987229542475914 0.41 0  0.3556974926297398 0.41 0  0.3141745521466497 0.41 0  0.2741016576310038 0.41 0  0.2354281840915826 0.41 0  0.1981052433265003 0.41 0  0.1620856860352591 0.41 0  0.1273239957535623 0.41 0  0.09377624077128965 0.41 0  0.06140001986584975 0.41 0  0.03015443760436654 0.41 0  0.2497468076502589 0.2050254481002335 0  0.2497468076502614 0.1949745518997913 0  0.2469965252529372 0.1829317073451959 0  0.2439893735792749 0.1762316384219906 0  0.2400332147834255 0.1700443375285386 0  0.2352133972704371 0.1645032867342007 0  0.2296339016332438 0.1597280261969788 0  0.2234150974217223 0.1558215752574715 0  0.2166911463437691 0.1528682099456123 0  0.2096071079204251 0.1509316448471593 0  0.2023158100364996 0.1500536585536553 0  0.194974551899914 0.1502531923497262 0  0.1877417105387872 0.1515259415822739 0  0.1807733240461124 0.153844448527136 0  0.1742197252835808 0.15715869474974 0  0.1682222986673531 0.1613971801805478 0  0.162910430003803 0.1664684656256651 0  0.1583987151779087 0.1722631454351573 0  0.1547844879126891 0.178656207771761 0  0.1521457199348551 0.1855097315605723 0  0.1505393388476355 0.1926758619366523 0  0.1505393388476328 0.2073241380633295 0  0.1521457199348437 0.2144902684393899 0  0.1547844879126531 0.221343792228163 0  0.1583987151778488 0.2277368545647528 0  0.1629104300036858 0.2335315343742052 0  0.1682222986671726 0.2386028198193036 0  0.1742197252833576 0.2428413052501257 0  0.1807733240458683 0.2461555514727623 0  0.1877417105384929 0.2484740584176516 0  0.1949745518995776 0.2497468076502398 0  0.202315810036185 0.2499463414463592 0  0.2096071079201568 0.2490683551528932 0  0.2166911463435495 0.2471317900544655 0  0.2234150974215506 0.2441784247426195 0  0.2296339016331197 0.2402719738031125 0  0.2352133972703547 0.2354967132658811 0  0.2400332147833751 0.2299556624715287 0  0.2439893735792577 0.2237683615780412 0  0.246996525252926 0.2170682926548348 0  0.25645809709277 0.21 0  0.2639263993298655 0.21 0  0.271394701566961 0.21 0  0.2788630038040554 0.21 0  0.2863313060411479 0.21 0  0.2937996082782405 0.21 0  0.301267910515333 0.21 0  0.3087362127524279 0.21 0  0.3162045149895234 0.21 0  0.3236728172265972 0.21 0  0.3311411194636928 0.21 0  0.3386094217007701 0.21 0  0.3460777239378666 0.21 0  0.3535460261749672 0.21 0  0.3610143284120516 0.21 0  0.3684826306491596 0.21 0  0.3759509328862226 0.21 0  0.383419235123329 0.21 0  0.3908875373604028 0.21 0  0.3983558395975142 0.21 0  0.4058241418345938 0.21 0  0.4132924440716992 0.21 0  0.4207607463087888 0.21 0  0.4282290485459029 0.21 0  0.4356973507830418 0.21 0  0.4431656530201649 0.21 0  0.4506339552573136 0.21 0  0.4581022574944306 0.21 0  0.4655705597315852 0.21 0  0.4730388619686996 0.21 0  0.480507164205851 0.21 0  0.4879754664429498 0.21 0  0.4954437686800938 0.21 0  0.502912070917267 0.21 0  0.5103803731544119 0.21 0  0.5178486753915261 0.21 0  0.5253169776286404 0.21 0  0.5327852798657868 0.21 0  0.5402535821029386 0.21 0  0.54772188434007 0.21 0  0.5551901865771842 0.21 0  0.5626584888143201 0.21 0  0.5701267910514778 0.21 0  0.5775950932886138 0.21 0  0.5850633955257281 0.21 0  0.5925316977628483 0.21 0  0.6 0.2050000000000054 0  0.6 0.1950000000000217 0  0.5925316977628897 0.19 0  0.5850633955257988 0.19 0  0.5775950932887378 0.19 0  0.5701267910515998 0.19 0  0.5626584888145268 0.19 0  0.5551901865773963 0.19 0  0.547721884340339 0.19 0  0.5402535821032429 0.19 0  0.5327852798661811 0.19 0  0.5253169776290537 0.19 0  0.5178486753919799 0.19 0  0.5103803731549078 0.19 0  0.502912070917822 0.19 0  0.4954437686807294 0.19 0  0.4879754664436223 0.19 0  0.4805071642065402 0.19 0  0.4730388619694271 0.19 0  0.4655705597323621 0.19 0  0.4581022574952563 0.19 0  0.4506339552581777 0.19 0  0.4431656530210671 0.19 0  0.4356973507839815 0.19 0  0.4282290485468779 0.19 0  0.4207607463097617 0.19 0  0.4132924440726327 0.19 0  0.4058241418354857 0.19 0  0.3983558395983636 0.19 0  0.3908875373612097 0.19 0  0.3834192351240934 0.19 0  0.3759509328869369 0.19 0  0.3684826306498175 0.19 0  0.361014328412667 0.19 0  0.3535460261755617 0.19 0  0.3460777239384295 0.19 0  0.3386094217012945 0.19 0  0.3311411194641595 0.19 0  0.3236728172270245 0.19 0  0.3162045149898895 0.19 0  0.3087362127527544 0.19 0  0.3012679105156187 0.19 0  0.2937996082784807 0.19 0  0.2863313060413428 0.19 0  0.2788630038042048 0.19 0  0.2713947015670686 0.19 0  0.2639263993299336 0.19 0  0.2564580970927985 0.19 0  0.2607803159922026 0.2000727136295815 0  0.5887803774232762 0.2001272386983733 0  0.5745072403740523 0.2002044435018727 0  0.5511891430099709 0.2001122610077113 0  0.2751288526855082 0.20000000000002 0  0.5365194309847112 0.1999999999999436 0  0.2894621222999649 0.1998691686390484 0  0.5215828265105155 0.1999999999999228 0  0.3127789816668748 0.1998657885438805 0  0.3274069683451451 0.2000000000000796 0  0.5066462220363641 0.199999999999908 0  0.3650630746574081 0.199866017807523 0  0.476773013087985 0.1999999999998713 0  0.3417402379596385 0.1998691686391011 0  0.3796850840047755 0.200000000000134 0  0.4618364086138087 0.1999999999998546 0  0.4917096175621762 0.1999999999998808 0  0.3946216884789568 0.2000000000001512 0  0.446899804139621 0.1999999999998389 0  0.4089549580935208 0.1998691686391595 0  0.4322718174608562 0.200127451265745 0  0.4201487168029707 0.1999966199048527 0  0.3528922713220932 0.2000185703532356 0  0.5633122436674589 0.1999814296467508 0  0.3006558810093873 0.1999966199048318 0  0.5815926498168407 0.1966545283159175 0  0.2677053789419034 0.1964246479135325 0  0.5290511287476175 0.1970915826863981 0  0.5439877332217911 0.197091582686394 0  0.2825131256993216 0.2035478995978015 0  0.3199386661080599 0.202908417313604 0  0.4842413153250809 0.1970915826863873 0  0.5141145242734466 0.1970915826863843 0  0.3722167817676917 0.2029084173136195 0  0.4693047108508938 0.1970915826863783 0  0.3348752705822316 0.202908417313609 0  0.3871533862418661 0.2029084173136212 0  0.4543681063767183 0.1970915826863795 0  0.4991779197992749 0.1970915826863902 0  0.4020059614928624 0.203547899597858 0  0.4394315019025246 0.1970915826863714 0  0.2550657455369551 0.2034088125358657 0  0.2548908499171161 0.1966940311614271 0  0.5946539510196798 0.2024302972968126 0  0.267698176732111 0.2039977513680092 0  0.4261685417851465 0.196409292431739 0  0.3590076176283495 0.196411355804271 0  0.5571672426447437 0.2036011176410121 0  0.3066757059912147 0.1964092924317024 0  0.594380730180568 0.1966558399668133 0  0.4842413153245942 0.2040749161535287 0  0.4693047108503577 0.2040749161535231 0  0.3871533862424271 0.1959250838464788 0  0.372246743208829 0.1959123236376545 0  0.5141145242731028 0.2040749161535395 0  0.4543681063761134 0.2040749161535186 0  0.4019979587101454 0.1959834479682427 0  0.4394608940728603 0.2040870543693135 0  0.5439623148931173 0.2040856076781014 0  0.5290511287473298 0.2040749161535501 0  0.4991779197988497 0.2040749161535382 0  0.3347912413592433 0.1959225448935183 0  0.3199680582793816 0.1959123018030061 0  0.2825051229162361 0.1959834479681729 0  0.3590471196690275 0.2036304442587945 0  0.5571594006495384 0.1963685282145804 0  0.3067669986803285 0.203627750582736 0  0.4262598344738712 0.2036568242185335 0  0.5814408164431408 0.2041285596160068 0  0.5688286748170428 0.1961819304477386 0  0.4145905603063645 0.2038180695522843 0  0.3473758401724931 0.2038180695522752 0  0.2950977245128307 0.2038180695522663 0  0.5688286748170693 0.203818069552238 0  0.2950977245127906 0.1961819304477774 0  0.3473758401723931 0.1961819304478349 0  0.4145905603061963 0.1961819304479011 0  0.2601812407614425 0.2056861609747042
[...]
<PointData  Vectors="f_46-0"> 
<DataArray  type="Float64"  Name="f_46-0"  NumberOfComponents="3" format="ascii">0.0000000000000000e+00 0.0000000000000000e+00 0.0000000000000000e+00  0.0000000000000000e+00 0.0000000000000000e+00 0.0000000000000000e+00  0.0000000000000000e+00 0.0000000000000000e+00 0.0000000000000000e+00  0.0000000000000000e+00 0.0000000000000000e+00 0.0000000000000000e+00  -2.9850378232738180e-05 -2.7013751339913900e-04 0.0000000000000000e+00  -5.2090063113927947e-06 -2.6980474295606831e-04 0.0000000000000000e+00  0.0000000000000000e+00 0.0000000000000000e+00 0.0000000000000000e+00  0.0000000000000000e+00 0.0000000000000000e+00 0.0000000000000000e+00  0.0000000000000000e+00 0.0000000000000000e+00 0.0000000000000000e+00  0.0000000000000000e+00 0.0000000000000000e+00 0.0000000000000000e+00  -1.7370491029711403e-05 -2.6996316255576471e-04 0.0000000000000000e+00  7.9591836734548407e-02 0.0000000000000000e+00 0.0000000000000000e+00  1.4693877550994527e-01 0.0000000000000000e+00 0.0000000000000000e+00  2.0204081632617479e-01 0.0000000000000000e+00 0.0000000000000000e+00  2.4489795918330076e-01 0.0000000000000000e+00 0.0000000000000000e+00  2.7551020408131754e-01 0.0000000000000000e+00 0.0000000000000000e+00  2.9387755102022350e-01 0.0000000000000000e+00 0.0000000000000000e+00  3.0000000000000004e-01 0.0000000000000000e+00 0.0000000000000000e+00  2.9387755102059482e-01 0.0000000000000000e+00 0.0000000000000000e+00  2.7551020408195548e-01 0.0000000000000000e+00 0.0000000000000000e+00  2.4489795918409074e-01 0.0000000000000000e+00 0.0000000000000000e+00  2.0204081632692525e-01 0.0000000000000000e+00 0.0000000000000000e+00  1.4693877551058568e-01 0.0000000000000000e+00 0.0000000000000000e+00  7.9591836734909244e-02 0.0000000000000000e+00 0.0000000000000000e+00  0.0000000000000000e+00 0.0000000000000000e+00 0.0000000000000000e+00  0.0000000000000000e+00 0.0000000000000000e+00 0.0000000000000000e+00  0.0000000000000000e+00 0.0000000000000000e+00 0.0000000000000000e+00  0.0000000000000000e+00 0.0000000000000000e+00 0.0000000000000000e+00  0.0000000000000000e+00 0.0000000000000000e+00 0.0000000000000000e+00  0.0000000000000000e+00 0.0000000000000000e+00 0.0000000000000000e+00  0.0000000000000000e+00 0.0000000000000000e+00 0.0000000000000000e+00  0.0000000000000000e+00 0.0000000000000000e+00 0.0000000000000000e+00  0.0000000000000000e+00 0.0000000000000000e+00 0.0000000000000000e+00  0.0000000000000000e+00 0.0000000000000000e+00 0.0000000000000000e+00  0.0000000000000000e+00 0.0000000000000000e+00 0.0000000000000000e+00  0.0000000000000000e+00 0.0000000000000000e+00 0.0000000000000000e+00  0.0000000000000000e+00 0.0000000000000000e+00 0.0000000000000000e+00  0.0000000000000000e+00 0.0000000000000000e+00 0.0000000000000000e+00  0.0000000000000000e+00 0.0000000000000000e+00 0.0000000000000000e+00  0.0000000000000000e+00 0.0000000000000000e+00 0.0000000000000000e+00  0.0000000000000000e+00 0.0000000000000000e+00 0.0000000000000000e+00  0.0000000000000000e+00 0.0000000000000000e+00 0.0000000000000000e+00  0.0000000000000000e+00 0.0000000000000000e+00 0.0000000000000000e+00  0.0000000000000000e+00 0.0000000000000000e+00 0.0000000000000000e+00  0.0000000000000000e+00 0.0000000000000000e+00 0.0000000000000000e+00  0.0000000000000000e+00 0.0000000000000000e+00 0.0000000000000000e+00  0.0000000000000000e+00 0.0000000000000000e+00 0.0000000000000000e+00  0.0000000000000000e+00 0.0000000000000000e+00 0.0000000000000000e+00  0.0000000000000000e+00 0.0000000000000000e+00 0.0000000000000000e+00  0.0000000000000000e+00 0.0000000000000000e+00 0.0000000000000000e+00  0.0000000000000000e+00 0.0000000000000000e+00 0.0000000000000000e+00  0.0000000000000000e+00 0.0000000000000000e+00 0.0000000000000000e+00  0.0000000000000000e+00 0.0000000000000000e+00 0.0000000000000000e+00  0.0000000000000000e+00 0.0000000000000000e+00 0.0000000000000000e+00  0.0000000000000000e+00 0.0000000000000000e+00 0.0000000000000000e+00  0.0000000000000000e+00 0.0000000000000000e+00 0.0000000000000000e+00  0.0000000000000000e+00 0.0000000000000000e+00 0.0000000000000000e+00  0.0000000000000000e+00 0.0000000000000000e+00 0.0000000000000000e+00  0.0000000000000000e+00 0.0000000000000000e+00 0.0000000000000000e+00  0.0000000000000000e+00 0.0000000000000000e+00 0.0000000000000000e+00  0.0000000000000000e+00 0.0000000000000000e+00 0.0000000000000000e+00  0.0000000000000000e+00 0.0000000000000000e+00 0.0000000000000000e+00  2.6759901547457876e-01 7.6636554956020361e-03 0.0000000000000000e+00  2.5340010120655504e-01 6.2937282392854258e-03 0.0000000000000000e+00  2.7492510325472663e-01 -1.7420002365083512e-02 0.0000000000000000e+00  0.0000000000000000e+00 0.0000000000000000e+00 0.0000000000000000e+00  0.0000000000000000e+00 0.0000000000000000e+00 0.0000000000000000e+00  0.0000000000000000e+00 0.0000000000000000e+00 0.0000000000000000e+00  0.0000000000000000e+00 0.0000000000000000e+00 0.0000000000000000e+00  0.0000000000000000e+00 0.0000000000000000e+00 0.0000000000000000e+00  0.0000000000000000e+00 0.0000000000000000e+00 0.0000000000000000e+00  0.0000000000000000e+00 0.0000000000000000e+00 0.0000000000000000e+00  0.0000000000000000e+00 0.0000000000000000e+00 0.0000000000000000e+00  0.0000000000000000e+00 0.0000000000000000e+00 0.0000000000000000e+00  0.0000000000000000e+00 0.0000000000000000e+00 0.0000000000000000e+00  0.0000000000000000e+00 0.0000000000000000e+00 0.0000000000000000e+00  0.0000000000000000e+00 0.0000000000000000e+00 0.0000000000000000e+00  0.0000000000000000e+00 0.0000000000000000e+00 0.0000000000000000e+00  0.0000000000000000e+00 0.0000000000000000e+00 0.0000000000000000e+00  0.0000000000000000e+00 0.0000000000000000e+00 0.0000000000000000e+00  0.0000000000000000e+00 0.0000000000000000e+00 0.0000000000000000e+00  0.0000000000000000e+00 0.0000000000000000e+00 0.0000000000000000e+00  0.0000000000000000e+00 0.0000000000000000e+00 0.0000000000000000e+00  0.0000000000000000e+00 0.0000000000000000e+00 0.0000000000000000e+00  0.0000000000000000e+00 0.0000000000000000e+00 0.0000000000000000e+00  0.0000000000000000e+00 0.0000000000000000e+00 0.0000000000000000e+00  0.0000000000000000e+00 0.0000000000000000e+00 0.0000000000000000e+00  0.0000000000000000e+00 0.0000000000000000e+00 0.0000000000000000e+00  0.0000000000000000e+00 0.0000000000000000e+00 0.0000000000000000e+00  0.0000000000000000e+00 0.0000000000000000e+00 0.0000000000000000e+00  0.0000000000000000e+00 0.0000000000000000e+00 0.0000000000000000e+00  0.0000000000000000e+00 0.0000000000000000e+00 0.0000000000000000e+00  0.0000000000000000e+00 0.0000000000000000e+00 0.0000000000000000e+00  0.0000000000000000e+00 0.0000000000000000e+00 0.0000000000000000e+00  0.0000000000000000e+00 0.0000000000000000e+00 0.0000000000000000e+00  0.0000000000000000e+00 0.0000000000000000e+00 0.0000000000000000e+00  0.0000000000000000e+00 0.0000000000000000e+00 0.0000000000000000e+00  0.0000000000000000e+00 0.0000000000000000e+00 0.0000000000000000e+00  0.0000000000000000e+00 0.0000000000000000e+00 0.0000000000000000e+00  0.0000000000000000e+00 0.0000000000000000e+00 0.0000000000000000e+00  0.0000000000000000e+00 0.0000000000000000e+00 0.0000000000000000e+00  0.0000000000000000e+00 0.0000000000000000e+00 0.0000000000000000e+00  0.0000000000000000e+00 0.0000000000000000e+00 0.0000000000000000e+00  0.0000000000000000e+00 0.0000000000000000e+00 0.0000000000000000e+00  0.0000000000000000e+00 0.0000000000000000e+00 0.0000000000000000e+00  2.3634799268887370e-14 0.0000000000000000e+00 0.0000000000000000e+00  0.0000000000000000e+00 0.0000000000000000e+00 0.0000000000000000e+00  0.0000000000000000e+00 0.0000000000000000e+00 0.0000000000000000e+00  0.0000000000000000e+00 0.0000000000000000e+00 0.0000000000000000e+00  0.0000000000000000e+00 0.0000000000000000e+00 0.0000000000000000e+00  2.4994619334811554e-12 0.0000000000000000e+00 0.0000000000000000e+00  0.0000000000000000e+00 0.0000000000000000e+00 0.0000000000000000e+00  0.0000000000000000e+00 0.0000000000000000e+00 0.0000000000000000e+00  0.0000000000000000e+00 0.0000000000000000e+00 0.0000000000000000e+00  0.0000000000000000e+00 0.0000000000000000e+00 0.0000000000000000e+00  0.0000000000000000e+00 0.0000000000000000e+00 0.0000000000000000e+00  0.0000000000000000e+00 0.0000000000000000e+00 0.0000000000000000e+00  0.0000000000000000e+00 0.0000000000000000e+00 0.0000000000000000e+00  0.0000000000000000e+00 0.0000000000000000e+00 0.0000000000000000e+00  0.0000000000000000e+00 0.0000000000000000e+00 0.0000000000000000e+00  0.0000000000000000e+00 0.0000000000000000e+00 0.0000000000000000e+00  0.0000000000000000e+00 0.0000000000000000e+00 0.0000000000000000e+00  0.0000000000000000e+00 0.0000000000000000e+00 0.0000000000000000e+00  0.0000000000000000e+00 0.0000000000000000e+00 0.0000000000000000e+00  0.0000000000000000e+00 0.0000000000000000e+00 0.0000000000000000e+00  0.0000000000000000e+00 0.0000000000000000e+00 0.0000000000000000e+00  0.0000000000000000e+00 0.0000000000000000e+00 0.0000000000000000e+00  0.0000000000000000e+00 0.0000000000000000e+00 0.0000000000000000e+00  0.0000000000000000e+00 0.0000000000000000e+00 0.0000000000000000e+00  0.0000000000000000e+00 0.0000000000000000e+00 0.0000000000000000e+00  0.0000000000000000e+00 0.0000000000000000e+00 0.0000000000000000e+00  0.0000000000000000e+00 0.0000000000000000e+00 0.0000000000000000e+00  0.0000000000000000e+00 0.0000000000000000e+00 0.0000000000000000e+00  0.0000000000000000e+00 0.0000000000000000e+00 0.0000000000000000e+00  0.0000000000000000e+00 0.0000000000000000e+00 0.0000000000000000e+00  0.0000000000000000e+00 0.0000000000000000e+00 0.0000000000000000e+00  0.0000000000000000e+00 0.0000000000000000e+00 0.0000000000000000e+00  0.0000000000000000e+00 0.0000000000000000e+00 0.0000000000000000e+00  0.0000000000000000e+00 0.0000000000000000e+00 0.0000000000000000e+00  0.0000000000000000e+00 0.0000000000000000e+00 0.0000000000000000e+00  0.0000000000000000e+00 0.0000000000000000e+00 0.0000000000000000e+00  0.0000000000000000e+00 0.0000000000000000e+00 0.0000000000000000e+00  0.0000000000000000e+00 0.0000000000000000e+00 0.0000000000000000e+00  -7.8558542897489206e-07 1.0781164105306049e-06 0.0000000000000000e+00  -1.5452429812988819e-06 1.3043631840840367e-06 0.0000000000000000e+00  -2.2994712160642114e-06 1.3699872999899852e-06 0.0000000000000000e+00  -2.9811973128544495e-06 1.2809321473286032e-06 0.0000000000000000e+00  -3.6296364274105654e-06 9.6640122220659320e-07 0.0000000000000000e+00  -4.1378414574449535e-06 4.1358785131263375e-07 0.0000000000000000e+00  -4.6510715689393998e-06 -3.9386895936677109e-07 0.0000000000000000e+00  -5.0813638436096812e-06 -1.5645140493181543e-06 0.0000000000000000e+00  -5.3632613599324639e-06 -3.0421721882221168e-06 0.0000000000000000e+00  -5.6733653165313791e-06 -4.9090348461773877e-06 0.0000000000000000e+00  -5.7871979390177060e-06 -7.1251273197173093e-06 0.0000000000000000e+00  -5.9695530157762785e-06 -9.7737870323323324e-06 0.0000000000000000e+00  -5.9632959796694619e-06 -1.2801626411021741e-05 0.0000000000000000e+00  -6.0265754497602030e-06 -1.6178121634733705e-05 0.0000000000000000e+00  -6.0311249142204845e-06 -2.0013280997545226e-05 0.0000000000000000e+00  -5.9061561759372363e-06 -2.4193600741058119e-05 0.0000000000000000e+00  -5.8701697226684498e-06 -2.8783618895173187e-05 0.0000000000000000e+00  -5.6781161465068847e-06 -3.3731642339659326e-05 0.0000000000000000e+00  -5.6033458155773445e-06 -3.9071771127305374e-05 0.0000000000000000e+00  -5.4027906789522933e-06 -4.4734196512980031e-05 0.0000000000000000e+00  -5.2886745793716722e-06 -5.0766810151365219e-05 0.0000000000000000e+00  -5.0920819460713975e-06 -5.7124460267763028e-05 0.0000000000000000e+00  -4.9870548796506776e-06 -6.3737580292844121e-05 0.0000000000000000e+00  -4.8829271257000841e-06 -7.0685826291518557e-05 0.0000000000000000e+00  -4.7290041448139815e-06 -7.7854392839237340e-05 0.0000000000000000e+00  -4.6370137508738533e-06 -8.5299655358113546e-05 0.0000000000000000e+00  -4.5374894113314253e-06 -9.2966759566594833e-05 0.0000000000000000e+00  -4.4754245784447384e-06 -1.0084070763672376e-04 0.0000000000000000e+00  -4.4119514443170054e-06 -1.0890837967156670e-04 0.0000000000000000e+00  -4.3825725645160220e-06 -1.1714374504491343e-04 0.0000000000000000e+00  -4.3554797207017356e-06 -1.2553826689146730e-04 0.0000000000000000e+00  -4.3573170524336320e-06 -1.3406750947374363e-04 0.0000000000000000e+00  -4.3623243580347912e-06 -1.4272163497702122e-04 0.0000000000000000e+00  -4.3908667583723511e-06 -1.5147905114987269e-04 0.0000000000000000e+00  -4.4226927985713775e-06 -1.6032973714445167e-04 0.0000000000000000e+00  -4.4720866726549782e-06 -1.6925773500436192e-04 0.0000000000000000e+00  -4.5237599409236206e-06 -1.7825182876062294e-04 0.0000000000000000e+00  -4.5871598545918458e-06 -1.8730015986791299e-04 0.0000000000000000e+00  -4.6511402048199016e-06 -1.9639139137911236e-04 0.0000000000000000e+00  -4.7205762841191548e-06 -2.0552000939936608e-04 0.0000000000000000e+00  -4.7853315491709826e-06 -2.1467842094724654e-04 0.0000000000000000e+00  -4.8544934001826309e-06 -2.2385520609355064e-04 0.0000000000000000e+00  -4.9205948041662507e-06 -2.3304981923205284e-04 0.0000000000000000e+00  -4.9828258065307489e-06 -2.4225437760002152e-04 0.0000000000000000e+00  -5.0386862706026395e-06 -2.5147233794626660e-04 0.0000000000000000e+00  -5.1044862168857915e-06 -2.6067771071492876e-04 0.0000000000000000e+00  -1.1239295474245049e-05 -2.6988480613054537e-04 0.0000000000000000e+00  -2.3561029378860720e-05 -2.7004179241940136e-04 0.0000000000000000e+00  -2.9738529018490108e-05 -2.6084758510265576e-04 0.0000000000000000e+00  -2.9665566814460193e-05 -2.5165583557675632e-04 0.0000000000000000e+00  -2.9594370844188235e-05 -2.4247750918390235e-04 0.0000000000000000e+00  -2.9502314788532324e-05 -2.3329768265093872e-04 0.0000000000000000e+00  -2.9402191049876817e-05 -2.2412509102480975e-04 0.0000000000000000e+00  -2.9284063532517842e-05 -2.1496966480101734e-04 0.0000000000000000e+00  -2.9143557798061608e-05 -2.0582888600382393e-04 0.0000000000000000e+00  -2.8992094196419507e-05 -1.9672206588117544e-04 0.0000000000000000e+00  -2.8807189864730797e-05 -1.8763993004862795e-04 0.0000000000000000e+00  -2.8618202170591685e-05 -1.7861238909655251e-04 0.0000000000000000e+00  -2.8387261329296240e-05 -1.6962674789078132e-04 0.0000000000000000e+00  -2.8157367014673232e-05 -1.6071828902625170e-04 0.0000000000000000e+00  -2.7874255638808991e-05 -1.5187551206102519e-04 0.0000000000000000e+00  -2.7598897931790489e-05 -1.4313559373984187e-04 0.0000000000000000e+00  -2.7258864716915275e-05 -1.3448928579037604e-04 0.0000000000000000e+00  -2.6934335057851926e-05 -1.2597695433767960e-04 0.0000000000000000e+00  -2.6532793996863150e-05 -1.1758979327357613e-04 0.0000000000000000e+00  -2.6156306373659612e-05 -1.0937217876634278e-04 0.0000000000000000e+00  -2.5687910593635756e-05 -1.0131436076581723e-04 0.0000000000000000e+00  -2.5253929190000029e-05 -9.3462086468579293e-05 0.0000000000000000e+00  -2.4710926930612777e-05 -8.5807638126443166e-05 0.0000000000000000e+00  -2.4211434680472578e-05 -7.8400744633988362e-05 0.0000000000000000e+00  -2.3592802061844604e-05 -7.1239252786764096e-05 0.0000000000000000e+00  -2.3008679438439820e-05 -6.4330533852118235e-05 0.0000000000000000e+00  -2.2389490765638281e-05 -5.7756858987248628e-05 0.0000000000000000e+00  -2.1665124115154837e-05 -5.1430258161736015e-05 0.0000000000000000e+00  -2.0947410867074051e-05 -4.5479536060388512e-05 0.0000000000000000e+00  -2.0145336062728485e-05 -3.9839001291704952e-05 0.0000000000000000e+00  -1.9336608179323965e-05 -3.4594582445202001e-05 0.0000000000000000e+00  -1.8445113157811741e-05 -2.9695444123868994e-05 0.0000000000000000e+00  -1.7540245642790879e-05 -2.5201259891970044e-05 0.0000000000000000e+00  -1.6508594170178918e-05 -2.1123229611183715e-05 0.0000000000000000e+00  -1.5533352159197099e-05 -1.7389787485426541e-05 0.0000000000000000e+00  -1.4513105557247908e-05 -1.4117252281493904e-05 0.0000000000000000e+00  -1.3370380145149462e-05 -1.1167109383776181e-05 0.0000000000000000e+00  -1.2238524629998080e-05 -8.6682505852434452e-06 0.0000000000000000e+00  -1.1030532190250718e-05 -6.5236911601970072e-06 0.0000000000000000e+00  -9.8326572779662459e-06 -4.7687365596106116e-06 0.0000000000000000e+00  -8.5472606080284973e-06 -3.3933872566752931e-06 0.0000000000000000e+00  -7.3384238835445391e-06 -2.2973700771862066e-06 0.0000000000000000e+00  -6.1343284780955403e-06 -1.5521059819591411e-06 0.0000000000000000e+00  -4.8854896155849942e-06 -1.0261581410132604e-06 0.0000000000000000e+00  -3.7214729507919303e-06 -7.5664231947446918e-07 0.0000000000000000e+00  -2.5894790629457635e-06 -6.8938922317228681e-07 0.0000000000000000e+00  -1.5792972326205850e-06 -7.0266721836056906e-07 0.0000000000000000e+00  -7.0596344418605201e-07 -7.6420238794169259e-07 0.0000000000000000e+00  -1.0214923832640459e-06 2.7842515424727532e-07 0.0000000000000000e+00  -1.7169128228665460e-05 -2.5613909164067997e-04 0.0000000000000000e+00  -1.6982805294782339e-05 -2.3855531938206425e-04 0.0000000000000000e+00  -1.6822572500741664e-05 -2.0989934853166478e-04 0.0000000000000000e+00  -2.8657854085280977e-06 4.2261261020998676e-07 0.0000000000000000e+00  -1.6736635395526267e-05 -1.9198074137728041e-04 0.0000000000000000e+00  -4.5991667842219325e-06 -7.3336119510865658e-08 0.0000000000000000e+00  -1.6478842620479261e-05 -1.7388873100917358e-04 0.0000000000000000e+00  -7.2171663714480222e-06 -2.9947534236877325e-06 0.0000000000000000e+00  -8.6159639598225812e-06 -6.5194935004917887e-06 0.0000000000000000e+00  -1.6190459381833191e-05 -1.5603296845079296e-04 0.0000000000000000e+00  -1.1551061743137336e-05 -2.2507438694811804e-05 0.0000000000000000e+00  -1.5531249138932586e-05 -1.2144706958891889e-04 0.0000000000000000e+00  -9.9012961244820053e-06 -1.1420471475439291e-05 0.0000000000000000e+00  -1.2282598070477457e-05 -3.1414388352399658e-05 0.0000000000000000e+00  -1.5162222153390991e-05 -1.0496613040434429e-04 0.0000000000000000e+00  -1.5874043740681647e-05 -1.3851338974682424e-04 0.0000000000000000e+00  -1.2982346911114947e-05 -4.2010795128982519e-05 0.0000000000000000e+00  -1.4764591514815668e-05 -8.9213048017759705e-05 0.0000000000000000e+00  -1.3668364446722723e-05 -5.3506817625429037e-05 0.0000000000000000e+00  -1.4218301270041715e-05 -7.4633926993795474e-05 0.0000000000000000e+00  -1.3946638823941992e-05 -6.3342079547326399e-05 0.0000000000000000e+00  -1.0654255567494620e-05 -1.6288388872245976e-05 0.0000000000000000e+00  -1.7131761473539438e-05 -2.2478545221447593e-04 0.0000000000000000e+00  -5.8645180846353631e-06 -1.1310382601088303e-06 0.0000000000000000e+00  -2.1408352438008633e-05 -2.4731530842293179e-04 0.0000000000000000e+00  -1.9789874149230142e-06 7.3889881144977394e-09 0.0000000000000000e+00  -2.0124347105685827e-05 -1.8296646906721799e-04 0.0000000000000000e+00  -2.0399018231246651e-05 -2.0113909684701920e-04 0.0000000000000000e+00  -3.5826460715026016e-06 6.1172662796582099e-07 0.0000000000000000e+00  -7.1868710793360853e-06 -4.3235180250381917e-06 0.0000000000000000e+00  -1.9011560741939919e-05 -1.2999016401524490e-04 0.0000000000000000e+00  -1.9802270837936965e-05 -1.6498742642779800e-04 0.0000000000000000e+00  -1.0122262784963780e-05 -2.6569004012118108e-05 0.0000000000000000e+00  -1.8540388516954928e-05 -1.1320614974385711e-04 0.0000000000000000e+00  -8.2810768086358227e-06 -8.7058963212027234e-06 0.0000000000000000e+00  -1.0601044105333725e-05 -3.6443142816587756e-05 0.0000000000000000e+00  -1.8014281699777709e-05 -9.7077876925999039e-05 0.0000000000000000e+00  -1.9431714074424022e-05 -1.4729258006035279e-04 0.0000000000000000e+00  -1.0471049494613284e-05 -4.7686658673692429e-05 0.0000000000000000e+00  -1.7430687758845599e-05 -8.1753522581606719e-05 0.0000000000000000e+00  -3.7877409731768032e-07 3.5553957506993661e-07 0.0000000000000000e+00  -3.6440629451958740e-07 -8.9953786527276055e-08 0.0000000000000000e+00  -1.435623997707086