<?xml version="1.0"?>
<VTKFile type="UnstructuredGrid"  version="0.1"  >
<UnstructuredGrid>
<Piece  NumberOfPoints="1419" NumberOfCells="2698">
<Points>
<DataArray  type="Float64"  NumberOfComponents="3"  format="ascii">0 0 0  0 0.41 0  2.5 0 0  2.5 0.41 0  0.6 0.19 0  0.6 0.21 0  0.25 0.2 0  0.15 0.2 0  0.2489897948556636 0.21 0  0.2489897948556636 0.19 0  0.6 0.2 0  0 0.3807142857143437 0  0 0.3514285714286952 0  0 0.3221428571430699 0  0 0.29285714285744 0  0 0.2635714285718054 0  0 0.2342857142861561 0  0 0.2050000000005308 0  0 0.175714285714732 0  0 0.1464285714289574 0  0 0.1171428571431897 0  0 0.08785714285737878 0  0 0.05857142857161107 0  0 0.02928571428580012 0  0.03015443760436003 0 0  0.06140001986583606 0 0  0.09377624077125973 0 0  0.1273239957535082 0 0  0.1620856860351972 0 0  0.1981052433264291 0 0  0.235428184091502 0 0  0.2741016576309132 0 0  0.3141745521465447 0 0  0.3556974926295285 0 0  0.3987229542472677 0 0  0.4433053055141081 0 0  0.4895008759286886 0 0  0.5373680609405097 0 0  0.5869673343216626 0 0  0.6383613676634521 0 0  0.6916151138468254 0 0  0.7467958595648856 0 0  0.8039733463919316 0 0  0.8632198139502143 0 0  0.9246101326867038 0 0  0.9882218810934433 0 0  1.054135445558498 0 0  1.122434100542598 0 0  1.193204177141305 0 0  1.266535089879536 0 0  1.342519516046404 0 0  1.421253448503939 0 0  1.502836389106271 0 0  1.587371439758838 0 0  1.674965418777374 0 0  1.765729001825544 0 0  1.859776908880082 0 0  1.957227977487062 0 0  2.058205329869943 0 0  2.162836591189951 0 0  2.271253957290865 0 0  2.383594446803425 0 0  2.5 0.1024999999997612 0  2.5 0.2049999999994743 0  2.5 0.3074999999997183 0  2.383594446803656 0.41 0  2.271253957291315 0.41 0  2.162836591190598 0.41 0  2.058205329870775 0.41 0  1.957227977488067 0.41 0  1.859776908881246 0.41 0  1.765729001826854 0.41 0  1.674965418778818 0.41 0  1.58737143976041 0.41 0  1.502836389107956 0.41 0  1.421253448505726 0.41 0  1.342519516048286 0.41 0  1.266535089881505 0.41 0  1.193204177143353 0.41 0  1.122434100544716 0.41 0  1.05413544556068 0.41 0  0.9882218810956305 0.41 0  0.9246101326886647 0.41 0  0.8632198139519631 0.41 0  0.8039733463934788 0.41 0  0.7467958595662458 0.41 0  0.6916151138480078 0.41 0  0.6383613676644679 0.41 0  0.5869673343225223 0.41 0  0.5373680609412221 0.41 0  0.4895008759292634 0.41 0  0.4433053055145528 0.41 0  0.3987229542475914 0.41 0  0.3556974926297398 0.41 0  0.3141745521466497 0.41 0  0.2741016576310038 0.41 0  0.2354281840915826 0.41 0  0.1981052433265003 0.41 0  0.1620856860352591 0.41 0  0.1273239957535623 0.41 0  0.09377624077128965 0.41 0  0.06140001986584975 0.41 0  0.03015443760436654 0.41 0  0.2497468076502589 0.2050254481002335 0  0.2497468076502614 0.1949745518997913 0  0.2469965252529372 0.1829317073451959 0  0.2439893735792749 0.1762316384219906 0  0.2400332147834255 0.1700443375285386 0  0.2352133972704371 0.1645032867342007 0  0.2296339016332438 0.1597280261969788 0  0.2234150974217223 0.1558215752574715 0  0.2166911463437691 0.1528682099456123 0  0.2096071079204251 0.1509316448471593 0  0.2023158100364996 0.1500536585536553 0  0.194974551899914 0.1502531923497262 0  0.1877417105387872 0.1515259415822739 0  0.1807733240461124 0.153844448527136 0  0.1742197252835808 0.15715869474974 0  0.1682222986673531 0.1613971801805478 0  0.162910430003803 0.1664684656256651 0  0.1583987151779087 0.1722631454351573 0  0.1547844879126891 0.178656207771761 0  0.1521457199348551 0.1855097315605723 0  0.1505393388476355 0.1926758619366523 0  0.1505393388476328 0.2073241380633295 0  0.1521457199348437 0.2144902684393899 0  0.1547844879126531 0.221343792228163 0  0.1583987151778488 0.2277368545647528 0  0.1629104300036858 0.2335315343742052 0  0.1682222986671726 0.2386028198193036 0  0.1742197252833576 0.2428413052501257 0  0.1807733240458683 0.2461555514727623 0  0.1877417105384929 0.2484740584176516 0  0.1949745518995776 0.2497468076502398 0  0.202315810036185 0.2499463414463592 0  0.2096071079201568 0.2490683551528932 0  0.2166911463435495 0.2471317900544655 0  0.2234150974215506 0.2441784247426195 0  0.2296339016331197 0.2402719738031125 0  0.2352133972703547 0.2354967132658811 0  0.2400332147833751 0.2299556624715287 0  0.2439893735792577 0.2237683615780412 0  0.246996525252926 0.2170682926548348 0  0.25645809709277 0.21 0  0.2639263993298655 0.21 0  0.271394701566961 0.21 0  0.2788630038040554 0.21 0  0.2863313060411479 0.21 0  0.2937996082782405 0.21 0  0.301267910515333 0.21 0  0.3087362127524279 0.21 0  0.3162045149895234 0.21 0  0.3236728172265972 0.21 0  0.3311411194636928 0.21 0  0.3386094217007701 0.21 0  0.3460777239378666 0.21 0  0.3535460261749672 0.21 0  0.3610143284120516 0.21 0  0.3684826306491596 0.21 0  0.3759509328862226 0.21 0  0.383419235123329 0.21 0  0.3908875373604028 0.21 0  0.3983558395975142 0.21 0  0.4058241418345938 0.21 0  0.4132924440716992 0.21 0  0.4207607463087888 0.21 0  0.4282290485459029 0.21 0  0.4356973507830418 0.21 0  0.4431656530201649 0.21 0  0.4506339552573136 0.21 0  0.4581022574944306 0.21 0  0.4655705597315852 0.21 0  0.4730388619686996 0.21 0  0.480507164205851 0.21 0  0.4879754664429498 0.21 0  0.4954437686800938 0.21 0  0.502912070917267 0.21 0  0.5103803731544119 0.21 0  0.5178486753915261 0.21 0  0.5253169776286404 0.21 0  0.5327852798657868 0.21 0  0.5402535821029386 0.21 0  0.54772188434007 0.21 0  0.5551901865771842 0.21 0  0.5626584888143201 0.21 0  0.5701267910514778 0.21 0  0.5775950932886138 0.21 0  0.5850633955257281 0.21 0  0.5925316977628483 0.21 0  0.6 0.2050000000000054 0  0.6 0.1950000000000217 0  0.5925316977628897 0.19 0  0.5850633955257988 0.19 0  0.5775950932887378 0.19 0  0.5701267910515998 0.19 0  0.5626584888145268 0.19 0  0.5551901865773963 0.19 0  0.547721884340339 0.19 0  0.5402535821032429 0.19 0  0.5327852798661811 0.19 0  0.5253169776290537 0.19 0  0.5178486753919799 0.19 0  0.5103803731549078 0.19 0  0.502912070917822 0.19 0  0.4954437686807294 0.19 0  0.4879754664436223 0.19 0  0.4805071642065402 0.19 0  0.4730388619694271 0.19 0  0.4655705597323621 0.19 0  0.4581022574952563 0.19 0  0.4506339552581777 0.19 0  0.4431656530210671 0.19 0  0.4356973507839815 0.19 0  0.4282290485468779 0.19 0  0.4207607463097617 0.19 0  0.4132924440726327 0.19 0  0.4058241418354857 0.19 0  0.3983558395983636 0.19 0  0.3908875373612097 0.19 0  0.3834192351240934 0.19 0  0.3759509328869369 0.19 0  0.3684826306498175 0.19 0  0.361014328412667 0.19 0  0.3535460261755617 0.19 0  0.3460777239384295 0.19 0  0.3386094217012945 0.19 0  0.3311411194641595 0.19 0  0.3236728172270245 0.19 0  0.3162045149898895 0.19 0  0.3087362127527544 0.19 0  0.3012679105156187 0.19 0  0.2937996082784807 0.19 0  0.2863313060413428 0.19 0  0.2788630038042048 0.19 0  0.2713947015670686 0.19 0  0.2639263993299336 0.19 0  0.2564580970927985 0.19 0  0.2607803159922026 0.2000727136295815 0  0.5887803774232762 0.2001272386983733 0  0.5745072403740523 0.2002044435018727 0  0.5511891430099709 0.2001122610077113 0  0.2751288526855082 0.20000000000002 0  0.5365194309847112 0.1999999999999436 0  0.2894621222999649 0.1998691686390484 0  0.5215828265105155 0.1999999999999228 0  0.3127789816668748 0.1998657885438805 0  0.3274069683451451 0.2000000000000796 0  0.5066462220363641 0.199999999999908 0  0.3650630746574081 0.199866017807523 0  0.476773013087985 0.1999999999998713 0  0.3417402379596385 0.1998691686391011 0  0.3796850840047755 0.200000000000134 0  0.4618364086138087 0.1999999999998546 0  0.4917096175621762 0.1999999999998808 0  0.3946216884789568 0.2000000000001512 0  0.446899804139621 0.1999999999998389 0  0.4089549580935208 0.1998691686391595 0  0.4322718174608562 0.200127451265745 0  0.4201487168029707 0.1999966199048527 0  0.3528922713220932 0.2000185703532356 0  0.5633122436674589 0.1999814296467508 0  0.3006558810093873 0.1999966199048318 0  0.5815926498168407 0.1966545283159175 0  0.2677053789419034 0.1964246479135325 0  0.5290511287476175 0.1970915826863981 0  0.5439877332217911 0.197091582686394 0  0.2825131256993216 0.2035478995978015 0  0.3199386661080599 0.202908417313604 0  0.4842413153250809 0.1970915826863873 0  0.5141145242734466 0.1970915826863843 0  0.3722167817676917 0.2029084173136195 0  0.4693047108508938 0.1970915826863783 0  0.3348752705822316 0.202908417313609 0  0.3871533862418661 0.2029084173136212 0  0.4543681063767183 0.1970915826863795 0  0.4991779197992749 0.1970915826863902 0  0.4020059614928624 0.203547899597858 0  0.4394315019025246 0.1970915826863714 0  0.2550657455369551 0.2034088125358657 0  0.2548908499171161 0.1966940311614271 0  0.5946539510196798 0.2024302972968126 0  0.267698176732111 0.2039977513680092 0  0.4261685417851465 0.196409292431739 0  0.3590076176283495 0.196411355804271 0  0.5571672426447437 0.2036011176410121 0  0.3066757059912147 0.1964092924317024 0  0.594380730180568 0.1966558399668133 0  0.4842413153245942 0.2040749161535287 0  0.4693047108503577 0.2040749161535231 0  0.3871533862424271 0.1959250838464788 0  0.372246743208829 0.1959123236376545 0  0.5141145242731028 0.2040749161535395 0  0.4543681063761134 0.2040749161535186 0  0.4019979587101454 0.1959834479682427 0  0.4394608940728603 0.2040870543693135 0  0.5439623148931173 0.2040856076781014 0  0.5290511287473298 0.2040749161535501 0  0.4991779197988497 0.2040749161535382 0  0.3347912413592433 0.1959225448935183 0  0.3199680582793816 0.1959123018030061 0  0.2825051229162361 0.1959834479681729 0  0.3590471196690275 0.2036304442587945 0  0.5571594006495384 0.1963685282145804 0  0.3067669986803285 0.203627750582736 0  0.4262598344738712 0.2036568242185335 0  0.5814408164431408 0.2041285596160068 0  0.5688286748170428 0.1961819304477386 0  0.4145905603063645 0.2038180695522843 0  0.3473758401724931 0.2038180695522752 0  0.2950977245128307 0.2038180695522663 0  0.5688286748170693 0.203818069552238 0  0.2950977245127906 0.1961819304477774 0  0.3473758401723931 0.1961819304478349 0  0.4145905603061963 0.1961819304479011 0  0.2601812407614425 0.2056861609747042
[...]
<PointData  Vectors="f_46-0"> 
<DataArray  type="Float64"  Name="f_46-0"  NumberOfComponents="3" format="ascii">0.0000000000000000e+00 0.0000000000000000e+00 0.0000000000000000e+00  0.0000000000000000e+00 0.0000000000000000e+00 0.0000000000000000e+00  0.0000000000000000e+00 0.0000000000000000e+00 0.0000000000000000e+00  0.0000000000000000e+00 0.0000000000000000e+00 0.0000000000000000e+00  1.7005180455331044e-05 6.5639801873155189e-04 0.0000000000000000e+00  -2.8114277830330884e-05 6.5647623925182866e-04 0.0000000000000000e+00  0.0000000000000000e+00 0.0000000000000000e+00 0.0000000000000000e+00  0.0000000000000000e+00 0.0000000000000000e+00 0.0000000000000000e+00  0.0000000000000000e+00 0.0000000000000000e+00 0.0000000000000000e+00  0.0000000000000000e+00 0.0000000000000000e+00 0.0000000000000000e+00  -5.5493281921285213e-06 6.5643856693132910e-04 0.0000000000000000e+00  7.9591836734548407e-02 0.0000000000000000e+00 0.0000000000000000e+00  1.4693877550994527e-01 0.0000000000000000e+00 0.0000000000000000e+00  2.0204081632617479e-01 0.0000000000000000e+00 0.0000000000000000e+00  2.4489795918330079e-01 0.0000000000000000e+00 0.0000000000000000e+00  2.7551020408131754e-01 0.0000000000000000e+00 0.0000000000000000e+00  2.9387755102022350e-01 0.0000000000000000e+00 0.0000000000000000e+00  3.0000000000000004e-01 0.0000000000000000e+00 0.0000000000000000e+00  2.9387755102059482e-01 0.0000000000000000e+00 0.0000000000000000e+00  2.7551020408195548e-01 0.0000000000000000e+00 0.0000000000000000e+00  2.4489795918409069e-01 0.0000000000000000e+00 0.0000000000000000e+00  2.0204081632692528e-01 0.0000000000000000e+00 0.0000000000000000e+00  1.4693877551058568e-01 0.0000000000000000e+00 0.0000000000000000e+00  7.9591836734909230e-02 0.0000000000000000e+00 0.0000000000000000e+00  0.0000000000000000e+00 0.0000000000000000e+00 0.0000000000000000e+00  0.0000000000000000e+00 0.0000000000000000e+00 0.0000000000000000e+00  0.0000000000000000e+00 0.0000000000000000e+00 0.0000000000000000e+00  0.0000000000000000e+00 0.0000000000000000e+00 0.0000000000000000e+00  0.0000000000000000e+00 0.0000000000000000e+00 0.0000000000000000e+00  0.0000000000000000e+00 0.0000000000000000e+00 0.0000000000000000e+00  0.0000000000000000e+00 0.0000000000000000e+00 0.0000000000000000e+00  0.0000000000000000e+00 0.0000000000000000e+00 0.0000000000000000e+00  0.0000000000000000e+00 0.0000000000000000e+00 0.0000000000000000e+00  0.0000000000000000e+00 0.0000000000000000e+00 0.0000000000000000e+00  0.0000000000000000e+00 0.0000000000000000e+00 0.0000000000000000e+00  0.0000000000000000e+00 0.0000000000000000e+00 0.0000000000000000e+00  0.0000000000000000e+00 0.0000000000000000e+00 0.0000000000000000e+00  0.0000000000000000e+00 0.0000000000000000e+00 0.0000000000000000e+00  0.0000000000000000e+00 0.0000000000000000e+00 0.0000000000000000e+00  0.0000000000000000e+00 0.0000000000000000e+00 0.0000000000000000e+00  0.0000000000000000e+00 0.0000000000000000e+00 0.0000000000000000e+00  0.0000000000000000e+00 0.0000000000000000e+00 0.0000000000000000e+00  0.0000000000000000e+00 0.0000000000000000e+00 0.0000000000000000e+00  0.0000000000000000e+00 0.0000000000000000e+00 0.0000000000000000e+00  0.0000000000000000e+00 0.0000000000000000e+00 0.0000000000000000e+00  0.0000000000000000e+00 0.0000000000000000e+00 0.0000000000000000e+00  0.0000000000000000e+00 0.0000000000000000e+00 0.0000000000000000e+00  0.0000000000000000e+00 0.0000000000000000e+00 0.0000000000000000e+00  0.0000000000000000e+00 0.0000000000000000e+00 0.0000000000000000e+00  0.0000000000000000e+00 0.0000000000000000e+00 0.0000000000000000e+00  0.0000000000000000e+00 0.0000000000000000e+00 0.0000000000000000e+00  0.0000000000000000e+00 0.0000000000000000e+00 0.0000000000000000e+00  0.0000000000000000e+00 0.0000000000000000e+00 0.0000000000000000e+00  0.0000000000000000e+00 0.0000000000000000e+00 0.0000000000000000e+00  0.0000000000000000e+00 0.0000000000000000e+00 0.0000000000000000e+00  0.0000000000000000e+00 0.0000000000000000e+00 0.0000000000000000e+00  0.0000000000000000e+00 0.0000000000000000e+00 0.0000000000000000e+00  0.0000000000000000e+00 0.0000000000000000e+00 0.0000000000000000e+00  0.0000000000000000e+00 0.0000000000000000e+00 0.0000000000000000e+00  0.0000000000000000e+00 0.0000000000000000e+00 0.0000000000000000e+00  0.0000000000000000e+00 0.0000000000000000e+00 0.0000000000000000e+00  0.0000000000000000e+00 0.0000000000000000e+00 0.0000000000000000e+00  2.5397670667204220e-01 3.2098107296666327e-03 0.0000000000000000e+00  2.9079421289867008e-01 8.4691617347355461e-03 0.0000000000000000e+00  2.5114672688882816e-01 -9.3198553628625006e-03 0.0000000000000000e+00  0.0000000000000000e+00 0.0000000000000000e+00 0.0000000000000000e+00  0.0000000000000000e+00 0.0000000000000000e+00 0.0000000000000000e+00  0.0000000000000000e+00 0.0000000000000000e+00 0.0000000000000000e+00  0.0000000000000000e+00 0.0000000000000000e+00 0.0000000000000000e+00  0.0000000000000000e+00 0.0000000000000000e+00 0.0000000000000000e+00  0.0000000000000000e+00 0.0000000000000000e+00 0.0000000000000000e+00  0.0000000000000000e+00 0.0000000000000000e+00 0.0000000000000000e+00  0.0000000000000000e+00 0.0000000000000000e+00 0.0000000000000000e+00  0.0000000000000000e+00 0.0000000000000000e+00 0.0000000000000000e+00  0.0000000000000000e+00 0.0000000000000000e+00 0.0000000000000000e+00  0.0000000000000000e+00 0.0000000000000000e+00 0.0000000000000000e+00  0.0000000000000000e+00 0.0000000000000000e+00 0.0000000000000000e+00  0.0000000000000000e+00 0.0000000000000000e+00 0.0000000000000000e+00  0.0000000000000000e+00 0.0000000000000000e+00 0.0000000000000000e+00  0.0000000000000000e+00 0.0000000000000000e+00 0.0000000000000000e+00  0.0000000000000000e+00 0.0000000000000000e+00 0.0000000000000000e+00  0.0000000000000000e+00 0.0000000000000000e+00 0.0000000000000000e+00  0.0000000000000000e+00 0.0000000000000000e+00 0.0000000000000000e+00  0.0000000000000000e+00 0.0000000000000000e+00 0.0000000000000000e+00  0.0000000000000000e+00 0.0000000000000000e+00 0.0000000000000000e+00  0.0000000000000000e+00 0.0000000000000000e+00 0.0000000000000000e+00  0.0000000000000000e+00 0.0000000000000000e+00 0.0000000000000000e+00  0.0000000000000000e+00 0.0000000000000000e+00 0.0000000000000000e+00  0.0000000000000000e+00 0.0000000000000000e+00 0.0000000000000000e+00  0.0000000000000000e+00 0.0000000000000000e+00 0.0000000000000000e+00  0.0000000000000000e+00 0.0000000000000000e+00 0.0000000000000000e+00  0.0000000000000000e+00 0.0000000000000000e+00 0.0000000000000000e+00  0.0000000000000000e+00 0.0000000000000000e+00 0.0000000000000000e+00  0.0000000000000000e+00 0.0000000000000000e+00 0.0000000000000000e+00  0.0000000000000000e+00 0.0000000000000000e+00 0.0000000000000000e+00  0.0000000000000000e+00 0.0000000000000000e+00 0.0000000000000000e+00  0.0000000000000000e+00 0.0000000000000000e+00 0.0000000000000000e+00  0.0000000000000000e+00 0.0000000000000000e+00 0.0000000000000000e+00  0.0000000000000000e+00 0.0000000000000000e+00 0.0000000000000000e+00  0.0000000000000000e+00 0.0000000000000000e+00 0.0000000000000000e+00  0.0000000000000000e+00 0.0000000000000000e+00 0.0000000000000000e+00  0.0000000000000000e+00 0.0000000000000000e+00 0.0000000000000000e+00  0.0000000000000000e+00 0.0000000000000000e+00 0.0000000000000000e+00  0.0000000000000000e+00 0.0000000000000000e+00 0.0000000000000000e+00  0.0000000000000000e+00 0.0000000000000000e+00 0.0000000000000000e+00  -1.2157545884243151e-11 0.0000000000000000e+00 0.0000000000000000e+00  0.0000000000000000e+00 0.0000000000000000e+00 0.0000000000000000e+00  0.0000000000000000e+00 0.0000000000000000e+00 0.0000000000000000e+00  0.0000000000000000e+00 0.0000000000000000e+00 0.0000000000000000e+00  0.0000000000000000e+00 0.0000000000000000e+00 0.0000000000000000e+00  0.0000000000000000e+00 0.0000000000000000e+00 0.0000000000000000e+00  0.0000000000000000e+00 0.0000000000000000e+00 0.0000000000000000e+00  0.0000000000000000e+00 0.0000000000000000e+00 0.0000000000000000e+00  0.0000000000000000e+00 0.0000000000000000e+00 0.0000000000000000e+00  0.0000000000000000e+00 0.0000000000000000e+00 0.0000000000000000e+00  0.0000000000000000e+00 0.0000000000000000e+00 0.0000000000000000e+00  0.0000000000000000e+00 0.0000000000000000e+00 0.0000000000000000e+00  0.0000000000000000e+00 0.0000000000000000e+00 0.0000000000000000e+00  0.0000000000000000e+00 0.0000000000000000e+00 0.0000000000000000e+00  0.0000000000000000e+00 0.0000000000000000e+00 0.0000000000000000e+00  0.0000000000000000e+00 0.0000000000000000e+00 0.0000000000000000e+00  0.0000000000000000e+00 0.0000000000000000e+00 0.0000000000000000e+00  0.0000000000000000e+00 0.0000000000000000e+00 0.0000000000000000e+00  0.0000000000000000e+00 0.0000000000000000e+00 0.0000000000000000e+00  0.0000000000000000e+00 0.0000000000000000e+00 0.0000000000000000e+00  0.0000000000000000e+00 0.0000000000000000e+00 0.0000000000000000e+00  0.0000000000000000e+00 0.0000000000000000e+00 0.0000000000000000e+00  0.0000000000000000e+00 0.0000000000000000e+00 0.0000000000000000e+00  0.0000000000000000e+00 0.0000000000000000e+00 0.0000000000000000e+00  0.0000000000000000e+00 0.0000000000000000e+00 0.0000000000000000e+00  0.0000000000000000e+00 0.0000000000000000e+00 0.0000000000000000e+00  0.0000000000000000e+00 0.0000000000000000e+00 0.0000000000000000e+00  0.0000000000000000e+00 0.0000000000000000e+00 0.0000000000000000e+00  0.0000000000000000e+00 0.0000000000000000e+00 0.0000000000000000e+00  0.0000000000000000e+00 0.0000000000000000e+00 0.0000000000000000e+00  0.0000000000000000e+00 0.0000000000000000e+00 0.0000000000000000e+00  0.0000000000000000e+00 0.0000000000000000e+00 0.0000000000000000e+00  0.0000000000000000e+00 0.0000000000000000e+00 0.0000000000000000e+00  0.0000000000000000e+00 0.0000000000000000e+00 0.0000000000000000e+00  0.0000000000000000e+00 0.0000000000000000e+00 0.0000000000000000e+00  0.0000000000000000e+00 0.0000000000000000e+00 0.0000000000000000e+00  0.0000000000000000e+00 0.0000000000000000e+00 0.0000000000000000e+00  0.0000000000000000e+00 0.0000000000000000e+00 0.0000000000000000e+00  -1.9142165955522820e-06 1.6498283665066897e-06 0.0000000000000000e+00  -4.0359983680629413e-06 3.8105067258346666e-06 0.0000000000000000e+00  -5.8925303140235665e-06 7.2639222691713753e-06 0.0000000000000000e+00  -7.8538257091421203e-06 1.2077695627409643e-05 0.0000000000000000e+00  -9.4821334048488353e-06 1.7989026962578739e-05 0.0000000000000000e+00  -1.1272981357000611e-05 2.5090238549797024e-05 0.0000000000000000e+00  -1.2711856988141097e-05 3.3045758847891655e-05 0.0000000000000000e+00  -1.4082888136620044e-05 4.2103268679393011e-05 0.0000000000000000e+00  -1.5604944367637775e-05 5.1973176890507991e-05 0.0000000000000000e+00  -1.6769812571344559e-05 6.2662942516656156e-05 0.0000000000000000e+00  -1.8125856018864235e-05 7.4142774327051774e-05 0.0000000000000000e+00  -1.9152837728991854e-05 8.6315482168105602e-05 0.0000000000000000e+00  -2.0303730934073710e-05 9.9143949122319999e-05 0.0000000000000000e+00  -2.1220968550826503e-05 1.1247908385380514e-04 0.0000000000000000e+00  -2.2082648791263748e-05 1.2642076315790235e-04 0.0000000000000000e+00  -2.3002757505552877e-05 1.4079891688421227e-04 0.0000000000000000e+00  -2.3706613233806291e-05 1.5559806643185664e-04 0.0000000000000000e+00  -2.4477825287176092e-05 1.7080104708829241e-04 0.0000000000000000e+00  -2.5058178221533509e-05 1.8632078402460345e-04 0.0000000000000000e+00  -2.5674431216828218e-05 2.0214409385616258e-04 0.0000000000000000e+00  -2.6156503106682933e-05 2.1821173248418976e-04 0.0000000000000000e+00  -2.6627249140421995e-05 2.3451336951992526e-04 0.0000000000000000e+00  -2.6998979147507057e-05 2.5096207481692232e-04 0.0000000000000000e+00  -2.7321557572860995e-05 2.6758384619052390e-04 0.0000000000000000e+00  -2.7629386061019601e-05 2.8431231792395008e-04 0.0000000000000000e+00  -2.7861731835340755e-05 3.0113447673326684e-04 0.0000000000000000e+00  -2.8057789958817861e-05 3.1804467233240277e-04 0.0000000000000000e+00  -2.8208140660306877e-05 3.3498585547944677e-04 0.0000000000000000e+00  -2.8325167280937251e-05 3.5197858553308938e-04 0.0000000000000000e+00  -2.8409293363473093e-05 3.6897514338072077e-04 0.0000000000000000e+00  -2.8465559481838780e-05 3.8599298906416237e-04 0.0000000000000000e+00  -2.8499174567076038e-05 4.0299615894390825e-04 0.0000000000000000e+00  -2.8511890401837563e-05 4.2000053226875155e-04 0.0000000000000000e+00  -2.8509008696278277e-05 4.3698108414282988e-04 0.0000000000000000e+00  -2.8492044046581704e-05 4.5395163938813360e-04 0.0000000000000000e+00  -2.8468621596478126e-05 4.7089759688287935e-04 0.0000000000000000e+00  -2.8436387326619241e-05 4.8782829756071656e-04 0.0000000000000000e+00  -2.8402495756246825e-05 5.0473735789900384e-04 0.0000000000000000e+00  -2.8363492997467888e-05 5.2163156800093952e-04 0.0000000000000000e+00  -2.8326769325011238e-05 5.3851046387130169e-04 0.0000000000000000e+00  -2.8288411205154709e-05 5.5537604746511517e-04 0.0000000000000000e+00  -2.8254166734875334e-05 5.7223416908093526e-04 0.0000000000000000e+00  -2.8222062698011498e-05 5.8908511048550035e-04 0.0000000000000000e+00  -2.8190839513933183e-05 6.0593324593652929e-04 0.0000000000000000e+00  -2.8163050893340989e-05 6.2277954991932477e-04 0.0000000000000000e+00  -2.8137438827727718e-05 6.3962623278721173e-04 0.0000000000000000e+00  -1.6829853852401521e-05 6.5645776553480909e-04 0.0000000000000000e+00  5.7291165956103932e-06 6.5641936403061012e-04 0.0000000000000000e+00  1.6982501119076266e-05 6.3955535531873644e-04 0.0000000000000000e+00  1.6958342709839300e-05 6.2270973077095280e-04 0.0000000000000000e+00  1.6935164382939541e-05 6.0586314813144873e-04 0.0000000000000000e+00  1.6915957837201190e-05 5.8901440991062520e-04 0.0000000000000000e+00  1.6898818821866318e-05 5.7216184880619803e-04 0.0000000000000000e+00  1.6886222493882985e-05 5.5530050152210282e-04 0.0000000000000000e+00  1.6880607652368853e-05 5.3843001307486065e-04 0.0000000000000000e+00  1.6878142157961970e-05 5.2154392694862915e-04 0.0000000000000000e+00  1.6886056385249779e-05 5.0464422190936312e-04 0.0000000000000000e+00  1.6895211498362606e-05 4.8772205376979824e-04 0.0000000000000000e+00  1.6915254656565593e-05 4.7078303207804487e-04 0.0000000000000000e+00  1.6936881336345550e-05 4.5381758153796982e-04 0.0000000000000000e+00  1.6969222431075308e-05 4.3683565796332797e-04 0.0000000000000000e+00  1.7002528645134565e-05 4.1982911089016091e-04 0.0000000000000000e+00  1.7041629013505529e-05 4.0281079134430549e-04 0.0000000000000000e+00  1.7082026425630778e-05 3.8577645856786581e-04 0.0000000000000000e+00  1.7119895642715758e-05 3.6874260848989094e-04 0.0000000000000000e+00  1.7161658844141170e-05 3.5170960694151188e-04 0.0000000000000000e+00  1.7189398260765154e-05 3.3469943358264016e-04 0.0000000000000000e+00  1.7224280808112057e-05 3.1771898653332572e-04 0.0000000000000000e+00  1.7226364548555829e-05 3.0079291630782462e-04 0.0000000000000000e+00  1.7241867864165301e-05 2.8393665118275354e-04 0.0000000000000000e+00  1.7205474544436531e-05 2.6717983528969140e-04 0.0000000000000000e+00  1.7179170112962239e-05 2.5053308433650246e-04 0.0000000000000000e+00  1.7132429261118487e-05 2.3406406175344505e-04 0.0000000000000000e+00  1.7013240580397002e-05 2.1773848325712443e-04 0.0000000000000000e+00  1.6893103895114031e-05 2.0165773521270311e-04 0.0000000000000000e+00  1.6702638759232936e-05 1.8581309577285528e-04 0.0000000000000000e+00  1.6499305759434443e-05 1.7028480828790428e-04 0.0000000000000000e+00  1.6212366684869507e-05 1.5507585913702017e-04 0.0000000000000000e+00  1.5909593374643420e-05 1.4025376415526970e-04 0.0000000000000000e+00  1.5455183375809624e-05 1.2590469716960439e-04 0.0000000000000000e+00  1.5059369918932906e-05 1.1195990499745849e-04 0.0000000000000000e+00  1.4606799335164609e-05 9.8638708920900946e-05 0.0000000000000000e+00  1.3957889950558089e-05 8.5777669598065989e-05 0.0000000000000000e+00  1.3321020887144451e-05 7.3641204530560520e-05 0.0000000000000000e+00  1.2534374650171149e-05 6.2163819779810706e-05 0.0000000000000000e+00  1.1743871784418844e-05 5.1454113266876847e-05 0.0000000000000000e+00  1.0696427431794883e-05 4.1645170149814057e-05 0.0000000000000000e+00  9.7790900288264119e-06 3.2584257415966572e-05 0.0000000000000000e+00  8.7898544581157378e-06 2.4640279402764286e-05 0.0000000000000000e+00  7.4710690807448545e-06 1.7514230747429992e-05 0.0000000000000000e+00  6.2391073445688890e-06 1.1590340252394462e-05 0.0000000000000000e+00  4.6994245872207671e-06 6.8420212100079422e-06 0.0000000000000000e+00  3.2988661268073338e-06 3.3787764693831975e-06 0.0000000000000000e+00  1.5657794876985573e-06 1.2303544330696969e-06 0.0000000000000000e+00  -2.6607893141894853e-07 1.5624765962676496e-06 0.0000000000000000e+00  -5.8751716574602134e-06 6.3113007907218850e-04 0.0000000000000000e+00  -6.0986227144000091e-06 5.9893596014261308e-04 0.0000000000000000e+00  -5.9642099279825257e-06 5.4631092641074775e-04 0.0000000000000000e+00  -6.8479510977388100e-07 8.4870389441315248e-06 0.0000000000000000e+00  -5.7457698852795370e-06 5.1315160039007294e-04 0.0000000000000000e+00  -9.9548398405366458e-07 1.9867484731401503e-05 0.0000000000000000e+00  -5.7667240352966676e-06 4.7932152573059925e-04 0.0000000000000000e+00  -1.6340265913796009e-06 4.6520885560759809e-05 0.0000000000000000e+00  -2.2608665853962751e-06 6.7587342348245200e-05 0.0000000000000000e+00  -5.7641502520372214e-06 4.4540932741966654e-04 0.0000000000000000e+00  -3.1685094728975592e-06 1.3358558989828438e-04 0.0000000000000000e+00  -5.6527416244224140e-06 3.7736614053387145e-04 0.0000000000000000e+00  -2.4865524632647834e-06 9.0929740982394688e-05 0.0000000000000000e+00  -3.8576730114289730e-06 1.6265861962526683e-04 0.0000000000000000e+00  -5.5275269171487942e-06 3.4331864404722441e-04 0.0000000000000000e+00  -5.7289740274336906e-06 4.1141572828756219e-04 0.0000000000000000e+00  -4.2710495266628598e-06 1.9376504269320817e-04 0.0000000000000000e+00  -5.3465406616774057e-06 3.0937072580989754e-04 0.0000000000000000e+00  -4.3473617935493566e-06 2.2464340099219234e-04 0.0000000000000000e+00  -5.4001162128998430e-06 2.7635841604620377e-04 0.0000000000000000e+00  -4.8668887568576338e-06 2.4931354271783029e-04 0.0000000000000000e+00  -3.0854671228105977e-06 1.1076946275634576e-04 0.0000000000000000e+00  -5.6315922035364016e-06 5.7367690715498315e-04 0.0000000000000000e+00  -1.4364356450299044e-06 3.1655882543616591e-05 0.0000000000000000e+00  1.9350990831621997e-06 6.1490536789949451e-04 0.0000000000000000e+00  1.1473583613480029e-06 4.3826473600086660e-06 0.0000000000000000e+00  8.3050243587112772e-07 4.9623028000900064e-04 0.0000000000000000e+00  8.4789490812500864e-07 5.3002619512708762e-04 0.0000000000000000e+00  -3.6232077495296098e-06 1.4042937879662647e-05 0.0000000000000000e+00  -6.1560070543123743e-06 5.6596624696391524e-05 0.0000000000000000e+00  9.2542320958448321e-07 3.9436615902013273e-04 0.0000000000000000e+00  8.3397084598579726e-07 4.6235657832079455e-04 0.0000000000000000e+00  -9.3728782100183493e-06 1.4773044160796100e-04 0.0000000000000000e+00  1.0192101831971972e-06 3.6030255640463250e-04 0.0000000000000000e+00  -7.1659091211624988e-06 7.9580810292478806e-05 0.0000000000000000e+00  -1.0077668093709565e-05 1.7815964503367694e-04 0.0000000000000000e+00  1.1463911284545007e-06 3.2628480254866016e-04 0.0000000000000000e+00  8.6434408008041058e-07 4.2839797817429039e-04 0.0000000000000000e+00  -1.2055312444835570e-05 2.0968036114631846e-04 0.0000000000000000e+00  1.3043564685902346e-06 2.9243203295078107e-04 0.0000000000000000e+00  -3.9978725510371066e-07 4.0408825968147167e-07 0.0000000000000000e+00  1.7725347294261648e-07 2.7543019649697455e-07 0.0000000000000000e+00  -1.1050442682715921e-05 6.4438725765436698e-04 0.0000000000000000e+00  -2.2628068299029946e-06 4.5610893296814947e-06 0.0000000000000000e+00  2.9808805430007619e-06 2.6262981452696460e-04 0.000000000000000