<?xml version="1.0"?>
<VTKFile type="UnstructuredGrid"  version="0.1"  >
<UnstructuredGrid>
<Piece  NumberOfPoints="1419" NumberOfCells="2698">
<Points>
<DataArray  type="Float64"  NumberOfComponents="3"  format="ascii">0 0 0  0 0.41 0  2.5 0 0  2.5 0.41 0  0.6 0.19 0  0.6 0.21 0  0.25 0.2 0  0.15 0.2 0  0.2489897948556636 0.21 0  0.2489897948556636 0.19 0  0.6 0.2 0  0 0.3807142857143437 0  0 0.3514285714286952 0  0 0.3221428571430699 0  0 0.29285714285744 0  0 0.2635714285718054 0  0 0.2342857142861561 0  0 0.2050000000005308 0  0 0.175714285714732 0  0 0.1464285714289574 0  0 0.1171428571431897 0  0 0.08785714285737878 0  0 0.05857142857161107 0  0 0.02928571428580012 0  0.03015443760436003 0 0  0.06140001986583606 0 0  0.09377624077125973 0 0  0.1273239957535082 0 0  0.1620856860351972 0 0  0.1981052433264291 0 0  0.235428184091502 0 0  0.2741016576309132 0 0  0.3141745521465447 0 0  0.3556974926295285 0 0  0.3987229542472677 0 0  0.4433053055141081 0 0  0.4895008759286886 0 0  0.5373680609405097 0 0  0.5869673343216626 0 0  0.6383613676634521 0 0  0.6916151138468254 0 0  0.7467958595648856 0 0  0.8039733463919316 0 0  0.8632198139502143 0 0  0.9246101326867038 0 0  0.9882218810934433 0 0  1.054135445558498 0 0  1.122434100542598 0 0  1.193204177141305 0 0  1.266535089879536 0 0  1.342519516046404 0 0  1.421253448503939 0 0  1.502836389106271 0 0  1.587371439758838 0 0  1.674965418777374 0 0  1.765729001825544 0 0  1.859776908880082 0 0  1.957227977487062 0 0  2.058205329869943 0 0  2.162836591189951 0 0  2.271253957290865 0 0  2.383594446803425 0 0  2.5 0.1024999999997612 0  2.5 0.2049999999994743 0  2.5 0.3074999999997183 0  2.383594446803656 0.41 0  2.271253957291315 0.41 0  2.162836591190598 0.41 0  2.058205329870775 0.41 0  1.957227977488067 0.41 0  1.859776908881246 0.41 0  1.765729001826854 0.41 0  1.674965418778818 0.41 0  1.58737143976041 0.41 0  1.502836389107956 0.41 0  1.421253448505726 0.41 0  1.342519516048286 0.41 0  1.266535089881505 0.41 0  1.193204177143353 0.41 0  1.122434100544716 0.41 0  1.05413544556068 0.41 0  0.9882218810956305 0.41 0  0.9246101326886647 0.41 0  0.8632198139519631 0.41 0  0.8039733463934788 0.41 0  0.7467958595662458 0.41 0  0.6916151138480078 0.41 0  0.6383613676644679 0.41 0  0.5869673343225223 0.41 0  0.5373680609412221 0.41 0  0.4895008759292634 0.41 0  0.4433053055145528 0.41 0  0.3987229542475914 0.41 0  0.3556974926297398 0.41 0  0.3141745521466497 0.41 0  0.2741016576310038 0.41 0  0.2354281840915826 0.41 0  0.1981052433265003 0.41 0  0.1620856860352591 0.41 0  0.1273239957535623 0.41 0  0.09377624077128965 0.41 0  0.06140001986584975 0.41 0  0.03015443760436654 0.41 0  0.2497468076502589 0.2050254481002335 0  0.2497468076502614 0.1949745518997913 0  0.2469965252529372 0.1829317073451959 0  0.2439893735792749 0.1762316384219906 0  0.2400332147834255 0.1700443375285386 0  0.2352133972704371 0.1645032867342007 0  0.2296339016332438 0.1597280261969788 0  0.2234150974217223 0.1558215752574715 0  0.2166911463437691 0.1528682099456123 0  0.2096071079204251 0.1509316448471593 0  0.2023158100364996 0.1500536585536553 0  0.194974551899914 0.1502531923497262 0  0.1877417105387872 0.1515259415822739 0  0.1807733240461124 0.153844448527136 0  0.1742197252835808 0.15715869474974 0  0.1682222986673531 0.1613971801805478 0  0.162910430003803 0.1664684656256651 0  0.1583987151779087 0.1722631454351573 0  0.1547844879126891 0.178656207771761 0  0.1521457199348551 0.1855097315605723 0  0.1505393388476355 0.1926758619366523 0  0.1505393388476328 0.2073241380633295 0  0.1521457199348437 0.2144902684393899 0  0.1547844879126531 0.221343792228163 0  0.1583987151778488 0.2277368545647528 0  0.1629104300036858 0.2335315343742052 0  0.1682222986671726 0.2386028198193036 0  0.1742197252833576 0.2428413052501257 0  0.1807733240458683 0.2461555514727623 0  0.1877417105384929 0.2484740584176516 0  0.1949745518995776 0.2497468076502398 0  0.202315810036185 0.2499463414463592 0  0.2096071079201568 0.2490683551528932 0  0.2166911463435495 0.2471317900544655 0  0.2234150974215506 0.2441784247426195 0  0.2296339016331197 0.2402719738031125 0  0.2352133972703547 0.2354967132658811 0  0.2400332147833751 0.2299556624715287 0  0.2439893735792577 0.2237683615780412 0  0.246996525252926 0.2170682926548348 0  0.25645809709277 0.21 0  0.2639263993298655 0.21 0  0.271394701566961 0.21 0  0.2788630038040554 0.21 0  0.2863313060411479 0.21 0  0.2937996082782405 0.21 0  0.301267910515333 0.21 0  0.3087362127524279 0.21 0  0.3162045149895234 0.21 0  0.3236728172265972 0.21 0  0.3311411194636928 0.21 0  0.3386094217007701 0.21 0  0.3460777239378666 0.21 0  0.3535460261749672 0.21 0  0.3610143284120516 0.21 0  0.3684826306491596 0.21 0  0.3759509328862226 0.21 0  0.383419235123329 0.21 0  0.3908875373604028 0.21 0  0.3983558395975142 0.21 0  0.4058241418345938 0.21 0  0.4132924440716992 0.21 0  0.4207607463087888 0.21 0  0.4282290485459029 0.21 0  0.4356973507830418 0.21 0  0.4431656530201649 0.21 0  0.4506339552573136 0.21 0  0.4581022574944306 0.21 0  0.4655705597315852 0.21 0  0.4730388619686996 0.21 0  0.480507164205851 0.21 0  0.4879754664429498 0.21 0  0.4954437686800938 0.21 0  0.502912070917267 0.21 0  0.5103803731544119 0.21 0  0.5178486753915261 0.21 0  0.5253169776286404 0.21 0  0.5327852798657868 0.21 0  0.5402535821029386 0.21 0  0.54772188434007 0.21 0  0.5551901865771842 0.21 0  0.5626584888143201 0.21 0  0.5701267910514778 0.21 0  0.5775950932886138 0.21 0  0.5850633955257281 0.21 0  0.5925316977628483 0.21 0  0.6 0.2050000000000054 0  0.6 0.1950000000000217 0  0.5925316977628897 0.19 0  0.5850633955257988 0.19 0  0.5775950932887378 0.19 0  0.5701267910515998 0.19 0  0.5626584888145268 0.19 0  0.5551901865773963 0.19 0  0.547721884340339 0.19 0  0.5402535821032429 0.19 0  0.5327852798661811 0.19 0  0.5253169776290537 0.19 0  0.5178486753919799 0.19 0  0.5103803731549078 0.19 0  0.502912070917822 0.19 0  0.4954437686807294 0.19 0  0.4879754664436223 0.19 0  0.4805071642065402 0.19 0  0.4730388619694271 0.19 0  0.4655705597323621 0.19 0  0.4581022574952563 0.19 0  0.4506339552581777 0.19 0  0.4431656530210671 0.19 0  0.4356973507839815 0.19 0  0.4282290485468779 0.19 0  0.4207607463097617 0.19 0  0.4132924440726327 0.19 0  0.4058241418354857 0.19 0  0.3983558395983636 0.19 0  0.3908875373612097 0.19 0  0.3834192351240934 0.19 0  0.3759509328869369 0.19 0  0.3684826306498175 0.19 0  0.361014328412667 0.19 0  0.3535460261755617 0.19 0  0.3460777239384295 0.19 0  0.3386094217012945 0.19 0  0.3311411194641595 0.19 0  0.3236728172270245 0.19 0  0.3162045149898895 0.19 0  0.3087362127527544 0.19 0  0.3012679105156187 0.19 0  0.2937996082784807 0.19 0  0.2863313060413428 0.19 0  0.2788630038042048 0.19 0  0.2713947015670686 0.19 0  0.2639263993299336 0.19 0  0.2564580970927985 0.19 0  0.2607803159922026 0.2000727136295815 0  0.5887803774232762 0.2001272386983733 0  0.5745072403740523 0.2002044435018727 0  0.5511891430099709 0.2001122610077113 0  0.2751288526855082 0.20000000000002 0  0.5365194309847112 0.1999999999999436 0  0.2894621222999649 0.1998691686390484 0  0.5215828265105155 0.1999999999999228 0  0.3127789816668748 0.1998657885438805 0  0.3274069683451451 0.2000000000000796 0  0.5066462220363641 0.199999999999908 0  0.3650630746574081 0.199866017807523 0  0.476773013087985 0.1999999999998713 0  0.3417402379596385 0.1998691686391011 0  0.3796850840047755 0.200000000000134 0  0.4618364086138087 0.1999999999998546 0  0.4917096175621762 0.1999999999998808 0  0.3946216884789568 0.2000000000001512 0  0.446899804139621 0.1999999999998389 0  0.4089549580935208 0.1998691686391595 0  0.4322718174608562 0.200127451265745 0  0.4201487168029707 0.1999966199048527 0  0.3528922713220932 0.2000185703532356 0  0.5633122436674589 0.1999814296467508 0  0.3006558810093873 0.1999966199048318 0  0.5815926498168407 0.1966545283159175 0  0.2677053789419034 0.1964246479135325 0  0.5290511287476175 0.1970915826863981 0  0.5439877332217911 0.197091582686394 0  0.2825131256993216 0.2035478995978015 0  0.3199386661080599 0.202908417313604 0  0.4842413153250809 0.1970915826863873 0  0.5141145242734466 0.1970915826863843 0  0.3722167817676917 0.2029084173136195 0  0.4693047108508938 0.1970915826863783 0  0.3348752705822316 0.202908417313609 0  0.3871533862418661 0.2029084173136212 0  0.4543681063767183 0.1970915826863795 0  0.4991779197992749 0.1970915826863902 0  0.4020059614928624 0.203547899597858 0  0.4394315019025246 0.1970915826863714 0  0.2550657455369551 0.2034088125358657 0  0.2548908499171161 0.1966940311614271 0  0.5946539510196798 0.2024302972968126 0  0.267698176732111 0.2039977513680092 0  0.4261685417851465 0.196409292431739 0  0.3590076176283495 0.196411355804271 0  0.5571672426447437 0.2036011176410121 0  0.3066757059912147 0.1964092924317024 0  0.594380730180568 0.1966558399668133 0  0.4842413153245942 0.2040749161535287 0  0.4693047108503577 0.2040749161535231 0  0.3871533862424271 0.1959250838464788 0  0.372246743208829 0.1959123236376545 0  0.5141145242731028 0.2040749161535395 0  0.4543681063761134 0.2040749161535186 0  0.4019979587101454 0.1959834479682427 0  0.4394608940728603 0.2040870543693135 0  0.5439623148931173 0.2040856076781014 0  0.5290511287473298 0.2040749161535501 0  0.4991779197988497 0.2040749161535382 0  0.3347912413592433 0.1959225448935183 0  0.3199680582793816 0.1959123018030061 0  0.2825051229162361 0.1959834479681729 0  0.3590471196690275 0.2036304442587945 0  0.5571594006495384 0.1963685282145804 0  0.3067669986803285 0.203627750582736 0  0.4262598344738712 0.2036568242185335 0  0.5814408164431408 0.2041285596160068 0  0.5688286748170428 0.1961819304477386 0  0.4145905603063645 0.2038180695522843 0  0.3473758401724931 0.2038180695522752 0  0.2950977245128307 0.2038180695522663 0  0.5688286748170693 0.203818069552238 0  0.2950977245127906 0.1961819304477774 0  0.3473758401723931 0.1961819304478349 0  0.4145905603061963 0.1961819304479011 0  0.2601812407614425 0.2056861609747042
[...]
<PointData  Vectors="f_46-0"> 
<DataArray  type="Float64"  Name="f_46-0"  NumberOfComponents="3" format="ascii">0.0000000000000000e+00 0.0000000000000000e+00 0.0000000000000000e+00  0.0000000000000000e+00 0.0000000000000000e+00 0.0000000000000000e+00  0.0000000000000000e+00 0.0000000000000000e+00 0.0000000000000000e+00  0.0000000000000000e+00 0.0000000000000000e+00 0.0000000000000000e+00  1.4842445041787935e-05 6.1193120565713349e-04 0.0000000000000000e+00  -2.6457114436683190e-05 6.1201397929321305e-04 0.0000000000000000e+00  0.0000000000000000e+00 0.0000000000000000e+00 0.0000000000000000e+00  0.0000000000000000e+00 0.0000000000000000e+00 0.0000000000000000e+00  0.0000000000000000e+00 0.0000000000000000e+00 0.0000000000000000e+00  0.0000000000000000e+00 0.0000000000000000e+00 0.0000000000000000e+00  -5.7996371415681426e-06 6.1197457662770353e-04 0.0000000000000000e+00  7.9591836734548407e-02 0.0000000000000000e+00 0.0000000000000000e+00  1.4693877550994527e-01 0.0000000000000000e+00 0.0000000000000000e+00  2.0204081632617479e-01 0.0000000000000000e+00 0.0000000000000000e+00  2.4489795918330073e-01 0.0000000000000000e+00 0.0000000000000000e+00  2.7551020408131754e-01 0.0000000000000000e+00 0.0000000000000000e+00  2.9387755102022350e-01 0.0000000000000000e+00 0.0000000000000000e+00  3.0000000000000004e-01 0.0000000000000000e+00 0.0000000000000000e+00  2.9387755102059482e-01 0.0000000000000000e+00 0.0000000000000000e+00  2.7551020408195548e-01 0.0000000000000000e+00 0.0000000000000000e+00  2.4489795918409071e-01 0.0000000000000000e+00 0.0000000000000000e+00  2.0204081632692522e-01 0.0000000000000000e+00 0.0000000000000000e+00  1.4693877551058568e-01 0.0000000000000000e+00 0.0000000000000000e+00  7.9591836734909230e-02 0.0000000000000000e+00 0.0000000000000000e+00  0.0000000000000000e+00 0.0000000000000000e+00 0.0000000000000000e+00  0.0000000000000000e+00 0.0000000000000000e+00 0.0000000000000000e+00  0.0000000000000000e+00 0.0000000000000000e+00 0.0000000000000000e+00  0.0000000000000000e+00 0.0000000000000000e+00 0.0000000000000000e+00  0.0000000000000000e+00 0.0000000000000000e+00 0.0000000000000000e+00  0.0000000000000000e+00 0.0000000000000000e+00 0.0000000000000000e+00  0.0000000000000000e+00 0.0000000000000000e+00 0.0000000000000000e+00  0.0000000000000000e+00 0.0000000000000000e+00 0.0000000000000000e+00  0.0000000000000000e+00 0.0000000000000000e+00 0.0000000000000000e+00  0.0000000000000000e+00 0.0000000000000000e+00 0.0000000000000000e+00  0.0000000000000000e+00 0.0000000000000000e+00 0.0000000000000000e+00  0.0000000000000000e+00 0.0000000000000000e+00 0.0000000000000000e+00  0.0000000000000000e+00 0.0000000000000000e+00 0.0000000000000000e+00  0.0000000000000000e+00 0.0000000000000000e+00 0.0000000000000000e+00  0.0000000000000000e+00 0.0000000000000000e+00 0.0000000000000000e+00  0.0000000000000000e+00 0.0000000000000000e+00 0.0000000000000000e+00  0.0000000000000000e+00 0.0000000000000000e+00 0.0000000000000000e+00  0.0000000000000000e+00 0.0000000000000000e+00 0.0000000000000000e+00  0.0000000000000000e+00 0.0000000000000000e+00 0.0000000000000000e+00  0.0000000000000000e+00 0.0000000000000000e+00 0.0000000000000000e+00  0.0000000000000000e+00 0.0000000000000000e+00 0.0000000000000000e+00  0.0000000000000000e+00 0.0000000000000000e+00 0.0000000000000000e+00  0.0000000000000000e+00 0.0000000000000000e+00 0.0000000000000000e+00  0.0000000000000000e+00 0.0000000000000000e+00 0.0000000000000000e+00  0.0000000000000000e+00 0.0000000000000000e+00 0.0000000000000000e+00  0.0000000000000000e+00 0.0000000000000000e+00 0.0000000000000000e+00  0.0000000000000000e+00 0.0000000000000000e+00 0.0000000000000000e+00  0.0000000000000000e+00 0.0000000000000000e+00 0.0000000000000000e+00  0.0000000000000000e+00 0.0000000000000000e+00 0.0000000000000000e+00  0.0000000000000000e+00 0.0000000000000000e+00 0.0000000000000000e+00  0.0000000000000000e+00 0.0000000000000000e+00 0.0000000000000000e+00  0.0000000000000000e+00 0.0000000000000000e+00 0.0000000000000000e+00  0.0000000000000000e+00 0.0000000000000000e+00 0.0000000000000000e+00  0.0000000000000000e+00 0.0000000000000000e+00 0.0000000000000000e+00  0.0000000000000000e+00 0.0000000000000000e+00 0.0000000000000000e+00  0.0000000000000000e+00 0.0000000000000000e+00 0.0000000000000000e+00  0.0000000000000000e+00 0.0000000000000000e+00 0.0000000000000000e+00  0.0000000000000000e+00 0.0000000000000000e+00 0.0000000000000000e+00  2.5435612013492748e-01 3.3767036282799177e-03 0.0000000000000000e+00  2.8957478750887500e-01 8.7707299619125458e-03 0.0000000000000000e+00  2.5198673499214380e-01 -9.4588471330191836e-03 0.0000000000000000e+00  0.0000000000000000e+00 0.0000000000000000e+00 0.0000000000000000e+00  0.0000000000000000e+00 0.0000000000000000e+00 0.0000000000000000e+00  0.0000000000000000e+00 0.0000000000000000e+00 0.0000000000000000e+00  0.0000000000000000e+00 0.0000000000000000e+00 0.0000000000000000e+00  0.0000000000000000e+00 0.0000000000000000e+00 0.0000000000000000e+00  0.0000000000000000e+00 0.0000000000000000e+00 0.0000000000000000e+00  0.0000000000000000e+00 0.0000000000000000e+00 0.0000000000000000e+00  0.0000000000000000e+00 0.0000000000000000e+00 0.0000000000000000e+00  0.0000000000000000e+00 0.0000000000000000e+00 0.0000000000000000e+00  0.0000000000000000e+00 0.0000000000000000e+00 0.0000000000000000e+00  0.0000000000000000e+00 0.0000000000000000e+00 0.0000000000000000e+00  0.0000000000000000e+00 0.0000000000000000e+00 0.0000000000000000e+00  0.0000000000000000e+00 0.0000000000000000e+00 0.0000000000000000e+00  0.0000000000000000e+00 0.0000000000000000e+00 0.0000000000000000e+00  0.0000000000000000e+00 0.0000000000000000e+00 0.0000000000000000e+00  0.0000000000000000e+00 0.0000000000000000e+00 0.0000000000000000e+00  0.0000000000000000e+00 0.0000000000000000e+00 0.0000000000000000e+00  0.0000000000000000e+00 0.0000000000000000e+00 0.0000000000000000e+00  0.0000000000000000e+00 0.0000000000000000e+00 0.0000000000000000e+00  0.0000000000000000e+00 0.0000000000000000e+00 0.0000000000000000e+00  0.0000000000000000e+00 0.0000000000000000e+00 0.0000000000000000e+00  0.0000000000000000e+00 0.0000000000000000e+00 0.0000000000000000e+00  0.0000000000000000e+00 0.0000000000000000e+00 0.0000000000000000e+00  0.0000000000000000e+00 0.0000000000000000e+00 0.0000000000000000e+00  0.0000000000000000e+00 0.0000000000000000e+00 0.0000000000000000e+00  0.0000000000000000e+00 0.0000000000000000e+00 0.0000000000000000e+00  0.0000000000000000e+00 0.0000000000000000e+00 0.0000000000000000e+00  0.0000000000000000e+00 0.0000000000000000e+00 0.0000000000000000e+00  0.0000000000000000e+00 0.0000000000000000e+00 0.0000000000000000e+00  0.0000000000000000e+00 0.0000000000000000e+00 0.0000000000000000e+00  0.0000000000000000e+00 0.0000000000000000e+00 0.0000000000000000e+00  0.0000000000000000e+00 0.0000000000000000e+00 0.0000000000000000e+00  0.0000000000000000e+00 0.0000000000000000e+00 0.0000000000000000e+00  0.0000000000000000e+00 0.0000000000000000e+00 0.0000000000000000e+00  0.0000000000000000e+00 0.0000000000000000e+00 0.0000000000000000e+00  0.0000000000000000e+00 0.0000000000000000e+00 0.0000000000000000e+00  0.0000000000000000e+00 0.0000000000000000e+00 0.0000000000000000e+00  0.0000000000000000e+00 0.0000000000000000e+00 0.0000000000000000e+00  0.0000000000000000e+00 0.0000000000000000e+00 0.0000000000000000e+00  0.0000000000000000e+00 0.0000000000000000e+00 0.0000000000000000e+00  2.5199133410594791e-14 0.0000000000000000e+00 0.0000000000000000e+00  0.0000000000000000e+00 0.0000000000000000e+00 0.0000000000000000e+00  0.0000000000000000e+00 0.0000000000000000e+00 0.0000000000000000e+00  0.0000000000000000e+00 0.0000000000000000e+00 0.0000000000000000e+00  0.0000000000000000e+00 0.0000000000000000e+00 0.0000000000000000e+00  0.0000000000000000e+00 0.0000000000000000e+00 0.0000000000000000e+00  0.0000000000000000e+00 0.0000000000000000e+00 0.0000000000000000e+00  0.0000000000000000e+00 0.0000000000000000e+00 0.0000000000000000e+00  0.0000000000000000e+00 0.0000000000000000e+00 0.0000000000000000e+00  0.0000000000000000e+00 0.0000000000000000e+00 0.0000000000000000e+00  0.0000000000000000e+00 0.0000000000000000e+00 0.0000000000000000e+00  0.0000000000000000e+00 0.0000000000000000e+00 0.0000000000000000e+00  0.0000000000000000e+00 0.0000000000000000e+00 0.0000000000000000e+00  0.0000000000000000e+00 0.0000000000000000e+00 0.0000000000000000e+00  0.0000000000000000e+00 0.0000000000000000e+00 0.0000000000000000e+00  0.0000000000000000e+00 0.0000000000000000e+00 0.0000000000000000e+00  0.0000000000000000e+00 0.0000000000000000e+00 0.0000000000000000e+00  0.0000000000000000e+00 0.0000000000000000e+00 0.0000000000000000e+00  0.0000000000000000e+00 0.0000000000000000e+00 0.0000000000000000e+00  0.0000000000000000e+00 0.0000000000000000e+00 0.0000000000000000e+00  0.0000000000000000e+00 0.0000000000000000e+00 0.0000000000000000e+00  0.0000000000000000e+00 0.0000000000000000e+00 0.0000000000000000e+00  0.0000000000000000e+00 0.0000000000000000e+00 0.0000000000000000e+00  0.0000000000000000e+00 0.0000000000000000e+00 0.0000000000000000e+00  0.0000000000000000e+00 0.0000000000000000e+00 0.0000000000000000e+00  0.0000000000000000e+00 0.0000000000000000e+00 0.0000000000000000e+00  0.0000000000000000e+00 0.0000000000000000e+00 0.0000000000000000e+00  0.0000000000000000e+00 0.0000000000000000e+00 0.0000000000000000e+00  0.0000000000000000e+00 0.0000000000000000e+00 0.0000000000000000e+00  0.0000000000000000e+00 0.0000000000000000e+00 0.0000000000000000e+00  0.0000000000000000e+00 0.0000000000000000e+00 0.0000000000000000e+00  0.0000000000000000e+00 0.0000000000000000e+00 0.0000000000000000e+00  0.0000000000000000e+00 0.0000000000000000e+00 0.0000000000000000e+00  0.0000000000000000e+00 0.0000000000000000e+00 0.0000000000000000e+00  0.0000000000000000e+00 0.0000000000000000e+00 0.0000000000000000e+00  0.0000000000000000e+00 0.0000000000000000e+00 0.0000000000000000e+00  0.0000000000000000e+00 0.0000000000000000e+00 0.0000000000000000e+00  0.0000000000000000e+00 3.3606235550236410e-12 0.0000000000000000e+00  -1.8822177062899934e-06 1.6345239532418471e-06 0.0000000000000000e+00  -3.9620409842180228e-06 3.7484920456498302e-06 0.0000000000000000e+00  -5.7804207734802360e-06 7.1134958387446335e-06 0.0000000000000000e+00  -7.6947816898030300e-06 1.1794414871588924e-05 0.0000000000000000e+00  -9.2834437862469518e-06 1.7530092642848532e-05 0.0000000000000000e+00  -1.1021537412778616e-05 2.4407421527253602e-05 0.0000000000000000e+00  -1.2418519236682381e-05 3.2099398651045733e-05 0.0000000000000000e+00  -1.3745708351066112e-05 4.0837926375799871e-05 0.0000000000000000e+00  -1.5209852616240989e-05 5.0343790529620249e-05 0.0000000000000000e+00  -1.6331370185810469e-05 6.0618009729229888e-05 0.0000000000000000e+00  -1.7624846771269828e-05 7.1630390621319203e-05 0.0000000000000000e+00  -1.8606062643803364e-05 8.3281602216093132e-05 0.0000000000000000e+00  -1.9693618040774709e-05 9.5535199103231582e-05 0.0000000000000000e+00  -2.0561000974656386e-05 1.0824859813972693e-04 0.0000000000000000e+00  -2.1370769111633847e-05 1.2150762800697093e-04 0.0000000000000000e+00  -2.2224816182611384e-05 1.3515509419750028e-04 0.0000000000000000e+00  -2.2878598776382996e-05 1.4916965459260589e-04 0.0000000000000000e+00  -2.3581772474385347e-05 1.6353637575533601e-04 0.0000000000000000e+00  -2.4111862745238721e-05 1.7816756247923592e-04 0.0000000000000000e+00  -2.4662406885694220e-05 1.9305559638815929e-04 0.0000000000000000e+00  -2.5091929867511719e-05 2.0813725727755866e-04 0.0000000000000000e+00  -2.5499919499308584e-05 2.2340582230280130e-04 0.0000000000000000e+00  -2.5822063555802973e-05 2.3878484891082247e-04 0.0000000000000000e+00  -2.6095752704078926e-05 2.5428911007642458e-04 0.0000000000000000e+00  -2.6348074458262322e-05 2.6986792505294990e-04 0.0000000000000000e+00  -2.6534444479939701e-05 2.8550116777596393e-04 0.0000000000000000e+00  -2.6684245419313995e-05 3.0118989846891720e-04 0.0000000000000000e+00  -2.6794487794801176e-05 3.1688078793675243e-04 0.0000000000000000e+00  -2.6872148070585486e-05 3.3259501152922520e-04 0.0000000000000000e+00  -2.6922953253859977e-05 3.4829043680027592e-04 0.0000000000000000e+00  -2.6947310190475524e-05 3.6398432335784151e-04 0.0000000000000000e+00  -2.6954554100074427e-05 3.7964634544911959e-04 0.0000000000000000e+00  -2.6942763517998023e-05 3.9529189487474509e-04 0.0000000000000000e+00  -2.6920091784701387e-05 4.1090124278445853e-04 0.0000000000000000e+00  -2.6885436673433860e-05 4.2648750706382737e-04 0.0000000000000000e+00  -2.6848265282904149e-05 4.4204078150247817e-04 0.0000000000000000e+00  -2.6804211436033981e-05 4.5756960702167669e-04 0.0000000000000000e+00  -2.6761567526111243e-05 4.7307148130956364e-04 0.0000000000000000e+00  -2.6715522662336162e-05 4.8855245635558294e-04 0.0000000000000000e+00  -2.6673983990017028e-05 5.0401501614040685e-04 0.0000000000000000e+00  -2.6632040003326015e-05 5.1946044754363823e-04 0.0000000000000000e+00  -2.6595829351023145e-05 5.3489692032601319e-04 0.0000000000000000e+00  -2.6562787762195300e-05 5.5032417555288412e-04 0.0000000000000000e+00  -2.6530977275129347e-05 5.6574768849499367e-04 0.0000000000000000e+00  -2.6503380702138163e-05 5.8116848507162562e-04 0.0000000000000000e+00  -2.6478613142130099e-05 5.9658923612991663e-04 0.0000000000000000e+00  -1.6125820608358194e-05 6.1199473937462970e-04 0.0000000000000000e+00  4.5235480198119181e-06 6.1195427130922666e-04 0.0000000000000000e+00  1.4822454925612710e-05 5.9651668152967781e-04 0.0000000000000000e+00  1.4800470277203265e-05 5.8109704264820000e-04 0.0000000000000000e+00  1.4779357968672728e-05 5.6567598175290387e-04 0.0000000000000000e+00  1.4762935033460969e-05 5.5025215678694496e-04 0.0000000000000000e+00  1.4748613068475768e-05 5.3482373837161182e-04 0.0000000000000000e+00  1.4739328751951045e-05 5.1938477840974542e-04 0.0000000000000000e+00  1.4738438275371472e-05 5.0393489938565074e-04 0.0000000000000000e+00  1.4740389803313696e-05 4.8846638626420769e-04 0.0000000000000000e+00  1.4755347801042270e-05 4.7298049895486458e-04 0.0000000000000000e+00  1.4770786573998410e-05 4.5746688750788886e-04 0.0000000000000000e+00  1.4801058135862536e-05 4.4193027783172669e-04 0.0000000000000000e+00  1.4831667233330725e-05 4.2635887802604467e-04 0.0000000000000000e+00  1.4878608061744830e-05 4.1076160092980802e-04 0.0000000000000000e+00  1.4924634389747339e-05 3.9512732509465828e-04 0.0000000000000000e+00  1.4984072635334593e-05 3.7946786431002251e-04 0.0000000000000000e+00  1.5041984893917265e-05 3.6377522594075823e-04 0.0000000000000000e+00  1.5107151924367731e-05 3.4806492865575042e-04 0.0000000000000000e+00  1.5172325054347864e-05 3.3233273110455116e-04 0.0000000000000000e+00  1.5235751544369744e-05 3.1660003669239310e-04 0.0000000000000000e+00  1.5301077877060752e-05 3.0086849474380374e-04 0.0000000000000000e+00  1.5348503113385740e-05 2.8516226837718803e-04 0.0000000000000000e+00  1.5402597725119589e-05 2.6949102358507379e-04 0.0000000000000000e+00  1.5421026221289961e-05 2.5388351631856423e-04 0.0000000000000000e+00  1.5443859125350265e-05 2.3835026819209724e-04 0.0000000000000000e+00  1.5450134456241069e-05 2.2294715738142802e-04 0.0000000000000000e+00  1.5397758792577730e-05 2.0765246919643733e-04 0.0000000000000000e+00  1.5341235772092968e-05 1.9255109117473739e-04 0.0000000000000000e+00  1.5223958917013211e-05 1.7764140681125192e-04 0.0000000000000000e+00  1.5092031496469970e-05 1.6299596155737101e-04 0.0000000000000000e+00  1.4884565315413432e-05 1.4862111974358211e-04 0.0000000000000000e+00  1.4658894432596238e-05 1.3458155715272165e-04 0.0000000000000000e+00  1.4293675725503631e-05 1.2095761132445512e-04 0.0000000000000000e+00  1.3975954708452874e-05 1.0769387179945172e-04 0.0000000000000000e+00  1.3601808916767563e-05 9.4992035334795800e-05 0.0000000000000000e+00  1.3044261068707502e-05 8.2708101040262171e-05 0.0000000000000000e+00  1.2490339008707737e-05 7.1090310748252256e-05 0.0000000000000000e+00  1.1791677208168499e-05 6.0080679743669291e-05 0.0000000000000000e+00  1.1082740082763585e-05 4.9788765514657359e-05 0.0000000000000000e+00  1.0124779278348629e-05 4.0341524387236994e-05 0.0000000000000000e+00  9.2838816385176293e-06 3.1601541621954763e-05 0.0000000000000000e+00  8.3683206934842839e-06 2.3922183304772297e-05 0.0000000000000000e+00  7.1326806890064324e-06 1.7022651116899357e-05 0.0000000000000000e+00  5.9728124554823528e-06 1.1275923813645861e-05 0.0000000000000000e+00  4.5097853352490805e-06 6.6587794987819296e-06 0.0000000000000000e+00  3.1746538798438578e-06 3.2861389793335724e-06 0.0000000000000000e+00  1.5095968078999883e-06 1.1875538835468999e-06 0.0000000000000000e+00  -2.8238821106932027e-07 1.5378043854005518e-06 0.0000000000000000e+00  -6.0999615772487616e-06 5.8880889345112267e-04 0.0000000000000000e+00  -6.3070490370806568e-06 5.5933961222013381e-04 0.0000000000000000e+00  -6.1880868877827563e-06 5.1115857494586430e-04 0.0000000000000000e+00  -7.3153760046109628e-07 8.2878856379270329e-06 0.0000000000000000e+00  -5.9910391494991586e-06 4.8078386555196916e-04 0.0000000000000000e+00  -1.0751140958778419e-06 1.9334640574672345e-05 0.0000000000000000e+00  -6.0137435518402031e-06 4.4977164409636426e-04 0.0000000000000000e+00  -1.7665379602737142e-06 4.5079023548029459e-05 0.0000000000000000e+00  -2.4182644129282086e-06 6.5329117106074252e-05 0.0000000000000000e+00  -6.0147477935458173e-06 4.1864886850342497e-04 0.0000000000000000e+00  -3.4117422429586706e-06 1.2830185115885698e-04 0.0000000000000000e+00  -5.9150155392444552e-06 3.5603898173794526e-04 0.0000000000000000e+00  -2.6838805669664056e-06 8.7678419665049127e-05 0.0000000000000000e+00  -4.1080470104282662e-06 1.5583856953474683e-04 0.0000000000000000e+00  -5.7965007314317324e-06 3.2459755777721519e-04 0.0000000000000000e+00  -5.9848216016452796e-06 3.8740201723848328e-04 0.0000000000000000e+00  -4.5366690374444131e-06 1.8517248619650116e-04 0.0000000000000000e+00  -5.6213529718766705e-06 2.9315278021883195e-04 0.0000000000000000e+00  -4.6400062495850149e-06 2.1416624072854466e-04 0.0000000000000000e+00  -5.6586020410417126e-06 2.6246972685634110e-04 0.0000000000000000e+00  -5.1445998377756636e-06 2.3724249828105772e-04 0.0000000000000000e+00  -3.2924580975826593e-06 1.0660285566981302e-04 0.0000000000000000e+00  -5.8812915440991111e-06 5.3621555413976135e-04 0.0000000000000000e+00  -1.5364553592815501e-06 3.0737866991101166e-05 0.0000000000000000e+00  1.0483619257649106e-06 5.7395627833372665e-04 0.0000000000000000e+00  1.0701259028855688e-06 4.2820648610106561e-06 0.0000000000000000e+00  3.7373243448152805e-08 4.6527408418717031e-04 0.0000000000000000e+00  5.1810514477627179e-08 4.9624216853026693e-04 0.0000000000000000e+00  -3.6001879495900572e-06 1.3693333097757496e-05 0.0000000000000000e+00  -6.1336988011534871e-06 5.4780890232796450e-05 0.0000000000000000e+00  1.4615612858992509e-07 3.7170383019304368e-04 0.0000000000000000e+00  4.4193410934829900e-08 4.3420557032182282e-04 0.0000000000000000e+00  -9.3085341534753790e-06 1.4171979063993113e-04 0.0000000000000000e+00  2.4919436534678601e-07 3.4028870399385546e-04 0.0000000000000000e+00  -7.1372325955989520e-06 7.6830215731748906e-05 0.0000000000000000e+00  -9.9930976641345792e-06 1.7047711947670814e-04 0.0000000000000000e+00  3.9015826368417524e-07 3.0882776904803014e-04 0.0000000000000000e+00  7.8877118004712948e-08 4.0301693109180567e-04 0.0000000000000000e+00  -1.1862780561678491e-05 2.0013624694303821e-04 0.0000000000000000e+00  5.6739263065372268e-07 2.7741699801259184e-04 0.0000000000000000e+00  -3.9797727978733872e-07 4.0576966444084540e-07 0.0000000000000000e+00  1.6392929016419679e-07 2.7094899716133610e-07 0.0000000000000000e+00  -1.0836113607658060e-05 6.0094451037418905e-04 0.0000000000000000e+00  -2.2435226210955339e-06 4.4727804551039010e-06 0.0000000000000000e+00  2.1653028828704669e-06 2.4966661837701691e-04 0.0000000000000000