<?xml version="1.0"?>
<VTKFile type="UnstructuredGrid"  version="0.1"  >
<UnstructuredGrid>
<Piece  NumberOfPoints="1419" NumberOfCells="2698">
<Points>
<DataArray  type="Float64"  NumberOfComponents="3"  format="ascii">0 0 0  0 0.41 0  2.5 0 0  2.5 0.41 0  0.6 0.19 0  0.6 0.21 0  0.25 0.2 0  0.15 0.2 0  0.2489897948556636 0.21 0  0.2489897948556636 0.19 0  0.6 0.2 0  0 0.3807142857143437 0  0 0.3514285714286952 0  0 0.3221428571430699 0  0 0.29285714285744 0  0 0.2635714285718054 0  0 0.2342857142861561 0  0 0.2050000000005308 0  0 0.175714285714732 0  0 0.1464285714289574 0  0 0.1171428571431897 0  0 0.08785714285737878 0  0 0.05857142857161107 0  0 0.02928571428580012 0  0.03015443760436003 0 0  0.06140001986583606 0 0  0.09377624077125973 0 0  0.1273239957535082 0 0  0.1620856860351972 0 0  0.1981052433264291 0 0  0.235428184091502 0 0  0.2741016576309132 0 0  0.3141745521465447 0 0  0.3556974926295285 0 0  0.3987229542472677 0 0  0.4433053055141081 0 0  0.4895008759286886 0 0  0.5373680609405097 0 0  0.5869673343216626 0 0  0.6383613676634521 0 0  0.6916151138468254 0 0  0.7467958595648856 0 0  0.8039733463919316 0 0  0.8632198139502143 0 0  0.9246101326867038 0 0  0.9882218810934433 0 0  1.054135445558498 0 0  1.122434100542598 0 0  1.193204177141305 0 0  1.266535089879536 0 0  1.342519516046404 0 0  1.421253448503939 0 0  1.502836389106271 0 0  1.587371439758838 0 0  1.674965418777374 0 0  1.765729001825544 0 0  1.859776908880082 0 0  1.957227977487062 0 0  2.058205329869943 0 0  2.162836591189951 0 0  2.271253957290865 0 0  2.383594446803425 0 0  2.5 0.1024999999997612 0  2.5 0.2049999999994743 0  2.5 0.3074999999997183 0  2.383594446803656 0.41 0  2.271253957291315 0.41 0  2.162836591190598 0.41 0  2.058205329870775 0.41 0  1.957227977488067 0.41 0  1.859776908881246 0.41 0  1.765729001826854 0.41 0  1.674965418778818 0.41 0  1.58737143976041 0.41 0  1.502836389107956 0.41 0  1.421253448505726 0.41 0  1.342519516048286 0.41 0  1.266535089881505 0.41 0  1.193204177143353 0.41 0  1.122434100544716 0.41 0  1.05413544556068 0.41 0  0.9882218810956305 0.41 0  0.9246101326886647 0.41 0  0.8632198139519631 0.41 0  0.8039733463934788 0.41 0  0.7467958595662458 0.41 0  0.6916151138480078 0.41 0  0.6383613676644679 0.41 0  0.5869673343225223 0.41 0  0.5373680609412221 0.41 0  0.4895008759292634 0.41 0  0.4433053055145528 0.41 0  0.3987229542475914 0.41 0  0.3556974926297398 0.41 0  0.3141745521466497 0.41 0  0.2741016576310038 0.41 0  0.2354281840915826 0.41 0  0.1981052433265003 0.41 0  0.1620856860352591 0.41 0  0.1273239957535623 0.41 0  0.09377624077128965 0.41 0  0.06140001986584975 0.41 0  0.03015443760436654 0.41 0  0.2497468076502589 0.2050254481002335 0  0.2497468076502614 0.1949745518997913 0  0.2469965252529372 0.1829317073451959 0  0.2439893735792749 0.1762316384219906 0  0.2400332147834255 0.1700443375285386 0  0.2352133972704371 0.1645032867342007 0  0.2296339016332438 0.1597280261969788 0  0.2234150974217223 0.1558215752574715 0  0.2166911463437691 0.1528682099456123 0  0.2096071079204251 0.1509316448471593 0  0.2023158100364996 0.1500536585536553 0  0.194974551899914 0.1502531923497262 0  0.1877417105387872 0.1515259415822739 0  0.1807733240461124 0.153844448527136 0  0.1742197252835808 0.15715869474974 0  0.1682222986673531 0.1613971801805478 0  0.162910430003803 0.1664684656256651 0  0.1583987151779087 0.1722631454351573 0  0.1547844879126891 0.178656207771761 0  0.1521457199348551 0.1855097315605723 0  0.1505393388476355 0.1926758619366523 0  0.1505393388476328 0.2073241380633295 0  0.1521457199348437 0.2144902684393899 0  0.1547844879126531 0.221343792228163 0  0.1583987151778488 0.2277368545647528 0  0.1629104300036858 0.2335315343742052 0  0.1682222986671726 0.2386028198193036 0  0.1742197252833576 0.2428413052501257 0  0.1807733240458683 0.2461555514727623 0  0.1877417105384929 0.2484740584176516 0  0.1949745518995776 0.2497468076502398 0  0.202315810036185 0.2499463414463592 0  0.2096071079201568 0.2490683551528932 0  0.2166911463435495 0.2471317900544655 0  0.2234150974215506 0.2441784247426195 0  0.2296339016331197 0.2402719738031125 0  0.2352133972703547 0.2354967132658811 0  0.2400332147833751 0.2299556624715287 0  0.2439893735792577 0.2237683615780412 0  0.246996525252926 0.2170682926548348 0  0.25645809709277 0.21 0  0.2639263993298655 0.21 0  0.271394701566961 0.21 0  0.2788630038040554 0.21 0  0.2863313060411479 0.21 0  0.2937996082782405 0.21 0  0.301267910515333 0.21 0  0.3087362127524279 0.21 0  0.3162045149895234 0.21 0  0.3236728172265972 0.21 0  0.3311411194636928 0.21 0  0.3386094217007701 0.21 0  0.3460777239378666 0.21 0  0.3535460261749672 0.21 0  0.3610143284120516 0.21 0  0.3684826306491596 0.21 0  0.3759509328862226 0.21 0  0.383419235123329 0.21 0  0.3908875373604028 0.21 0  0.3983558395975142 0.21 0  0.4058241418345938 0.21 0  0.4132924440716992 0.21 0  0.4207607463087888 0.21 0  0.4282290485459029 0.21 0  0.4356973507830418 0.21 0  0.4431656530201649 0.21 0  0.4506339552573136 0.21 0  0.4581022574944306 0.21 0  0.4655705597315852 0.21 0  0.4730388619686996 0.21 0  0.480507164205851 0.21 0  0.4879754664429498 0.21 0  0.4954437686800938 0.21 0  0.502912070917267 0.21 0  0.5103803731544119 0.21 0  0.5178486753915261 0.21 0  0.5253169776286404 0.21 0  0.5327852798657868 0.21 0  0.5402535821029386 0.21 0  0.54772188434007 0.21 0  0.5551901865771842 0.21 0  0.5626584888143201 0.21 0  0.5701267910514778 0.21 0  0.5775950932886138 0.21 0  0.5850633955257281 0.21 0  0.5925316977628483 0.21 0  0.6 0.2050000000000054 0  0.6 0.1950000000000217 0  0.5925316977628897 0.19 0  0.5850633955257988 0.19 0  0.5775950932887378 0.19 0  0.5701267910515998 0.19 0  0.5626584888145268 0.19 0  0.5551901865773963 0.19 0  0.547721884340339 0.19 0  0.5402535821032429 0.19 0  0.5327852798661811 0.19 0  0.5253169776290537 0.19 0  0.5178486753919799 0.19 0  0.5103803731549078 0.19 0  0.502912070917822 0.19 0  0.4954437686807294 0.19 0  0.4879754664436223 0.19 0  0.4805071642065402 0.19 0  0.4730388619694271 0.19 0  0.4655705597323621 0.19 0  0.4581022574952563 0.19 0  0.4506339552581777 0.19 0  0.4431656530210671 0.19 0  0.4356973507839815 0.19 0  0.4282290485468779 0.19 0  0.4207607463097617 0.19 0  0.4132924440726327 0.19 0  0.4058241418354857 0.19 0  0.3983558395983636 0.19 0  0.3908875373612097 0.19 0  0.3834192351240934 0.19 0  0.3759509328869369 0.19 0  0.3684826306498175 0.19 0  0.361014328412667 0.19 0  0.3535460261755617 0.19 0  0.3460777239384295 0.19 0  0.3386094217012945 0.19 0  0.3311411194641595 0.19 0  0.3236728172270245 0.19 0  0.3162045149898895 0.19 0  0.3087362127527544 0.19 0  0.3012679105156187 0.19 0  0.2937996082784807 0.19 0  0.2863313060413428 0.19 0  0.2788630038042048 0.19 0  0.2713947015670686 0.19 0  0.2639263993299336 0.19 0  0.2564580970927985 0.19 0  0.2607803159922026 0.2000727136295815 0  0.5887803774232762 0.2001272386983733 0  0.5745072403740523 0.2002044435018727 0  0.5511891430099709 0.2001122610077113 0  0.2751288526855082 0.20000000000002 0  0.5365194309847112 0.1999999999999436 0  0.2894621222999649 0.1998691686390484 0  0.5215828265105155 0.1999999999999228 0  0.3127789816668748 0.1998657885438805 0  0.3274069683451451 0.2000000000000796 0  0.5066462220363641 0.199999999999908 0  0.3650630746574081 0.199866017807523 0  0.476773013087985 0.1999999999998713 0  0.3417402379596385 0.1998691686391011 0  0.3796850840047755 0.200000000000134 0  0.4618364086138087 0.1999999999998546 0  0.4917096175621762 0.1999999999998808 0  0.3946216884789568 0.2000000000001512 0  0.446899804139621 0.1999999999998389 0  0.4089549580935208 0.1998691686391595 0  0.4322718174608562 0.200127451265745 0  0.4201487168029707 0.1999966199048527 0  0.3528922713220932 0.2000185703532356 0  0.5633122436674589 0.1999814296467508 0  0.3006558810093873 0.1999966199048318 0  0.5815926498168407 0.1966545283159175 0  0.2677053789419034 0.1964246479135325 0  0.5290511287476175 0.1970915826863981 0  0.5439877332217911 0.197091582686394 0  0.2825131256993216 0.2035478995978015 0  0.3199386661080599 0.202908417313604 0  0.4842413153250809 0.1970915826863873 0  0.5141145242734466 0.1970915826863843 0  0.3722167817676917 0.2029084173136195 0  0.4693047108508938 0.1970915826863783 0  0.3348752705822316 0.202908417313609 0  0.3871533862418661 0.2029084173136212 0  0.4543681063767183 0.1970915826863795 0  0.4991779197992749 0.1970915826863902 0  0.4020059614928624 0.203547899597858 0  0.4394315019025246 0.1970915826863714 0  0.2550657455369551 0.2034088125358657 0  0.2548908499171161 0.1966940311614271 0  0.5946539510196798 0.2024302972968126 0  0.267698176732111 0.2039977513680092 0  0.4261685417851465 0.196409292431739 0  0.3590076176283495 0.196411355804271 0  0.5571672426447437 0.2036011176410121 0  0.3066757059912147 0.1964092924317024 0  0.594380730180568 0.1966558399668133 0  0.4842413153245942 0.2040749161535287 0  0.4693047108503577 0.2040749161535231 0  0.3871533862424271 0.1959250838464788 0  0.372246743208829 0.1959123236376545 0  0.5141145242731028 0.2040749161535395 0  0.4543681063761134 0.2040749161535186 0  0.4019979587101454 0.1959834479682427 0  0.4394608940728603 0.2040870543693135 0  0.5439623148931173 0.2040856076781014 0  0.5290511287473298 0.2040749161535501 0  0.4991779197988497 0.2040749161535382 0  0.3347912413592433 0.1959225448935183 0  0.3199680582793816 0.1959123018030061 0  0.2825051229162361 0.1959834479681729 0  0.3590471196690275 0.2036304442587945 0  0.5571594006495384 0.1963685282145804 0  0.3067669986803285 0.203627750582736 0  0.4262598344738712 0.2036568242185335 0  0.5814408164431408 0.2041285596160068 0  0.5688286748170428 0.1961819304477386 0  0.4145905603063645 0.2038180695522843 0  0.3473758401724931 0.2038180695522752 0  0.2950977245128307 0.2038180695522663 0  0.5688286748170693 0.203818069552238 0  0.2950977245127906 0.1961819304477774 0  0.3473758401723931 0.1961819304478349 0  0.4145905603061963 0.1961819304479011 0  0.2601812407614425 0.2056861609747042
[...]
<PointData  Vectors="f_46-0"> 
<DataArray  type="Float64"  Name="f_46-0"  NumberOfComponents="3" format="ascii">0.0000000000000000e+00 0.0000000000000000e+00 0.0000000000000000e+00  0.0000000000000000e+00 0.0000000000000000e+00 0.0000000000000000e+00  0.0000000000000000e+00 0.0000000000000000e+00 0.0000000000000000e+00  0.0000000000000000e+00 0.0000000000000000e+00 0.0000000000000000e+00  4.4385874960942169e-06 3.9694602077729017e-04 0.0000000000000000e+00  -1.9172238304840869e-05 3.9705199272208785e-04 0.0000000000000000e+00  0.0000000000000000e+00 0.0000000000000000e+00 0.0000000000000000e+00  0.0000000000000000e+00 0.0000000000000000e+00 0.0000000000000000e+00  0.0000000000000000e+00 0.0000000000000000e+00 0.0000000000000000e+00  0.0000000000000000e+00 0.0000000000000000e+00 0.0000000000000000e+00  -7.3424452000484789e-06 3.9700289648616582e-04 0.0000000000000000e+00  7.9591836734548407e-02 0.0000000000000000e+00 0.0000000000000000e+00  1.4693877550994527e-01 0.0000000000000000e+00 0.0000000000000000e+00  2.0204081632617479e-01 0.0000000000000000e+00 0.0000000000000000e+00  2.4489795918330076e-01 0.0000000000000000e+00 0.0000000000000000e+00  2.7551020408131754e-01 0.0000000000000000e+00 0.0000000000000000e+00  2.9387755102022350e-01 0.0000000000000000e+00 0.0000000000000000e+00  3.0000000000000004e-01 0.0000000000000000e+00 0.0000000000000000e+00  2.9387755102059482e-01 0.0000000000000000e+00 0.0000000000000000e+00  2.7551020408195548e-01 0.0000000000000000e+00 0.0000000000000000e+00  2.4489795918409069e-01 0.0000000000000000e+00 0.0000000000000000e+00  2.0204081632692522e-01 0.0000000000000000e+00 0.0000000000000000e+00  1.4693877551058568e-01 0.0000000000000000e+00 0.0000000000000000e+00  7.9591836734909230e-02 0.0000000000000000e+00 0.0000000000000000e+00  0.0000000000000000e+00 0.0000000000000000e+00 0.0000000000000000e+00  0.0000000000000000e+00 0.0000000000000000e+00 0.0000000000000000e+00  0.0000000000000000e+00 0.0000000000000000e+00 0.0000000000000000e+00  0.0000000000000000e+00 0.0000000000000000e+00 0.0000000000000000e+00  0.0000000000000000e+00 0.0000000000000000e+00 0.0000000000000000e+00  0.0000000000000000e+00 0.0000000000000000e+00 0.0000000000000000e+00  0.0000000000000000e+00 0.0000000000000000e+00 0.0000000000000000e+00  0.0000000000000000e+00 0.0000000000000000e+00 0.0000000000000000e+00  0.0000000000000000e+00 0.0000000000000000e+00 0.0000000000000000e+00  0.0000000000000000e+00 0.0000000000000000e+00 0.0000000000000000e+00  0.0000000000000000e+00 0.0000000000000000e+00 0.0000000000000000e+00  0.0000000000000000e+00 0.0000000000000000e+00 0.0000000000000000e+00  0.0000000000000000e+00 0.0000000000000000e+00 0.0000000000000000e+00  0.0000000000000000e+00 0.0000000000000000e+00 0.0000000000000000e+00  0.0000000000000000e+00 0.0000000000000000e+00 0.0000000000000000e+00  0.0000000000000000e+00 0.0000000000000000e+00 0.0000000000000000e+00  0.0000000000000000e+00 0.0000000000000000e+00 0.0000000000000000e+00  0.0000000000000000e+00 0.0000000000000000e+00 0.0000000000000000e+00  0.0000000000000000e+00 0.0000000000000000e+00 0.0000000000000000e+00  0.0000000000000000e+00 0.0000000000000000e+00 0.0000000000000000e+00  0.0000000000000000e+00 0.0000000000000000e+00 0.0000000000000000e+00  0.0000000000000000e+00 0.0000000000000000e+00 0.0000000000000000e+00  0.0000000000000000e+00 0.0000000000000000e+00 0.0000000000000000e+00  0.0000000000000000e+00 0.0000000000000000e+00 0.0000000000000000e+00  0.0000000000000000e+00 0.0000000000000000e+00 0.0000000000000000e+00  0.0000000000000000e+00 0.0000000000000000e+00 0.0000000000000000e+00  0.0000000000000000e+00 0.0000000000000000e+00 0.0000000000000000e+00  0.0000000000000000e+00 0.0000000000000000e+00 0.0000000000000000e+00  0.0000000000000000e+00 0.0000000000000000e+00 0.0000000000000000e+00  0.0000000000000000e+00 0.0000000000000000e+00 0.0000000000000000e+00  0.0000000000000000e+00 0.0000000000000000e+00 0.0000000000000000e+00  0.0000000000000000e+00 0.0000000000000000e+00 0.0000000000000000e+00  0.0000000000000000e+00 0.0000000000000000e+00 0.0000000000000000e+00  0.0000000000000000e+00 0.0000000000000000e+00 0.0000000000000000e+00  0.0000000000000000e+00 0.0000000000000000e+00 0.0000000000000000e+00  0.0000000000000000e+00 0.0000000000000000e+00 0.0000000000000000e+00  0.0000000000000000e+00 0.0000000000000000e+00 0.0000000000000000e+00  0.0000000000000000e+00 0.0000000000000000e+00 0.0000000000000000e+00  2.5629194372456332e-01 4.1410126255920811e-03 0.0000000000000000e+00  2.8325455666527416e-01 9.8579090536329208e-03 0.0000000000000000e+00  2.5637178107362291e-01 -1.0231314943970388e-02 0.0000000000000000e+00  0.0000000000000000e+00 0.0000000000000000e+00 0.0000000000000000e+00  0.0000000000000000e+00 0.0000000000000000e+00 0.0000000000000000e+00  0.0000000000000000e+00 0.0000000000000000e+00 0.0000000000000000e+00  0.0000000000000000e+00 0.0000000000000000e+00 0.0000000000000000e+00  0.0000000000000000e+00 0.0000000000000000e+00 0.0000000000000000e+00  0.0000000000000000e+00 0.0000000000000000e+00 0.0000000000000000e+00  0.0000000000000000e+00 0.0000000000000000e+00 0.0000000000000000e+00  0.0000000000000000e+00 0.0000000000000000e+00 0.0000000000000000e+00  0.0000000000000000e+00 0.0000000000000000e+00 0.0000000000000000e+00  0.0000000000000000e+00 0.0000000000000000e+00 0.0000000000000000e+00  0.0000000000000000e+00 0.0000000000000000e+00 0.0000000000000000e+00  0.0000000000000000e+00 0.0000000000000000e+00 0.0000000000000000e+00  0.0000000000000000e+00 0.0000000000000000e+00 0.0000000000000000e+00  0.0000000000000000e+00 0.0000000000000000e+00 0.0000000000000000e+00  0.0000000000000000e+00 0.0000000000000000e+00 0.0000000000000000e+00  0.0000000000000000e+00 0.0000000000000000e+00 0.0000000000000000e+00  0.0000000000000000e+00 0.0000000000000000e+00 0.0000000000000000e+00  0.0000000000000000e+00 0.0000000000000000e+00 0.0000000000000000e+00  0.0000000000000000e+00 0.0000000000000000e+00 0.0000000000000000e+00  0.0000000000000000e+00 0.0000000000000000e+00 0.0000000000000000e+00  0.0000000000000000e+00 0.0000000000000000e+00 0.0000000000000000e+00  0.0000000000000000e+00 0.0000000000000000e+00 0.0000000000000000e+00  0.0000000000000000e+00 0.0000000000000000e+00 0.0000000000000000e+00  0.0000000000000000e+00 0.0000000000000000e+00 0.0000000000000000e+00  0.0000000000000000e+00 0.0000000000000000e+00 0.0000000000000000e+00  0.0000000000000000e+00 0.0000000000000000e+00 0.0000000000000000e+00  0.0000000000000000e+00 0.0000000000000000e+00 0.0000000000000000e+00  0.0000000000000000e+00 0.0000000000000000e+00 0.0000000000000000e+00  0.0000000000000000e+00 0.0000000000000000e+00 0.0000000000000000e+00  0.0000000000000000e+00 0.0000000000000000e+00 0.0000000000000000e+00  0.0000000000000000e+00 0.0000000000000000e+00 0.0000000000000000e+00  0.0000000000000000e+00 0.0000000000000000e+00 0.0000000000000000e+00  0.0000000000000000e+00 0.0000000000000000e+00 0.0000000000000000e+00  0.0000000000000000e+00 0.0000000000000000e+00 0.0000000000000000e+00  0.0000000000000000e+00 0.0000000000000000e+00 0.0000000000000000e+00  0.0000000000000000e+00 0.0000000000000000e+00 0.0000000000000000e+00  0.0000000000000000e+00 0.0000000000000000e+00 0.0000000000000000e+00  0.0000000000000000e+00 0.0000000000000000e+00 0.0000000000000000e+00  0.0000000000000000e+00 0.0000000000000000e+00 0.0000000000000000e+00  0.0000000000000000e+00 0.0000000000000000e+00 0.0000000000000000e+00  2.8851532951358438e-16 0.0000000000000000e+00 0.0000000000000000e+00  0.0000000000000000e+00 0.0000000000000000e+00 0.0000000000000000e+00  0.0000000000000000e+00 0.0000000000000000e+00 0.0000000000000000e+00  0.0000000000000000e+00 0.0000000000000000e+00 0.0000000000000000e+00  0.0000000000000000e+00 0.0000000000000000e+00 0.0000000000000000e+00  0.0000000000000000e+00 0.0000000000000000e+00 0.0000000000000000e+00  0.0000000000000000e+00 0.0000000000000000e+00 0.0000000000000000e+00  0.0000000000000000e+00 0.0000000000000000e+00 0.0000000000000000e+00  0.0000000000000000e+00 0.0000000000000000e+00 0.0000000000000000e+00  0.0000000000000000e+00 0.0000000000000000e+00 0.0000000000000000e+00  0.0000000000000000e+00 0.0000000000000000e+00 0.0000000000000000e+00  0.0000000000000000e+00 0.0000000000000000e+00 0.0000000000000000e+00  0.0000000000000000e+00 0.0000000000000000e+00 0.0000000000000000e+00  0.0000000000000000e+00 0.0000000000000000e+00 0.0000000000000000e+00  0.0000000000000000e+00 0.0000000000000000e+00 0.0000000000000000e+00  0.0000000000000000e+00 0.0000000000000000e+00 0.0000000000000000e+00  0.0000000000000000e+00 0.0000000000000000e+00 0.0000000000000000e+00  0.0000000000000000e+00 0.0000000000000000e+00 0.0000000000000000e+00  0.0000000000000000e+00 0.0000000000000000e+00 0.0000000000000000e+00  0.0000000000000000e+00 0.0000000000000000e+00 0.0000000000000000e+00  0.0000000000000000e+00 0.0000000000000000e+00 0.0000000000000000e+00  0.0000000000000000e+00 0.0000000000000000e+00 0.0000000000000000e+00  0.0000000000000000e+00 0.0000000000000000e+00 0.0000000000000000e+00  0.0000000000000000e+00 0.0000000000000000e+00 0.0000000000000000e+00  0.0000000000000000e+00 0.0000000000000000e+00 0.0000000000000000e+00  0.0000000000000000e+00 0.0000000000000000e+00 0.0000000000000000e+00  0.0000000000000000e+00 0.0000000000000000e+00 0.0000000000000000e+00  0.0000000000000000e+00 0.0000000000000000e+00 0.0000000000000000e+00  0.0000000000000000e+00 0.0000000000000000e+00 0.0000000000000000e+00  0.0000000000000000e+00 0.0000000000000000e+00 0.0000000000000000e+00  0.0000000000000000e+00 0.0000000000000000e+00 0.0000000000000000e+00  0.0000000000000000e+00 0.0000000000000000e+00 0.0000000000000000e+00  0.0000000000000000e+00 0.0000000000000000e+00 0.0000000000000000e+00  0.0000000000000000e+00 0.0000000000000000e+00 0.0000000000000000e+00  0.0000000000000000e+00 0.0000000000000000e+00 0.0000000000000000e+00  0.0000000000000000e+00 0.0000000000000000e+00 0.0000000000000000e+00  0.0000000000000000e+00 0.0000000000000000e+00 0.0000000000000000e+00  -8.8671291530225510e-13 -2.0240238149837215e-13 0.0000000000000000e+00  -1.7021068534261077e-06 1.5454300568341454e-06 0.0000000000000000e+00  -3.5504497500083464e-06 3.3882516145525088e-06 0.0000000000000000e+00  -5.1636384774256651e-06 6.2507437651268707e-06 0.0000000000000000e+00  -6.8292314676682528e-06 1.0183036626991918e-05 0.0000000000000000e+00  -8.2121435641519236e-06 1.4938422911725208e-05 0.0000000000000000e+00  -9.6782284209023740e-06 2.0575927340686973e-05 0.0000000000000000e+00  -1.0863560994469145e-05 2.6816919753755601e-05 0.0000000000000000e+00  -1.1971159011871112e-05 3.3812646387827379e-05 0.0000000000000000e+00  -1.3145436588723636e-05 4.1340960833548542e-05 0.0000000000000000e+00  -1.4053820019638710e-05 4.9372506581258435e-05 0.0000000000000000e+00  -1.5039236425335092e-05 5.7878579944721604e-05 0.0000000000000000e+00  -1.5798609002612588e-05 6.6752086148899565e-05 0.0000000000000000e+00  -1.6579665865766654e-05 7.5964172221114451e-05 0.0000000000000000e+00  -1.7208938705442270e-05 8.5407680291061348e-05 0.0000000000000000e+00  -1.7772420587628346e-05 9.5103686911705618e-05 0.0000000000000000e+00  -1.8316358004111655e-05 1.0496120446434670e-04 0.0000000000000000e+00  -1.8737890897198235e-05 1.1493502987403705e-04 0.0000000000000000e+00  -1.9129610682057334e-05 1.2502457608660572e-04 0.0000000000000000e+00  -1.9432831587991176e-05 1.3514450098240489e-04 0.0000000000000000e+00  -1.9691762849863795e-05 1.4531422115955935e-04 0.0000000000000000e+00  -1.9891819871321878e-05 1.5545902236631341e-04 0.0000000000000000e+00  -2.0031571265182513e-05 1.6559050730734584e-04 0.0000000000000000e+00  -2.0145293787285817e-05 1.7568066711152788e-04 0.0000000000000000e+00  -2.0217694923107211e-05 1.8570041325874169e-04 0.0000000000000000e+00  -2.0246086076469420e-05 1.9566572968346977e-04 0.0000000000000000e+00  -2.0251874528281307e-05 2.0553213843919018e-04 0.0000000000000000e+00  -2.0224481378607285e-05 2.1532707123212672e-04 0.0000000000000000e+00  -2.0185189128584854e-05 2.2501734669251643e-04 0.0000000000000000e+00  -2.0120127235077845e-05 2.3462466137696072e-04 0.0000000000000000e+00  -2.0053986789756776e-05 2.4413274823506002e-04 0.0000000000000000e+00  -1.9969917115782892e-05 2.5355636424983591e-04 0.0000000000000000e+00  -1.9891184929525465e-05 2.6288951591771457e-04 0.0000000000000000e+00  -1.9802580624800380e-05 2.7214422298361003e-04 0.0000000000000000e+00  -1.9721540399259290e-05 2.8132235253786460e-04 0.0000000000000000e+00  -1.9637532119639833e-05 2.9043311560206784e-04 0.0000000000000000e+00  -1.9565360107157276e-05 2.9948452890277762e-04 0.0000000000000000e+00  -1.9493928923992087e-05 3.0848158818253262e-04 0.0000000000000000e+00  -1.9434445955101468e-05 3.1743568176020170e-04 0.0000000000000000e+00  -1.9377858587695926e-05 3.2634996384299243e-04 0.0000000000000000e+00  -1.9332654234260422e-05 3.3523658079589156e-04 0.0000000000000000e+00  -1.9290933951645503e-05 3.4409468466887664e-04 0.0000000000000000e+00  -1.9259504635705547e-05 3.5293940545238101e-04 0.0000000000000000e+00  -1.9233787399848055e-05 3.6176880424020552e-04 0.0000000000000000e+00  -1.9209991052026132e-05 3.7059156711547186e-04 0.0000000000000000e+00  -1.9191649720611113e-05 3.7940850525686567e-04 0.0000000000000000e+00  -1.9178214038598902e-05 3.8822497891830606e-04 0.0000000000000000e+00  -1.3249966772250242e-05 3.9702814995022260e-04 0.0000000000000000e+00  -1.4440406645340009e-06 3.9697714784774909e-04 0.0000000000000000e+00  4.4371628055635616e-06 3.8814644628042941e-04 0.0000000000000000e+00  4.4302199962226829e-06 3.7932981930755043e-04 0.0000000000000000e+00  4.4238034048504388e-06 3.7050992900524809e-04 0.0000000000000000e+00  4.4250756942585368e-06 3.6168616391855034e-04 0.0000000000000000e+00  4.4288564176614987e-06 3.5285584880410210e-04 0.0000000000000000e+00  4.4396869050386216e-06 3.4401019811627670e-04 0.0000000000000000e+00  4.4635505257100083e-06 3.3514893482408507e-04 0.0000000000000000e+00  4.4894509185586606e-06 3.2626030905909368e-04 0.0000000000000000e+00  4.5367789859328330e-06 3.1734347758979431e-04 0.0000000000000000e+00  4.5822030602318054e-06 3.0838319600097041e-04 0.0000000000000000e+00  4.6552734152010474e-06 2.9938109198741431e-04 0.0000000000000000e+00  4.7244162001241051e-06 2.9031815625673386e-04 0.0000000000000000e+00  4.8285319083061191e-06 2.8119895516470316e-04 0.0000000000000000e+00  4.9253375893980843e-06 2.7200244094185305e-04 0.0000000000000000e+00  5.0618918329367420e-06 2.6273561560489274e-04 0.0000000000000000e+00  5.1872569848793186e-06 2.5337718343231133e-04 0.0000000000000000e+00  5.3550692067317578e-06 2.4393756925674656e-04 0.0000000000000000e+00  5.5093759320933876e-06 2.3439521283393486e-04 0.0000000000000000e+00  5.7080169450479380e-06 2.2476735057383354e-04 0.0000000000000000e+00  5.8902110810445309e-06 2.1503462451697995e-04 0.0000000000000000e+00  6.1130772307656328e-06 2.0521719793344315e-04 0.0000000000000000e+00  6.3185036190324543e-06 1.9530001379832921e-04 0.0000000000000000e+00  6.5551886742532389e-06 1.8530557247370923e-04 0.0000000000000000e+00  6.7766273151886797e-06 1.7524111164845150e-04 0.0000000000000000e+00  7.0008812034166020e-06 1.6511105355099622e-04 0.0000000000000000e+00  7.2279591132945196e-06 1.5494327904938378e-04 0.0000000000000000e+00  7.4428975686928602e-06 1.4474778916499076e-04 0.0000000000000000e+00  7.6438871363359355e-06 1.3455280329704685e-04 0.0000000000000000e+00  7.8284060508671669e-06 1.2438834044618396e-04 0.0000000000000000e+00  7.9802843113368904e-06 1.1427749213050784e-04 0.0000000000000000e+00  8.1100728370512829e-06 1.0426242056933936e-04 0.0000000000000000e+00  8.1650039260339811e-06 9.4396978475998721e-05 0.0000000000000000e+00  8.2208986818290260e-06 8.4681529438483327e-05 0.0000000000000000e+00  8.2293527901636091e-06 7.5231674690987539e-05 0.0000000000000000e+00  8.1230602935984797e-06 6.5993829286823446e-05 0.0000000000000000e+00  7.9873182718515024e-06 5.7132231681451680e-05 0.0000000000000000e+00  7.7387296497453115e-06 4.8626478771886169e-05 0.0000000000000000e+00  7.4535516387963365e-06 4.0582589393392150e-05 0.0000000000000000e+00  6.9668799016045122e-06 3.3097159189657074e-05 0.0000000000000000e+00  6.5339007802476260e-06 2.6106713188410577e-05 0.0000000000000000e+00  6.0164727104364170e-06 1.9881745446805708e-05 0.0000000000000000e+00  5.2328680827971727e-06 1.4235112864984902e-05 0.0000000000000000e+00  4.4703470006455234e-06 9.4762192770981681e-06 0.0000000000000000e+00  3.4334810094989857e-06 5.5986519567708483e-06 0.0000000000000000e+00  2.4661658956472219e-06 2.7415958255516054e-06 0.0000000000000000e+00  1.1868196239193479e-06 9.3318187378619408e-07 0.0000000000000000e+00  -3.7834775045240357e-07 1.3848770053473271e-06 0.0000000000000000e+00  -7.5174620532090578e-06 3.8375975504915933e-04 0.0000000000000000e+00  -7.6369255194955334e-06 3.6691024423195500e-04 0.0000000000000000e+00  -7.5618502022688592e-06 3.3932487232980172e-04 0.0000000000000000e+00  -1.0077926610393200e-06 7.1383975282374230e-06 0.0000000000000000e+00  -7.4430839267981950e-06 3.2187523426416428e-04 0.0000000000000000e+00  -1.5448338368695892e-06 1.6318910557581235e-05 0.0000000000000000e+00  -7.4507618957797415e-06 3.0397142541774502e-04 0.0000000000000000e+00  -2.5416905895146769e-06 3.7079148963031338e-05 0.0000000000000000e+00  -3.3334064085263684e-06 5.2926165116291497e-05 0.0000000000000000e+00  -7.4447185730169089e-06 2.8586855906535466e-04 0.0000000000000000e+00  -4.7688725106342589e-06 9.9965816485442864e-05 0.0000000000000000e+00  -7.3570747054920324e-06 2.4881806214089756e-04 0.0000000000000000e+00  -3.8122096177635178e-06 6.9985889832860392e-05 0.0000000000000000e+00  -5.4899655003387519e-06 1.1959197648434152e-04 0.0000000000000000e+00  -7.2547416898991442e-06 2.2977128389508773e-04 0.0000000000000000e+00  -7.4166540324610593e-06 2.6750315575133586e-04 0.0000000000000000e+00  -5.9829686369743753e-06 1.3992293486521286e-04 0.0000000000000000e+00  -7.0977317281023247e-06 2.1034397216254745e-04 0.0000000000000000e+00  -6.2098972286841376e-06 1.5947273518456657e-04 0.0000000000000000e+00  -7.0521287803658407e-06 1.9096403653925056e-04 0.0000000000000000e+00  -6.6351457644592373e-06 1.7465747708680874e-04 0.0000000000000000e+00  -4.4675860634750510e-06 8.4093216730614517e-05 0.0000000000000000e+00  -7.3897927228212353e-06 3.5367810288573792e-04 0.0000000000000000e+00  -2.1262139103546052e-06 2.5598957149416130e-05 0.0000000000000000e+00  -3.4300552684384526e-06 3.7526155717900616e-04 0.0000000000000000e+00  6.2743959596739715e-07 3.6911470093730721e-06 0.0000000000000000e+00  -3.9538290055325595e-06 3.1292649840786440e-04 0.0000000000000000e+00  -3.9694718756260340e-06 3.3075605945487410e-04 0.0000000000000000e+00  -3.4955777829431849e-06 1.1701864746848561e-05 0.0000000000000000e+00  -6.0812551725804405e-06 4.4759810659289225e-05 0.0000000000000000e+00  -3.7474415697177120e-06 2.5817208133964220e-04 0.0000000000000000e+00  -3.9165678231481407e-06 2.9492773469514690e-04 0.0000000000000000e+00  -9.0803998071049620e-06 1.0962645894454096e-04 0.0000000000000000e+00  -3.6010005220662273e-06 2.3930276563248148e-04 0.0000000000000000e+00  -7.0666573200913625e-06 6.1797826892419328e-05 0.0000000000000000e+00  -9.6705370331561081e-06 1.2983295320411511e-04 0.0000000000000000e+00  -3.4027642398856045e-06 2.2005827762246096e-04 0.0000000000000000e+00  -3.8502355951581695e-06 2.7669695740654602e-04 0.0000000000000000e+00  -1.1010062380157319e-05 1.5010116865273078e-04 0.0000000000000000e+00  -3.1493007556538158e-06 2.0043437416220199e-04 0.0000000000000000e+00  -3.8891031265532131e-07 4.1057528960979223e-07 0.0000000000000000e+00  8.7437487521327905e-08 2.3880995192684038e-07 0.0000000000000000e+00  -1.0223831025314467e-05 3.9070163223255366e-04 0.0000000000000000e+00  -2.1442585198421607e-06 3.9558031769872067e-06 0.0000000000000000e+00  -1.9597373760195606e-06 1.8269733222044571e-04 0.000