<?xml version="1.0"?>
<VTKFile type="UnstructuredGrid"  version="0.1"  >
<UnstructuredGrid>
<Piece  NumberOfPoints="1419" NumberOfCells="2698">
<Points>
<DataArray  type="Float64"  NumberOfComponents="3"  format="ascii">0 0 0  0 0.41 0  2.5 0 0  2.5 0.41 0  0.6 0.19 0  0.6 0.21 0  0.25 0.2 0  0.15 0.2 0  0.2489897948556636 0.21 0  0.2489897948556636 0.19 0  0.6 0.2 0  0 0.3807142857143437 0  0 0.3514285714286952 0  0 0.3221428571430699 0  0 0.29285714285744 0  0 0.2635714285718054 0  0 0.2342857142861561 0  0 0.2050000000005308 0  0 0.175714285714732 0  0 0.1464285714289574 0  0 0.1171428571431897 0  0 0.08785714285737878 0  0 0.05857142857161107 0  0 0.02928571428580012 0  0.03015443760436003 0 0  0.06140001986583606 0 0  0.09377624077125973 0 0  0.1273239957535082 0 0  0.1620856860351972 0 0  0.1981052433264291 0 0  0.235428184091502 0 0  0.2741016576309132 0 0  0.3141745521465447 0 0  0.3556974926295285 0 0  0.3987229542472677 0 0  0.4433053055141081 0 0  0.4895008759286886 0 0  0.5373680609405097 0 0  0.5869673343216626 0 0  0.6383613676634521 0 0  0.6916151138468254 0 0  0.7467958595648856 0 0  0.8039733463919316 0 0  0.8632198139502143 0 0  0.9246101326867038 0 0  0.9882218810934433 0 0  1.054135445558498 0 0  1.122434100542598 0 0  1.193204177141305 0 0  1.266535089879536 0 0  1.342519516046404 0 0  1.421253448503939 0 0  1.502836389106271 0 0  1.587371439758838 0 0  1.674965418777374 0 0  1.765729001825544 0 0  1.859776908880082 0 0  1.957227977487062 0 0  2.058205329869943 0 0  2.162836591189951 0 0  2.271253957290865 0 0  2.383594446803425 0 0  2.5 0.1024999999997612 0  2.5 0.2049999999994743 0  2.5 0.3074999999997183 0  2.383594446803656 0.41 0  2.271253957291315 0.41 0  2.162836591190598 0.41 0  2.058205329870775 0.41 0  1.957227977488067 0.41 0  1.859776908881246 0.41 0  1.765729001826854 0.41 0  1.674965418778818 0.41 0  1.58737143976041 0.41 0  1.502836389107956 0.41 0  1.421253448505726 0.41 0  1.342519516048286 0.41 0  1.266535089881505 0.41 0  1.193204177143353 0.41 0  1.122434100544716 0.41 0  1.05413544556068 0.41 0  0.9882218810956305 0.41 0  0.9246101326886647 0.41 0  0.8632198139519631 0.41 0  0.8039733463934788 0.41 0  0.7467958595662458 0.41 0  0.6916151138480078 0.41 0  0.6383613676644679 0.41 0  0.5869673343225223 0.41 0  0.5373680609412221 0.41 0  0.4895008759292634 0.41 0  0.4433053055145528 0.41 0  0.3987229542475914 0.41 0  0.3556974926297398 0.41 0  0.3141745521466497 0.41 0  0.2741016576310038 0.41 0  0.2354281840915826 0.41 0  0.1981052433265003 0.41 0  0.1620856860352591 0.41 0  0.1273239957535623 0.41 0  0.09377624077128965 0.41 0  0.06140001986584975 0.41 0  0.03015443760436654 0.41 0  0.2497468076502589 0.2050254481002335 0  0.2497468076502614 0.1949745518997913 0  0.2469965252529372 0.1829317073451959 0  0.2439893735792749 0.1762316384219906 0  0.2400332147834255 0.1700443375285386 0  0.2352133972704371 0.1645032867342007 0  0.2296339016332438 0.1597280261969788 0  0.2234150974217223 0.1558215752574715 0  0.2166911463437691 0.1528682099456123 0  0.2096071079204251 0.1509316448471593 0  0.2023158100364996 0.1500536585536553 0  0.194974551899914 0.1502531923497262 0  0.1877417105387872 0.1515259415822739 0  0.1807733240461124 0.153844448527136 0  0.1742197252835808 0.15715869474974 0  0.1682222986673531 0.1613971801805478 0  0.162910430003803 0.1664684656256651 0  0.1583987151779087 0.1722631454351573 0  0.1547844879126891 0.178656207771761 0  0.1521457199348551 0.1855097315605723 0  0.1505393388476355 0.1926758619366523 0  0.1505393388476328 0.2073241380633295 0  0.1521457199348437 0.2144902684393899 0  0.1547844879126531 0.221343792228163 0  0.1583987151778488 0.2277368545647528 0  0.1629104300036858 0.2335315343742052 0  0.1682222986671726 0.2386028198193036 0  0.1742197252833576 0.2428413052501257 0  0.1807733240458683 0.2461555514727623 0  0.1877417105384929 0.2484740584176516 0  0.1949745518995776 0.2497468076502398 0  0.202315810036185 0.2499463414463592 0  0.2096071079201568 0.2490683551528932 0  0.2166911463435495 0.2471317900544655 0  0.2234150974215506 0.2441784247426195 0  0.2296339016331197 0.2402719738031125 0  0.2352133972703547 0.2354967132658811 0  0.2400332147833751 0.2299556624715287 0  0.2439893735792577 0.2237683615780412 0  0.246996525252926 0.2170682926548348 0  0.25645809709277 0.21 0  0.2639263993298655 0.21 0  0.271394701566961 0.21 0  0.2788630038040554 0.21 0  0.2863313060411479 0.21 0  0.2937996082782405 0.21 0  0.301267910515333 0.21 0  0.3087362127524279 0.21 0  0.3162045149895234 0.21 0  0.3236728172265972 0.21 0  0.3311411194636928 0.21 0  0.3386094217007701 0.21 0  0.3460777239378666 0.21 0  0.3535460261749672 0.21 0  0.3610143284120516 0.21 0  0.3684826306491596 0.21 0  0.3759509328862226 0.21 0  0.383419235123329 0.21 0  0.3908875373604028 0.21 0  0.3983558395975142 0.21 0  0.4058241418345938 0.21 0  0.4132924440716992 0.21 0  0.4207607463087888 0.21 0  0.4282290485459029 0.21 0  0.4356973507830418 0.21 0  0.4431656530201649 0.21 0  0.4506339552573136 0.21 0  0.4581022574944306 0.21 0  0.4655705597315852 0.21 0  0.4730388619686996 0.21 0  0.480507164205851 0.21 0  0.4879754664429498 0.21 0  0.4954437686800938 0.21 0  0.502912070917267 0.21 0  0.5103803731544119 0.21 0  0.5178486753915261 0.21 0  0.5253169776286404 0.21 0  0.5327852798657868 0.21 0  0.5402535821029386 0.21 0  0.54772188434007 0.21 0  0.5551901865771842 0.21 0  0.5626584888143201 0.21 0  0.5701267910514778 0.21 0  0.5775950932886138 0.21 0  0.5850633955257281 0.21 0  0.5925316977628483 0.21 0  0.6 0.2050000000000054 0  0.6 0.1950000000000217 0  0.5925316977628897 0.19 0  0.5850633955257988 0.19 0  0.5775950932887378 0.19 0  0.5701267910515998 0.19 0  0.5626584888145268 0.19 0  0.5551901865773963 0.19 0  0.547721884340339 0.19 0  0.5402535821032429 0.19 0  0.5327852798661811 0.19 0  0.5253169776290537 0.19 0  0.5178486753919799 0.19 0  0.5103803731549078 0.19 0  0.502912070917822 0.19 0  0.4954437686807294 0.19 0  0.4879754664436223 0.19 0  0.4805071642065402 0.19 0  0.4730388619694271 0.19 0  0.4655705597323621 0.19 0  0.4581022574952563 0.19 0  0.4506339552581777 0.19 0  0.4431656530210671 0.19 0  0.4356973507839815 0.19 0  0.4282290485468779 0.19 0  0.4207607463097617 0.19 0  0.4132924440726327 0.19 0  0.4058241418354857 0.19 0  0.3983558395983636 0.19 0  0.3908875373612097 0.19 0  0.3834192351240934 0.19 0  0.3759509328869369 0.19 0  0.3684826306498175 0.19 0  0.361014328412667 0.19 0  0.3535460261755617 0.19 0  0.3460777239384295 0.19 0  0.3386094217012945 0.19 0  0.3311411194641595 0.19 0  0.3236728172270245 0.19 0  0.3162045149898895 0.19 0  0.3087362127527544 0.19 0  0.3012679105156187 0.19 0  0.2937996082784807 0.19 0  0.2863313060413428 0.19 0  0.2788630038042048 0.19 0  0.2713947015670686 0.19 0  0.2639263993299336 0.19 0  0.2564580970927985 0.19 0  0.2607803159922026 0.2000727136295815 0  0.5887803774232762 0.2001272386983733 0  0.5745072403740523 0.2002044435018727 0  0.5511891430099709 0.2001122610077113 0  0.2751288526855082 0.20000000000002 0  0.5365194309847112 0.1999999999999436 0  0.2894621222999649 0.1998691686390484 0  0.5215828265105155 0.1999999999999228 0  0.3127789816668748 0.1998657885438805 0  0.3274069683451451 0.2000000000000796 0  0.5066462220363641 0.199999999999908 0  0.3650630746574081 0.199866017807523 0  0.476773013087985 0.1999999999998713 0  0.3417402379596385 0.1998691686391011 0  0.3796850840047755 0.200000000000134 0  0.4618364086138087 0.1999999999998546 0  0.4917096175621762 0.1999999999998808 0  0.3946216884789568 0.2000000000001512 0  0.446899804139621 0.1999999999998389 0  0.4089549580935208 0.1998691686391595 0  0.4322718174608562 0.200127451265745 0  0.4201487168029707 0.1999966199048527 0  0.3528922713220932 0.2000185703532356 0  0.5633122436674589 0.1999814296467508 0  0.3006558810093873 0.1999966199048318 0  0.5815926498168407 0.1966545283159175 0  0.2677053789419034 0.1964246479135325 0  0.5290511287476175 0.1970915826863981 0  0.5439877332217911 0.197091582686394 0  0.2825131256993216 0.2035478995978015 0  0.3199386661080599 0.202908417313604 0  0.4842413153250809 0.1970915826863873 0  0.5141145242734466 0.1970915826863843 0  0.3722167817676917 0.2029084173136195 0  0.4693047108508938 0.1970915826863783 0  0.3348752705822316 0.202908417313609 0  0.3871533862418661 0.2029084173136212 0  0.4543681063767183 0.1970915826863795 0  0.4991779197992749 0.1970915826863902 0  0.4020059614928624 0.203547899597858 0  0.4394315019025246 0.1970915826863714 0  0.2550657455369551 0.2034088125358657 0  0.2548908499171161 0.1966940311614271 0  0.5946539510196798 0.2024302972968126 0  0.267698176732111 0.2039977513680092 0  0.4261685417851465 0.196409292431739 0  0.3590076176283495 0.196411355804271 0  0.5571672426447437 0.2036011176410121 0  0.3066757059912147 0.1964092924317024 0  0.594380730180568 0.1966558399668133 0  0.4842413153245942 0.2040749161535287 0  0.4693047108503577 0.2040749161535231 0  0.3871533862424271 0.1959250838464788 0  0.372246743208829 0.1959123236376545 0  0.5141145242731028 0.2040749161535395 0  0.4543681063761134 0.2040749161535186 0  0.4019979587101454 0.1959834479682427 0  0.4394608940728603 0.2040870543693135 0  0.5439623148931173 0.2040856076781014 0  0.5290511287473298 0.2040749161535501 0  0.4991779197988497 0.2040749161535382 0  0.3347912413592433 0.1959225448935183 0  0.3199680582793816 0.1959123018030061 0  0.2825051229162361 0.1959834479681729 0  0.3590471196690275 0.2036304442587945 0  0.5571594006495384 0.1963685282145804 0  0.3067669986803285 0.203627750582736 0  0.4262598344738712 0.2036568242185335 0  0.5814408164431408 0.2041285596160068 0  0.5688286748170428 0.1961819304477386 0  0.4145905603063645 0.2038180695522843 0  0.3473758401724931 0.2038180695522752 0  0.2950977245128307 0.2038180695522663 0  0.5688286748170693 0.203818069552238 0  0.2950977245127906 0.1961819304477774 0  0.3473758401723931 0.1961819304478349 0  0.4145905603061963 0.1961819304479011 0  0.2601812407614425 0.2056861609747042
[...]
<PointData  Vectors="f_46-0"> 
<DataArray  type="Float64"  Name="f_46-0"  NumberOfComponents="3" format="ascii">0.0000000000000000e+00 0.0000000000000000e+00 0.0000000000000000e+00  0.0000000000000000e+00 0.0000000000000000e+00 0.0000000000000000e+00  0.0000000000000000e+00 0.0000000000000000e+00 0.0000000000000000e+00  0.0000000000000000e+00 0.0000000000000000e+00 0.0000000000000000e+00  1.9513125464803061e-05 7.0815364774953250e-04 0.0000000000000000e+00  -3.0086412682098414e-05 7.0822637535499801e-04 0.0000000000000000e+00  0.0000000000000000e+00 0.0000000000000000e+00 0.0000000000000000e+00  0.0000000000000000e+00 0.0000000000000000e+00 0.0000000000000000e+00  0.0000000000000000e+00 0.0000000000000000e+00 0.0000000000000000e+00  0.0000000000000000e+00 0.0000000000000000e+00 0.0000000000000000e+00  -5.2838217367740282e-06 7.0819075231097852e-04 0.0000000000000000e+00  7.9591836734548407e-02 0.0000000000000000e+00 0.0000000000000000e+00  1.4693877550994527e-01 0.0000000000000000e+00 0.0000000000000000e+00  2.0204081632617479e-01 0.0000000000000000e+00 0.0000000000000000e+00  2.4489795918330076e-01 0.0000000000000000e+00 0.0000000000000000e+00  2.7551020408131754e-01 0.0000000000000000e+00 0.0000000000000000e+00  2.9387755102022350e-01 0.0000000000000000e+00 0.0000000000000000e+00  3.0000000000000004e-01 0.0000000000000000e+00 0.0000000000000000e+00  2.9387755102059482e-01 0.0000000000000000e+00 0.0000000000000000e+00  2.7551020408195548e-01 0.0000000000000000e+00 0.0000000000000000e+00  2.4489795918409069e-01 0.0000000000000000e+00 0.0000000000000000e+00  2.0204081632692522e-01 0.0000000000000000e+00 0.0000000000000000e+00  1.4693877551058568e-01 0.0000000000000000e+00 0.0000000000000000e+00  7.9591836734909230e-02 0.0000000000000000e+00 0.0000000000000000e+00  0.0000000000000000e+00 0.0000000000000000e+00 0.0000000000000000e+00  0.0000000000000000e+00 0.0000000000000000e+00 0.0000000000000000e+00  0.0000000000000000e+00 0.0000000000000000e+00 0.0000000000000000e+00  0.0000000000000000e+00 0.0000000000000000e+00 0.0000000000000000e+00  0.0000000000000000e+00 0.0000000000000000e+00 0.0000000000000000e+00  0.0000000000000000e+00 0.0000000000000000e+00 0.0000000000000000e+00  0.0000000000000000e+00 0.0000000000000000e+00 0.0000000000000000e+00  0.0000000000000000e+00 0.0000000000000000e+00 0.0000000000000000e+00  0.0000000000000000e+00 0.0000000000000000e+00 0.0000000000000000e+00  0.0000000000000000e+00 0.0000000000000000e+00 0.0000000000000000e+00  0.0000000000000000e+00 0.0000000000000000e+00 0.0000000000000000e+00  0.0000000000000000e+00 0.0000000000000000e+00 0.0000000000000000e+00  0.0000000000000000e+00 0.0000000000000000e+00 0.0000000000000000e+00  0.0000000000000000e+00 0.0000000000000000e+00 0.0000000000000000e+00  0.0000000000000000e+00 0.0000000000000000e+00 0.0000000000000000e+00  0.0000000000000000e+00 0.0000000000000000e+00 0.0000000000000000e+00  0.0000000000000000e+00 0.0000000000000000e+00 0.0000000000000000e+00  0.0000000000000000e+00 0.0000000000000000e+00 0.0000000000000000e+00  0.0000000000000000e+00 0.0000000000000000e+00 0.0000000000000000e+00  0.0000000000000000e+00 0.0000000000000000e+00 0.0000000000000000e+00  0.0000000000000000e+00 0.0000000000000000e+00 0.0000000000000000e+00  0.0000000000000000e+00 0.0000000000000000e+00 0.0000000000000000e+00  0.0000000000000000e+00 0.0000000000000000e+00 0.0000000000000000e+00  0.0000000000000000e+00 0.0000000000000000e+00 0.0000000000000000e+00  0.0000000000000000e+00 0.0000000000000000e+00 0.0000000000000000e+00  0.0000000000000000e+00 0.0000000000000000e+00 0.0000000000000000e+00  0.0000000000000000e+00 0.0000000000000000e+00 0.0000000000000000e+00  0.0000000000000000e+00 0.0000000000000000e+00 0.0000000000000000e+00  0.0000000000000000e+00 0.0000000000000000e+00 0.0000000000000000e+00  0.0000000000000000e+00 0.0000000000000000e+00 0.0000000000000000e+00  0.0000000000000000e+00 0.0000000000000000e+00 0.0000000000000000e+00  0.0000000000000000e+00 0.0000000000000000e+00 0.0000000000000000e+00  0.0000000000000000e+00 0.0000000000000000e+00 0.0000000000000000e+00  0.0000000000000000e+00 0.0000000000000000e+00 0.0000000000000000e+00  0.0000000000000000e+00 0.0000000000000000e+00 0.0000000000000000e+00  0.0000000000000000e+00 0.0000000000000000e+00 0.0000000000000000e+00  0.0000000000000000e+00 0.0000000000000000e+00 0.0000000000000000e+00  0.0000000000000000e+00 0.0000000000000000e+00 0.0000000000000000e+00  2.5353296554027382e-01 3.0107642199490763e-03 0.0000000000000000e+00  2.9219605390506798e-01 8.0900858057061063e-03 0.0000000000000000e+00  2.5018870783896913e-01 -9.1591446167302772e-03 0.0000000000000000e+00  0.0000000000000000e+00 0.0000000000000000e+00 0.0000000000000000e+00  0.0000000000000000e+00 0.0000000000000000e+00 0.0000000000000000e+00  0.0000000000000000e+00 0.0000000000000000e+00 0.0000000000000000e+00  0.0000000000000000e+00 0.0000000000000000e+00 0.0000000000000000e+00  0.0000000000000000e+00 0.0000000000000000e+00 0.0000000000000000e+00  0.0000000000000000e+00 0.0000000000000000e+00 0.0000000000000000e+00  0.0000000000000000e+00 0.0000000000000000e+00 0.0000000000000000e+00  0.0000000000000000e+00 0.0000000000000000e+00 0.0000000000000000e+00  0.0000000000000000e+00 0.0000000000000000e+00 0.0000000000000000e+00  0.0000000000000000e+00 0.0000000000000000e+00 0.0000000000000000e+00  0.0000000000000000e+00 0.0000000000000000e+00 0.0000000000000000e+00  0.0000000000000000e+00 0.0000000000000000e+00 0.0000000000000000e+00  0.0000000000000000e+00 0.0000000000000000e+00 0.0000000000000000e+00  0.0000000000000000e+00 0.0000000000000000e+00 0.0000000000000000e+00  0.0000000000000000e+00 0.0000000000000000e+00 0.0000000000000000e+00  0.0000000000000000e+00 0.0000000000000000e+00 0.0000000000000000e+00  0.0000000000000000e+00 0.0000000000000000e+00 0.0000000000000000e+00  0.0000000000000000e+00 0.0000000000000000e+00 0.0000000000000000e+00  0.0000000000000000e+00 0.0000000000000000e+00 0.0000000000000000e+00  0.0000000000000000e+00 0.0000000000000000e+00 0.0000000000000000e+00  0.0000000000000000e+00 0.0000000000000000e+00 0.0000000000000000e+00  0.0000000000000000e+00 0.0000000000000000e+00 0.0000000000000000e+00  0.0000000000000000e+00 0.0000000000000000e+00 0.0000000000000000e+00  0.0000000000000000e+00 0.0000000000000000e+00 0.0000000000000000e+00  0.0000000000000000e+00 0.0000000000000000e+00 0.0000000000000000e+00  0.0000000000000000e+00 0.0000000000000000e+00 0.0000000000000000e+00  0.0000000000000000e+00 0.0000000000000000e+00 0.0000000000000000e+00  0.0000000000000000e+00 0.0000000000000000e+00 0.0000000000000000e+00  0.0000000000000000e+00 0.0000000000000000e+00 0.0000000000000000e+00  0.0000000000000000e+00 0.0000000000000000e+00 0.0000000000000000e+00  0.0000000000000000e+00 0.0000000000000000e+00 0.0000000000000000e+00  0.0000000000000000e+00 0.0000000000000000e+00 0.0000000000000000e+00  0.0000000000000000e+00 0.0000000000000000e+00 0.0000000000000000e+00  0.0000000000000000e+00 0.0000000000000000e+00 0.0000000000000000e+00  0.0000000000000000e+00 0.0000000000000000e+00 0.0000000000000000e+00  0.0000000000000000e+00 0.0000000000000000e+00 0.0000000000000000e+00  0.0000000000000000e+00 0.0000000000000000e+00 0.0000000000000000e+00  0.0000000000000000e+00 0.0000000000000000e+00 0.0000000000000000e+00  0.0000000000000000e+00 0.0000000000000000e+00 0.0000000000000000e+00  0.0000000000000000e+00 0.0000000000000000e+00 0.0000000000000000e+00  -1.5786570978605236e-12 0.0000000000000000e+00 0.0000000000000000e+00  0.0000000000000000e+00 0.0000000000000000e+00 0.0000000000000000e+00  0.0000000000000000e+00 0.0000000000000000e+00 0.0000000000000000e+00  0.0000000000000000e+00 0.0000000000000000e+00 0.0000000000000000e+00  0.0000000000000000e+00 0.0000000000000000e+00 0.0000000000000000e+00  0.0000000000000000e+00 0.0000000000000000e+00 0.0000000000000000e+00  0.0000000000000000e+00 0.0000000000000000e+00 0.0000000000000000e+00  0.0000000000000000e+00 0.0000000000000000e+00 0.0000000000000000e+00  0.0000000000000000e+00 0.0000000000000000e+00 0.0000000000000000e+00  0.0000000000000000e+00 0.0000000000000000e+00 0.0000000000000000e+00  0.0000000000000000e+00 0.0000000000000000e+00 0.0000000000000000e+00  0.0000000000000000e+00 0.0000000000000000e+00 0.0000000000000000e+00  0.0000000000000000e+00 0.0000000000000000e+00 0.0000000000000000e+00  0.0000000000000000e+00 0.0000000000000000e+00 0.0000000000000000e+00  0.0000000000000000e+00 0.0000000000000000e+00 0.0000000000000000e+00  0.0000000000000000e+00 0.0000000000000000e+00 0.0000000000000000e+00  0.0000000000000000e+00 0.0000000000000000e+00 0.0000000000000000e+00  0.0000000000000000e+00 0.0000000000000000e+00 0.0000000000000000e+00  0.0000000000000000e+00 0.0000000000000000e+00 0.0000000000000000e+00  0.0000000000000000e+00 0.0000000000000000e+00 0.0000000000000000e+00  0.0000000000000000e+00 0.0000000000000000e+00 0.0000000000000000e+00  0.0000000000000000e+00 0.0000000000000000e+00 0.0000000000000000e+00  0.0000000000000000e+00 0.0000000000000000e+00 0.0000000000000000e+00  0.0000000000000000e+00 0.0000000000000000e+00 0.0000000000000000e+00  0.0000000000000000e+00 0.0000000000000000e+00 0.0000000000000000e+00  0.0000000000000000e+00 0.0000000000000000e+00 0.0000000000000000e+00  0.0000000000000000e+00 0.0000000000000000e+00 0.0000000000000000e+00  0.0000000000000000e+00 0.0000000000000000e+00 0.0000000000000000e+00  0.0000000000000000e+00 0.0000000000000000e+00 0.0000000000000000e+00  0.0000000000000000e+00 0.0000000000000000e+00 0.0000000000000000e+00  0.0000000000000000e+00 0.0000000000000000e+00 0.0000000000000000e+00  0.0000000000000000e+00 0.0000000000000000e+00 0.0000000000000000e+00  0.0000000000000000e+00 0.0000000000000000e+00 0.0000000000000000e+00  0.0000000000000000e+00 0.0000000000000000e+00 0.0000000000000000e+00  0.0000000000000000e+00 0.0000000000000000e+00 0.0000000000000000e+00  0.0000000000000000e+00 0.0000000000000000e+00 0.0000000000000000e+00  0.0000000000000000e+00 0.0000000000000000e+00 0.0000000000000000e+00  0.0000000000000000e+00 0.0000000000000000e+00 0.0000000000000000e+00  -1.9522251982704100e-06 1.6688876102538102e-06 0.0000000000000000e+00  -4.1234595487630494e-06 3.8842368108040337e-06 0.0000000000000000e+00  -6.0249810490944129e-06 7.4405017015943481e-06 0.0000000000000000e+00  -8.0413143863338452e-06 1.2408414520704698e-05 0.0000000000000000e+00  -9.7161577475935282e-06 1.8523092871161870e-05 0.0000000000000000e+00  -1.1568499269748601e-05 2.5883066274598656e-05 0.0000000000000000e+00  -1.3056309925689616e-05 3.4142769661519209e-05 0.0000000000000000e+00  -1.4478396297361795e-05 4.3567925124161947e-05 0.0000000000000000e+00  -1.6067537078163905e-05 5.3857003921574453e-05 0.0000000000000000e+00  -1.7282658280595386e-05 6.5024756399277529e-05 0.0000000000000000e+00  -1.8710873996248274e-05 7.7041978545011442e-05 0.0000000000000000e+00  -1.9790673419712367e-05 8.9813806845010240e-05 0.0000000000000000e+00  -2.1014448816428913e-05 1.0330255253223254e-04 0.0000000000000000e+00  -2.1989075635369996e-05 1.1735171951733717e-04 0.0000000000000000e+00  -2.2910456750669871e-05 1.3207742459086274e-04 0.0000000000000000e+00  -2.3906655441127999e-05 1.4729499051821965e-04 0.0000000000000000e+00  -2.4668189801122557e-05 1.6299585061435901e-04 0.0000000000000000e+00  -2.5518040447681519e-05 1.7916051957919370e-04 0.0000000000000000e+00  -2.6156562933724410e-05 1.9570290052761433e-04 0.0000000000000000e+00  -2.6849256468824608e-05 2.1260347494300936e-04 0.0000000000000000e+00  -2.7392637139940892e-05 2.2980804747608550e-04 0.0000000000000000e+00  -2.7937082165249214e-05 2.4730224560702687e-04 0.0000000000000000e+00  -2.8367260990656053e-05 2.6498703205312106e-04 0.0000000000000000e+00  -2.8747804454705488e-05 2.8290196744258986e-04 0.0000000000000000e+00  -2.9121873026868684e-05 3.0096215579868254e-04 0.0000000000000000e+00  -2.9409484608618516e-05 3.1916348823201565e-04 0.0000000000000000e+00  -2.9661565440232887e-05 3.3749217213274827e-04 0.0000000000000000e+00  -2.9860859450959916e-05 3.5588718813257152e-04 0.0000000000000000e+00  -3.0026309897573118e-05 3.7436813726057371e-04 0.0000000000000000e+00  -3.0151778609492208e-05 3.9288093515876262e-04 0.0000000000000000e+00  -3.0247976397420286e-05 4.1144308749985420e-04 0.0000000000000000e+00  -3.0314930417625663e-05 4.3001204590217308e-04 0.0000000000000000e+00  -3.0358915111919320e-05 4.4860410800587564e-04 0.0000000000000000e+00  -3.0381631379100206e-05 4.6718794667950701e-04 0.0000000000000000e+00  -3.0387804776832712e-05 4.8577810592973240e-04 0.0000000000000000e+00  -3.0382678413525306e-05 5.0435428450579494e-04 0.0000000000000000e+00  -3.0366419120604349e-05 5.2292673734221252e-04 0.0000000000000000e+00  -3.0344683621437449e-05 5.4148428961507667e-04 0.0000000000000000e+00  -3.0315742858635086e-05 5.6003461448568916e-04 0.0000000000000000e+00  -3.0286244444978071e-05 5.7857354181178389e-04 0.0000000000000000e+00  -3.0253552494785070e-05 5.9710399458711805e-04 0.0000000000000000e+00  -3.0222887648383941e-05 6.1562886878118708e-04 0.0000000000000000e+00  -3.0193005249554305e-05 6.3414913861496453e-04 0.0000000000000000e+00  -3.0163528736728346e-05 6.5266777978616425e-04 0.0000000000000000e+00  -3.0136405002092885e-05 6.7118568159947351e-04 0.0000000000000000e+00  -3.0110633632434880e-05 6.8970458790372155e-04 0.0000000000000000e+00  -1.7683684300106441e-05 7.0820878936231877e-04 0.0000000000000000e+00  7.1148545001926830e-06 7.0817289623471477e-04 0.0000000000000000e+00  1.9488025219766238e-05 6.8963620836899673e-04 0.0000000000000000e+00  1.9461955813052020e-05 6.7111815639211579e-04 0.0000000000000000e+00  1.9437022616019636e-05 6.5259970697572613e-04 0.0000000000000000e+00  1.9415237905438588e-05 6.3407994226048975e-04 0.0000000000000000e+00  1.9395518838421631e-05 6.1555735611777023e-04 0.0000000000000000e+00  1.9379773470500581e-05 5.9702823952994123e-04 0.0000000000000000e+00  1.9369258948759988e-05 5.7849227561926136e-04 0.0000000000000000e+00  1.9362296065676771e-05 5.5994458393500727e-04 0.0000000000000000e+00  1.9362414295291550e-05 5.4138806770022093e-04 0.0000000000000000e+00  1.9364716710137771e-05 5.2281578036439695e-04 0.0000000000000000e+00  1.9372941291827239e-05 5.0423442533890906e-04 0.0000000000000000e+00  1.9384261098990826e-05 4.8563724727559819e-04 0.0000000000000000e+00  1.9399226843415835e-05 4.6703542224527556e-04 0.0000000000000000e+00  1.9417451112178053e-05 4.4842457318314190e-04 0.0000000000000000e+00  1.9431957840086212e-05 4.2981871199150541e-04 0.0000000000000000e+00  1.9451224888405126e-05 4.1121830058580877e-04 0.0000000000000000e+00  1.9455856171042844e-05 3.9264086606379878e-04 0.0000000000000000e+00  1.9469153552987829e-05 3.7409246027188286e-04 0.0000000000000000e+00  1.9453391137628174e-05 3.5559553503586430e-04 0.0000000000000000e+00  1.9451229203032490e-05 3.3716335028310414e-04 0.0000000000000000e+00  1.9398254904707303e-05 3.1882090608250242e-04 0.0000000000000000e+00  1.9366995152568881e-05 3.0059046365046215e-04 0.0000000000000000e+00  1.9264463113601047e-05 2.8250245813952096e-04 0.0000000000000000e+00  1.9179063395250784e-05 2.6456740389645372e-04 0.0000000000000000e+00  1.9068836605346124e-05 2.4686676487586413e-04 0.0000000000000000e+00  1.8870056918576681e-05 2.2935110826350659e-04 0.0000000000000000e+00  1.8674495278342746e-05 2.1214097725819246e-04 0.0000000000000000e+00  1.8397700500536765e-05 1.9521922041324018e-04 0.0000000000000000e+00  1.8110522466875761e-05 1.7867451828476876e-04 0.0000000000000000e+00  1.7730757617343862e-05 1.6250605207602205e-04 0.0000000000000000e+00  1.7338337684069101e-05 1.4678404113597251e-04 0.0000000000000000e+00  1.6780769340695312e-05 1.3160152914796713e-04 0.0000000000000000e+00  1.6294910787895783e-05 1.1687396962980153e-04 0.0000000000000000e+00  1.5752290946476896e-05 1.0284096648401608e-04 0.0000000000000000e+00  1.4998723848661182e-05 8.9316583852447478e-05 0.0000000000000000e+00  1.4267180834565811e-05 7.6583693033794003e-05 0.0000000000000000e+00  1.3380316202618865e-05 6.4568284017492436e-05 0.0000000000000000e+00  1.2497088130836678e-05 5.3377626591266605e-05 0.0000000000000000e+00  1.1347971172682006e-05 4.3151976227794106e-05 0.0000000000000000e+00  1.0343897520314395e-05 3.3721029311949696e-05 0.0000000000000000e+00  9.2710684106591429e-06 2.5471559795169743e-05 0.0000000000000000e+00  7.8577478482350187e-06 1.8083741696125937e-05 0.0000000000000000e+00  6.5437868314093068e-06 1.1954811025367047e-05 0.0000000000000000e+00  4.9166724898985990e-06 7.0543579351647108e-06 0.0000000000000000e+00  3.4414102798205309e-06 3.4859005897631732e-06 0.0000000000000000e+00  1.6303186002553906e-06 1.2794052413918066e-06 0.0000000000000000e+00  -2.4820897740823083e-07 1.5917143272272546e-06 0.0000000000000000e+00  -5.6387034781094164e-06 6.8036915862497536e-04 0.0000000000000000e+00  -5.8799599843602204e-06 6.4497951661513691e-04 0.0000000000000000e+00  -5.7244281188089092e-06 5.8714367726514505e-04 0.0000000000000000e+00  -6.3361471809487932e-07 8.7192292762636824e-06 0.0000000000000000e+00  -5.4787405122553094e-06 5.5072036975225560e-04 0.0000000000000000e+00  -9.0821068348994963e-07 2.0486078417284978e-05 0.0000000000000000e+00  -5.4953345242047694e-06 5.1358905804430250e-04 0.0000000000000000e+00  -1.4887405531637049e-06 4.8188118008717754e-05 0.0000000000000000e+00  -2.0883477637701038e-06 7.0193969893321252e-05 0.0000000000000000e+00  -5.4863025420433160e-06 4.7641157555375363e-04 0.0000000000000000e+00  -2.8982256533641355e-06 1.3966844532300784e-04 0.0000000000000000e+00  -5.3575343173801092e-06 4.0202048368433667e-04 0.0000000000000000e+00  -2.2690034326559749e-06 9.4677754638449035e-05 0.0000000000000000e+00  -3.5784101281243112e-06 1.7050743129562739e-04 0.0000000000000000e+00  -5.2234039204697514e-06 3.6493644581324711e-04 0.0000000000000000e+00  -5.4429331283584431e-06 4.3920639858493772e-04 0.0000000000000000e+00  -3.9730952193136002e-06 2.0365386434005389e-04 0.0000000000000000e+00  -5.0351776251878771e-06 3.2807841049554141e-04 0.0000000000000000e+00  -4.0170170950687144e-06 2.3670510191260707e-04 0.0000000000000000e+00  -5.1078731096781630e-06 2.9236460918052041e-04 0.0000000000000000e+00  -4.5530310994614709e-06 2.6321652175572682e-04 0.0000000000000000e+00  -2.8569686923258090e-06 1.1556895698661777e-04 0.0000000000000000e+00  -5.3631461143135933e-06 6.1721692724955662e-04 0.0000000000000000e+00  -1.3270893903871366e-06 3.2719262465929500e-05 0.0000000000000000e+00  2.9484809052519007e-06 6.6253537773183985e-04 0.0000000000000000e+00  1.2348832213037878e-06 4.4998631989160759e-06 0.0000000000000000e+00  1.7403919035202020e-06 5.3214507358059359e-04 0.0000000000000000e+00  1.7593358570381931e-06 5.6925487492281816e-04 0.0000000000000000e+00  -3.6536728657381507e-06 1.4449901831120799e-05 0.0000000000000000e+00  -6.1896155294352596e-06 5.8694460715340279e-05 0.0000000000000000e+00  1.8232783806186105e-06 4.2057867202559149e-04 0.0000000000000000e+00  1.7417097034835433e-06 4.9498620104055106e-04 0.0000000000000000e+00  -9.4560533956765985e-06 1.5464843721861257e-04 0.0000000000000000e+00  1.9065871235796783e-06 3.8342612948001360e-04 0.0000000000000000e+00  -7.2078391768444339e-06 8.2753546731144948e-05 0.0000000000000000e+00  -1.0183597068772093e-05 1.8700040095753735e-04 0.0000000000000000e+00  2.0173024001269880e-06 3.4643254594752735e-04 0.0000000000000000e+00  1.7684901035260687e-06 4.5778689395935073e-04 0.0000000000000000e+00  -1.2285235897444526e-05 2.2066534113112410e-04 0.0000000000000000e+00  2.1517786893297262e-06 3.0974422954149728e-04 0.0000000000000000e+00  -4.0228117029997321e-07 4.0264080975507850e-07 0.0000000000000000e+00  1.9234479699580361e-07 2.8066409510699557e-07 0.0000000000000000e+00  -1.1329443129343779e-05 6.9494164908812984e-04 0.0000000000000000e+00  -2.2871555418066234e-06 4.6649397761475153e-06 0.0000000000000000e+00  3.9177615641697148e-06 2.7756518985237532e-04 0.000000000000000