<?xml version="1.0"?>
<VTKFile type="UnstructuredGrid"  version="0.1"  >
<UnstructuredGrid>
<Piece  NumberOfPoints="1419" NumberOfCells="2698">
<Points>
<DataArray  type="Float64"  NumberOfComponents="3"  format="ascii">0 0 0  0 0.41 0  2.5 0 0  2.5 0.41 0  0.6 0.19 0  0.6 0.21 0  0.25 0.2 0  0.15 0.2 0  0.2489897948556636 0.21 0  0.2489897948556636 0.19 0  0.6 0.2 0  0 0.3807142857143437 0  0 0.3514285714286952 0  0 0.3221428571430699 0  0 0.29285714285744 0  0 0.2635714285718054 0  0 0.2342857142861561 0  0 0.2050000000005308 0  0 0.175714285714732 0  0 0.1464285714289574 0  0 0.1171428571431897 0  0 0.08785714285737878 0  0 0.05857142857161107 0  0 0.02928571428580012 0  0.03015443760436003 0 0  0.06140001986583606 0 0  0.09377624077125973 0 0  0.1273239957535082 0 0  0.1620856860351972 0 0  0.1981052433264291 0 0  0.235428184091502 0 0  0.2741016576309132 0 0  0.3141745521465447 0 0  0.3556974926295285 0 0  0.3987229542472677 0 0  0.4433053055141081 0 0  0.4895008759286886 0 0  0.5373680609405097 0 0  0.5869673343216626 0 0  0.6383613676634521 0 0  0.6916151138468254 0 0  0.7467958595648856 0 0  0.8039733463919316 0 0  0.8632198139502143 0 0  0.9246101326867038 0 0  0.9882218810934433 0 0  1.054135445558498 0 0  1.122434100542598 0 0  1.193204177141305 0 0  1.266535089879536 0 0  1.342519516046404 0 0  1.421253448503939 0 0  1.502836389106271 0 0  1.587371439758838 0 0  1.674965418777374 0 0  1.765729001825544 0 0  1.859776908880082 0 0  1.957227977487062 0 0  2.058205329869943 0 0  2.162836591189951 0 0  2.271253957290865 0 0  2.383594446803425 0 0  2.5 0.1024999999997612 0  2.5 0.2049999999994743 0  2.5 0.3074999999997183 0  2.383594446803656 0.41 0  2.271253957291315 0.41 0  2.162836591190598 0.41 0  2.058205329870775 0.41 0  1.957227977488067 0.41 0  1.859776908881246 0.41 0  1.765729001826854 0.41 0  1.674965418778818 0.41 0  1.58737143976041 0.41 0  1.502836389107956 0.41 0  1.421253448505726 0.41 0  1.342519516048286 0.41 0  1.266535089881505 0.41 0  1.193204177143353 0.41 0  1.122434100544716 0.41 0  1.05413544556068 0.41 0  0.9882218810956305 0.41 0  0.9246101326886647 0.41 0  0.8632198139519631 0.41 0  0.8039733463934788 0.41 0  0.7467958595662458 0.41 0  0.6916151138480078 0.41 0  0.6383613676644679 0.41 0  0.5869673343225223 0.41 0  0.5373680609412221 0.41 0  0.4895008759292634 0.41 0  0.4433053055145528 0.41 0  0.3987229542475914 0.41 0  0.3556974926297398 0.41 0  0.3141745521466497 0.41 0  0.2741016576310038 0.41 0  0.2354281840915826 0.41 0  0.1981052433265003 0.41 0  0.1620856860352591 0.41 0  0.1273239957535623 0.41 0  0.09377624077128965 0.41 0  0.06140001986584975 0.41 0  0.03015443760436654 0.41 0  0.2497468076502589 0.2050254481002335 0  0.2497468076502614 0.1949745518997913 0  0.2469965252529372 0.1829317073451959 0  0.2439893735792749 0.1762316384219906 0  0.2400332147834255 0.1700443375285386 0  0.2352133972704371 0.1645032867342007 0  0.2296339016332438 0.1597280261969788 0  0.2234150974217223 0.1558215752574715 0  0.2166911463437691 0.1528682099456123 0  0.2096071079204251 0.1509316448471593 0  0.2023158100364996 0.1500536585536553 0  0.194974551899914 0.1502531923497262 0  0.1877417105387872 0.1515259415822739 0  0.1807733240461124 0.153844448527136 0  0.1742197252835808 0.15715869474974 0  0.1682222986673531 0.1613971801805478 0  0.162910430003803 0.1664684656256651 0  0.1583987151779087 0.1722631454351573 0  0.1547844879126891 0.178656207771761 0  0.1521457199348551 0.1855097315605723 0  0.1505393388476355 0.1926758619366523 0  0.1505393388476328 0.2073241380633295 0  0.1521457199348437 0.2144902684393899 0  0.1547844879126531 0.221343792228163 0  0.1583987151778488 0.2277368545647528 0  0.1629104300036858 0.2335315343742052 0  0.1682222986671726 0.2386028198193036 0  0.1742197252833576 0.2428413052501257 0  0.1807733240458683 0.2461555514727623 0  0.1877417105384929 0.2484740584176516 0  0.1949745518995776 0.2497468076502398 0  0.202315810036185 0.2499463414463592 0  0.2096071079201568 0.2490683551528932 0  0.2166911463435495 0.2471317900544655 0  0.2234150974215506 0.2441784247426195 0  0.2296339016331197 0.2402719738031125 0  0.2352133972703547 0.2354967132658811 0  0.2400332147833751 0.2299556624715287 0  0.2439893735792577 0.2237683615780412 0  0.246996525252926 0.2170682926548348 0  0.25645809709277 0.21 0  0.2639263993298655 0.21 0  0.271394701566961 0.21 0  0.2788630038040554 0.21 0  0.2863313060411479 0.21 0  0.2937996082782405 0.21 0  0.301267910515333 0.21 0  0.3087362127524279 0.21 0  0.3162045149895234 0.21 0  0.3236728172265972 0.21 0  0.3311411194636928 0.21 0  0.3386094217007701 0.21 0  0.3460777239378666 0.21 0  0.3535460261749672 0.21 0  0.3610143284120516 0.21 0  0.3684826306491596 0.21 0  0.3759509328862226 0.21 0  0.383419235123329 0.21 0  0.3908875373604028 0.21 0  0.3983558395975142 0.21 0  0.4058241418345938 0.21 0  0.4132924440716992 0.21 0  0.4207607463087888 0.21 0  0.4282290485459029 0.21 0  0.4356973507830418 0.21 0  0.4431656530201649 0.21 0  0.4506339552573136 0.21 0  0.4581022574944306 0.21 0  0.4655705597315852 0.21 0  0.4730388619686996 0.21 0  0.480507164205851 0.21 0  0.4879754664429498 0.21 0  0.4954437686800938 0.21 0  0.502912070917267 0.21 0  0.5103803731544119 0.21 0  0.5178486753915261 0.21 0  0.5253169776286404 0.21 0  0.5327852798657868 0.21 0  0.5402535821029386 0.21 0  0.54772188434007 0.21 0  0.5551901865771842 0.21 0  0.5626584888143201 0.21 0  0.5701267910514778 0.21 0  0.5775950932886138 0.21 0  0.5850633955257281 0.21 0  0.5925316977628483 0.21 0  0.6 0.2050000000000054 0  0.6 0.1950000000000217 0  0.5925316977628897 0.19 0  0.5850633955257988 0.19 0  0.5775950932887378 0.19 0  0.5701267910515998 0.19 0  0.5626584888145268 0.19 0  0.5551901865773963 0.19 0  0.547721884340339 0.19 0  0.5402535821032429 0.19 0  0.5327852798661811 0.19 0  0.5253169776290537 0.19 0  0.5178486753919799 0.19 0  0.5103803731549078 0.19 0  0.502912070917822 0.19 0  0.4954437686807294 0.19 0  0.4879754664436223 0.19 0  0.4805071642065402 0.19 0  0.4730388619694271 0.19 0  0.4655705597323621 0.19 0  0.4581022574952563 0.19 0  0.4506339552581777 0.19 0  0.4431656530210671 0.19 0  0.4356973507839815 0.19 0  0.4282290485468779 0.19 0  0.4207607463097617 0.19 0  0.4132924440726327 0.19 0  0.4058241418354857 0.19 0  0.3983558395983636 0.19 0  0.3908875373612097 0.19 0  0.3834192351240934 0.19 0  0.3759509328869369 0.19 0  0.3684826306498175 0.19 0  0.361014328412667 0.19 0  0.3535460261755617 0.19 0  0.3460777239384295 0.19 0  0.3386094217012945 0.19 0  0.3311411194641595 0.19 0  0.3236728172270245 0.19 0  0.3162045149898895 0.19 0  0.3087362127527544 0.19 0  0.3012679105156187 0.19 0  0.2937996082784807 0.19 0  0.2863313060413428 0.19 0  0.2788630038042048 0.19 0  0.2713947015670686 0.19 0  0.2639263993299336 0.19 0  0.2564580970927985 0.19 0  0.2607803159922026 0.2000727136295815 0  0.5887803774232762 0.2001272386983733 0  0.5745072403740523 0.2002044435018727 0  0.5511891430099709 0.2001122610077113 0  0.2751288526855082 0.20000000000002 0  0.5365194309847112 0.1999999999999436 0  0.2894621222999649 0.1998691686390484 0  0.5215828265105155 0.1999999999999228 0  0.3127789816668748 0.1998657885438805 0  0.3274069683451451 0.2000000000000796 0  0.5066462220363641 0.199999999999908 0  0.3650630746574081 0.199866017807523 0  0.476773013087985 0.1999999999998713 0  0.3417402379596385 0.1998691686391011 0  0.3796850840047755 0.200000000000134 0  0.4618364086138087 0.1999999999998546 0  0.4917096175621762 0.1999999999998808 0  0.3946216884789568 0.2000000000001512 0  0.446899804139621 0.1999999999998389 0  0.4089549580935208 0.1998691686391595 0  0.4322718174608562 0.200127451265745 0  0.4201487168029707 0.1999966199048527 0  0.3528922713220932 0.2000185703532356 0  0.5633122436674589 0.1999814296467508 0  0.3006558810093873 0.1999966199048318 0  0.5815926498168407 0.1966545283159175 0  0.2677053789419034 0.1964246479135325 0  0.5290511287476175 0.1970915826863981 0  0.5439877332217911 0.197091582686394 0  0.2825131256993216 0.2035478995978015 0  0.3199386661080599 0.202908417313604 0  0.4842413153250809 0.1970915826863873 0  0.5141145242734466 0.1970915826863843 0  0.3722167817676917 0.2029084173136195 0  0.4693047108508938 0.1970915826863783 0  0.3348752705822316 0.202908417313609 0  0.3871533862418661 0.2029084173136212 0  0.4543681063767183 0.1970915826863795 0  0.4991779197992749 0.1970915826863902 0  0.4020059614928624 0.203547899597858 0  0.4394315019025246 0.1970915826863714 0  0.2550657455369551 0.2034088125358657 0  0.2548908499171161 0.1966940311614271 0  0.5946539510196798 0.2024302972968126 0  0.267698176732111 0.2039977513680092 0  0.4261685417851465 0.196409292431739 0  0.3590076176283495 0.196411355804271 0  0.5571672426447437 0.2036011176410121 0  0.3066757059912147 0.1964092924317024 0  0.594380730180568 0.1966558399668133 0  0.4842413153245942 0.2040749161535287 0  0.4693047108503577 0.2040749161535231 0  0.3871533862424271 0.1959250838464788 0  0.372246743208829 0.1959123236376545 0  0.5141145242731028 0.2040749161535395 0  0.4543681063761134 0.2040749161535186 0  0.4019979587101454 0.1959834479682427 0  0.4394608940728603 0.2040870543693135 0  0.5439623148931173 0.2040856076781014 0  0.5290511287473298 0.2040749161535501 0  0.4991779197988497 0.2040749161535382 0  0.3347912413592433 0.1959225448935183 0  0.3199680582793816 0.1959123018030061 0  0.2825051229162361 0.1959834479681729 0  0.3590471196690275 0.2036304442587945 0  0.5571594006495384 0.1963685282145804 0  0.3067669986803285 0.203627750582736 0  0.4262598344738712 0.2036568242185335 0  0.5814408164431408 0.2041285596160068 0  0.5688286748170428 0.1961819304477386 0  0.4145905603063645 0.2038180695522843 0  0.3473758401724931 0.2038180695522752 0  0.2950977245128307 0.2038180695522663 0  0.5688286748170693 0.203818069552238 0  0.2950977245127906 0.1961819304477774 0  0.3473758401723931 0.1961819304478349 0  0.4145905603061963 0.1961819304479011 0  0.2601812407614425 0.2056861609747042
[...]
<PointData  Vectors="f_46-0"> 
<DataArray  type="Float64"  Name="f_46-0"  NumberOfComponents="3" format="ascii">0.0000000000000000e+00 0.0000000000000000e+00 0.0000000000000000e+00  0.0000000000000000e+00 0.0000000000000000e+00 0.0000000000000000e+00  0.0000000000000000e+00 0.0000000000000000e+00 0.0000000000000000e+00  0.0000000000000000e+00 0.0000000000000000e+00 0.0000000000000000e+00  7.6781902663656765e-06 4.6433383818949198e-04 0.0000000000000000e+00  -2.1301737589442883e-05 4.6443205609106265e-04 0.0000000000000000e+00  0.0000000000000000e+00 0.0000000000000000e+00 0.0000000000000000e+00  0.0000000000000000e+00 0.0000000000000000e+00 0.0000000000000000e+00  0.0000000000000000e+00 0.0000000000000000e+00 0.0000000000000000e+00  0.0000000000000000e+00 0.0000000000000000e+00 0.0000000000000000e+00  -6.7934127886723259e-06 4.6438636417636014e-04 0.0000000000000000e+00  7.9591836734548407e-02 0.0000000000000000e+00 0.0000000000000000e+00  1.4693877550994527e-01 0.0000000000000000e+00 0.0000000000000000e+00  2.0204081632617479e-01 0.0000000000000000e+00 0.0000000000000000e+00  2.4489795918330073e-01 0.0000000000000000e+00 0.0000000000000000e+00  2.7551020408131754e-01 0.0000000000000000e+00 0.0000000000000000e+00  2.9387755102022350e-01 0.0000000000000000e+00 0.0000000000000000e+00  3.0000000000000004e-01 0.0000000000000000e+00 0.0000000000000000e+00  2.9387755102059482e-01 0.0000000000000000e+00 0.0000000000000000e+00  2.7551020408195548e-01 0.0000000000000000e+00 0.0000000000000000e+00  2.4489795918409071e-01 0.0000000000000000e+00 0.0000000000000000e+00  2.0204081632692525e-01 0.0000000000000000e+00 0.0000000000000000e+00  1.4693877551058568e-01 0.0000000000000000e+00 0.0000000000000000e+00  7.9591836734909230e-02 0.0000000000000000e+00 0.0000000000000000e+00  0.0000000000000000e+00 0.0000000000000000e+00 0.0000000000000000e+00  0.0000000000000000e+00 0.0000000000000000e+00 0.0000000000000000e+00  0.0000000000000000e+00 0.0000000000000000e+00 0.0000000000000000e+00  0.0000000000000000e+00 0.0000000000000000e+00 0.0000000000000000e+00  0.0000000000000000e+00 0.0000000000000000e+00 0.0000000000000000e+00  0.0000000000000000e+00 0.0000000000000000e+00 0.0000000000000000e+00  0.0000000000000000e+00 0.0000000000000000e+00 0.0000000000000000e+00  0.0000000000000000e+00 0.0000000000000000e+00 0.0000000000000000e+00  0.0000000000000000e+00 0.0000000000000000e+00 0.0000000000000000e+00  0.0000000000000000e+00 0.0000000000000000e+00 0.0000000000000000e+00  0.0000000000000000e+00 0.0000000000000000e+00 0.0000000000000000e+00  0.0000000000000000e+00 0.0000000000000000e+00 0.0000000000000000e+00  0.0000000000000000e+00 0.0000000000000000e+00 0.0000000000000000e+00  0.0000000000000000e+00 0.0000000000000000e+00 0.0000000000000000e+00  0.0000000000000000e+00 0.0000000000000000e+00 0.0000000000000000e+00  0.0000000000000000e+00 0.0000000000000000e+00 0.0000000000000000e+00  0.0000000000000000e+00 0.0000000000000000e+00 0.0000000000000000e+00  0.0000000000000000e+00 0.0000000000000000e+00 0.0000000000000000e+00  0.0000000000000000e+00 0.0000000000000000e+00 0.0000000000000000e+00  0.0000000000000000e+00 0.0000000000000000e+00 0.0000000000000000e+00  0.0000000000000000e+00 0.0000000000000000e+00 0.0000000000000000e+00  0.0000000000000000e+00 0.0000000000000000e+00 0.0000000000000000e+00  0.0000000000000000e+00 0.0000000000000000e+00 0.0000000000000000e+00  0.0000000000000000e+00 0.0000000000000000e+00 0.0000000000000000e+00  0.0000000000000000e+00 0.0000000000000000e+00 0.0000000000000000e+00  0.0000000000000000e+00 0.0000000000000000e+00 0.0000000000000000e+00  0.0000000000000000e+00 0.0000000000000000e+00 0.0000000000000000e+00  0.0000000000000000e+00 0.0000000000000000e+00 0.0000000000000000e+00  0.0000000000000000e+00 0.0000000000000000e+00 0.0000000000000000e+00  0.0000000000000000e+00 0.0000000000000000e+00 0.0000000000000000e+00  0.0000000000000000e+00 0.0000000000000000e+00 0.0000000000000000e+00  0.0000000000000000e+00 0.0000000000000000e+00 0.0000000000000000e+00  0.0000000000000000e+00 0.0000000000000000e+00 0.0000000000000000e+00  0.0000000000000000e+00 0.0000000000000000e+00 0.0000000000000000e+00  0.0000000000000000e+00 0.0000000000000000e+00 0.0000000000000000e+00  0.0000000000000000e+00 0.0000000000000000e+00 0.0000000000000000e+00  0.0000000000000000e+00 0.0000000000000000e+00 0.0000000000000000e+00  0.0000000000000000e+00 0.0000000000000000e+00 0.0000000000000000e+00  2.5565352528189222e-01 3.9074675386930593e-03 0.0000000000000000e+00  2.8533593430975673e-01 9.5910752357222621e-03 0.0000000000000000e+00  2.5492852066388133e-01 -9.9614371352997420e-03 0.0000000000000000e+00  0.0000000000000000e+00 0.0000000000000000e+00 0.0000000000000000e+00  0.0000000000000000e+00 0.0000000000000000e+00 0.0000000000000000e+00  0.0000000000000000e+00 0.0000000000000000e+00 0.0000000000000000e+00  0.0000000000000000e+00 0.0000000000000000e+00 0.0000000000000000e+00  0.0000000000000000e+00 0.0000000000000000e+00 0.0000000000000000e+00  0.0000000000000000e+00 0.0000000000000000e+00 0.0000000000000000e+00  0.0000000000000000e+00 0.0000000000000000e+00 0.0000000000000000e+00  0.0000000000000000e+00 0.0000000000000000e+00 0.0000000000000000e+00  0.0000000000000000e+00 0.0000000000000000e+00 0.0000000000000000e+00  0.0000000000000000e+00 0.0000000000000000e+00 0.0000000000000000e+00  0.0000000000000000e+00 0.0000000000000000e+00 0.0000000000000000e+00  0.0000000000000000e+00 0.0000000000000000e+00 0.0000000000000000e+00  0.0000000000000000e+00 0.0000000000000000e+00 0.0000000000000000e+00  0.0000000000000000e+00 0.0000000000000000e+00 0.0000000000000000e+00  0.0000000000000000e+00 0.0000000000000000e+00 0.0000000000000000e+00  0.0000000000000000e+00 0.0000000000000000e+00 0.0000000000000000e+00  0.0000000000000000e+00 0.0000000000000000e+00 0.0000000000000000e+00  0.0000000000000000e+00 0.0000000000000000e+00 0.0000000000000000e+00  0.0000000000000000e+00 0.0000000000000000e+00 0.0000000000000000e+00  0.0000000000000000e+00 0.0000000000000000e+00 0.0000000000000000e+00  0.0000000000000000e+00 0.0000000000000000e+00 0.0000000000000000e+00  0.0000000000000000e+00 0.0000000000000000e+00 0.0000000000000000e+00  0.0000000000000000e+00 0.0000000000000000e+00 0.0000000000000000e+00  0.0000000000000000e+00 0.0000000000000000e+00 0.0000000000000000e+00  0.0000000000000000e+00 0.0000000000000000e+00 0.0000000000000000e+00  0.0000000000000000e+00 0.0000000000000000e+00 0.0000000000000000e+00  0.0000000000000000e+00 0.0000000000000000e+00 0.0000000000000000e+00  0.0000000000000000e+00 0.0000000000000000e+00 0.0000000000000000e+00  0.0000000000000000e+00 0.0000000000000000e+00 0.0000000000000000e+00  0.0000000000000000e+00 0.0000000000000000e+00 0.0000000000000000e+00  0.0000000000000000e+00 0.0000000000000000e+00 0.0000000000000000e+00  0.0000000000000000e+00 0.0000000000000000e+00 0.0000000000000000e+00  0.0000000000000000e+00 0.0000000000000000e+00 0.0000000000000000e+00  0.0000000000000000e+00 0.0000000000000000e+00 0.0000000000000000e+00  0.0000000000000000e+00 0.0000000000000000e+00 0.0000000000000000e+00  0.0000000000000000e+00 0.0000000000000000e+00 0.0000000000000000e+00  0.0000000000000000e+00 0.0000000000000000e+00 0.0000000000000000e+00  0.0000000000000000e+00 0.0000000000000000e+00 0.0000000000000000e+00  0.0000000000000000e+00 0.0000000000000000e+00 0.0000000000000000e+00  0.0000000000000000e+00 0.0000000000000000e+00 0.0000000000000000e+00  -3.0433824089777956e-13 0.0000000000000000e+00 0.0000000000000000e+00  0.0000000000000000e+00 0.0000000000000000e+00 0.0000000000000000e+00  0.0000000000000000e+00 0.0000000000000000e+00 0.0000000000000000e+00  0.0000000000000000e+00 0.0000000000000000e+00 0.0000000000000000e+00  0.0000000000000000e+00 0.0000000000000000e+00 0.0000000000000000e+00  0.0000000000000000e+00 0.0000000000000000e+00 0.0000000000000000e+00  0.0000000000000000e+00 0.0000000000000000e+00 0.0000000000000000e+00  0.0000000000000000e+00 0.0000000000000000e+00 0.0000000000000000e+00  0.0000000000000000e+00 0.0000000000000000e+00 0.0000000000000000e+00  0.0000000000000000e+00 0.0000000000000000e+00 0.0000000000000000e+00  0.0000000000000000e+00 0.0000000000000000e+00 0.0000000000000000e+00  0.0000000000000000e+00 0.0000000000000000e+00 0.0000000000000000e+00  0.0000000000000000e+00 0.0000000000000000e+00 0.0000000000000000e+00  0.0000000000000000e+00 0.0000000000000000e+00 0.0000000000000000e+00  0.0000000000000000e+00 0.0000000000000000e+00 0.0000000000000000e+00  0.0000000000000000e+00 0.0000000000000000e+00 0.0000000000000000e+00  0.0000000000000000e+00 0.0000000000000000e+00 0.0000000000000000e+00  0.0000000000000000e+00 0.0000000000000000e+00 0.0000000000000000e+00  0.0000000000000000e+00 0.0000000000000000e+00 0.0000000000000000e+00  0.0000000000000000e+00 0.0000000000000000e+00 0.0000000000000000e+00  0.0000000000000000e+00 0.0000000000000000e+00 0.0000000000000000e+00  0.0000000000000000e+00 0.0000000000000000e+00 0.0000000000000000e+00  0.0000000000000000e+00 0.0000000000000000e+00 0.0000000000000000e+00  0.0000000000000000e+00 0.0000000000000000e+00 0.0000000000000000e+00  0.0000000000000000e+00 0.0000000000000000e+00 0.0000000000000000e+00  0.0000000000000000e+00 0.0000000000000000e+00 0.0000000000000000e+00  0.0000000000000000e+00 0.0000000000000000e+00 0.0000000000000000e+00  0.0000000000000000e+00 0.0000000000000000e+00 0.0000000000000000e+00  0.0000000000000000e+00 0.0000000000000000e+00 0.0000000000000000e+00  0.0000000000000000e+00 0.0000000000000000e+00 0.0000000000000000e+00  0.0000000000000000e+00 0.0000000000000000e+00 0.0000000000000000e+00  0.0000000000000000e+00 0.0000000000000000e+00 0.0000000000000000e+00  0.0000000000000000e+00 0.0000000000000000e+00 0.0000000000000000e+00  0.0000000000000000e+00 0.0000000000000000e+00 0.0000000000000000e+00  0.0000000000000000e+00 0.0000000000000000e+00 0.0000000000000000e+00  0.0000000000000000e+00 0.0000000000000000e+00 0.0000000000000000e+00  0.0000000000000000e+00 0.0000000000000000e+00 0.0000000000000000e+00  -1.1566388184284825e-12 -1.7936177658755360e-12 0.0000000000000000e+00  -1.7664575226312392e-06 1.5789608199557478e-06 0.0000000000000000e+00  -3.6959613155906846e-06 3.5197993678976877e-06 0.0000000000000000e+00  -5.3798133324109950e-06 6.5607241121401449e-06 0.0000000000000000e+00  -7.1298227149426019e-06 1.0756808115533129e-05 0.0000000000000000e+00  -8.5814723500564511e-06 1.5854787926319348e-05 0.0000000000000000e+00  -1.0137504659541058e-05 2.1922727850032755e-05 0.0000000000000000e+00  -1.1391775626699694e-05 2.8664871367443087e-05 0.0000000000000000e+00  -1.2570220427457012e-05 3.6258564463173574e-05 0.0000000000000000e+00  -1.3837582140908402e-05 4.4462008382580846e-05 0.0000000000000000e+00  -1.4813392927223494e-05 5.3254904155661286e-05 0.0000000000000000e+00  -1.5896018317016122e-05 6.2607241705566469e-05 0.0000000000000000e+00  -1.6724450230623628e-05 7.2413451747605794e-05 0.0000000000000000e+00  -1.7600558272673167e-05 8.2641320662088296e-05 0.0000000000000000e+00  -1.8302814353722912e-05 9.3171694362882912e-05 0.0000000000000000e+00  -1.8941264949142494e-05 1.0404492460134108e-04 0.0000000000000000e+00  -1.9578804499255965e-05 1.1514863166280431e-04 0.0000000000000000e+00  -2.0069641520201070e-05 1.2644395703314157e-04 0.0000000000000000e+00  -2.0553426033510195e-05 1.3792515709889390e-04 0.0000000000000000e+00  -2.0922858571720752e-05 1.4950498960670169e-04 0.0000000000000000e+00  -2.1265889559621037e-05 1.6119453644056523e-04 0.0000000000000000e+00  -2.1531210282424538e-05 1.7292105497423145e-04 0.0000000000000000e+00  -2.1746055770164431e-05 1.8469035427077512e-04 0.0000000000000000e+00  -2.1917290647005019e-05 1.9646000326950169e-04 0.0000000000000000e+00  -2.2044314321284266e-05 2.0821237244786993e-04 0.0000000000000000e+00  -2.2132513054469878e-05 2.1994477198048764e-04 0.0000000000000000e+00  -2.2185411880893068e-05 2.3161831455327132e-04 0.0000000000000000e+00  -2.2203251044484389e-05 2.4325346647435732e-04 0.0000000000000000e+00  -2.2201173320400275e-05 2.5481054294164489e-04 0.0000000000000000e+00  -2.2170690530022597e-05 2.6631148571501289e-04 0.0000000000000000e+00  -2.2131937247701994e-05 2.7773238217643936e-04 0.0000000000000000e+00  -2.2072374038916903e-05 2.8908899151863343e-04 0.0000000000000000e+00  -2.2012122471764188e-05 3.0036846107864490e-04 0.0000000000000000e+00  -2.1939193179478014e-05 3.1158398663843804e-04 0.0000000000000000e+00  -2.1869028327236729e-05 3.2273160250747179e-04 0.0000000000000000e+00  -2.1793360936513024e-05 3.3382176835305055e-04 0.0000000000000000e+00  -2.1726032858382070e-05 3.4485792629251552e-04 0.0000000000000000e+00  -2.1657440809337365e-05 3.5584607620698294e-04 0.0000000000000000e+00  -2.1598391900497977e-05 3.6679428467919242e-04 0.0000000000000000e+00  -2.1540694405018615e-05 3.7770645497096314e-04 0.0000000000000000e+00  -2.1493020361882318e-05 3.8859265992901274e-04 0.0000000000000000e+00  -2.1448039417769242e-05 3.9945245571830566e-04 0.0000000000000000e+00  -2.1412589219622201e-05 4.1029966735488461e-04 0.0000000000000000e+00  -2.1382542376562363e-05 4.2113270135553740e-04 0.0000000000000000e+00  -2.1354404629085462e-05 4.3195967586896755e-04 0.0000000000000000e+00  -2.1331825787751550e-05 4.4278157017090577e-04 0.0000000000000000e+00  -2.1313720027111343e-05 4.5360284113874736e-04 0.0000000000000000e+00  -1.4042027031442887e-05 4.6440987826701477e-04 0.0000000000000000e+00  4.4828548080336143e-07 4.6436241075410701e-04 0.0000000000000000e+00  7.6701226415321221e-06 4.5352610964579081e-04 0.0000000000000000e+00  7.6578310896182436e-06 4.4270534784817198e-04 0.0000000000000000e+00  7.6461585386240091e-06 4.3188183231105689e-04 0.0000000000000000e+00  7.6413620445491562e-06 4.2105445341143657e-04 0.0000000000000000e+00  7.6389192241228876e-06 4.1022079025857390e-04 0.0000000000000000e+00  7.6429994985119713e-06 3.9937254878209512e-04 0.0000000000000000e+00  7.6591272632510516e-06 3.8850937094817787e-04 0.0000000000000000e+00  7.6774098916701080e-06 3.7762033981482597e-04 0.0000000000000000e+00  7.7153700107213317e-06 3.6670498772974856e-04 0.0000000000000000e+00  7.7518928490715447e-06 3.5574911711568150e-04 0.0000000000000000e+00  7.8133299990802042e-06 3.4475507194907265e-04 0.0000000000000000e+00  7.8717750553083712e-06 3.3370541539859714e-04 0.0000000000000000e+00  7.9610830048249936e-06 3.2260589272821964e-04 0.0000000000000000e+00  8.0444804311042177e-06 3.1143770187298570e-04 0.0000000000000000e+00  8.1615189788777850e-06 3.0020925029947739e-04 0.0000000000000000e+00  8.2695195010690193e-06 2.8890245824757731e-04 0.0000000000000000e+00  8.4114436934029578e-06 2.7752933775820437e-04 0.0000000000000000e+00  8.5429431161465300e-06 2.6607275538941390e-04 0.0000000000000000e+00  8.7071355129680156e-06 2.5455142017882294e-04 0.0000000000000000e+00  8.8591264777668899e-06 2.4295163381102004e-04 0.0000000000000000e+00  9.0363678282330257e-06 2.3129502811679661e-04 0.0000000000000000e+00  9.2018978206448175e-06 2.1957356219580278e-04 0.0000000000000000e+00  9.3803474569028016e-06 2.0781196473495679e-04 0.0000000000000000e+00  9.5480573576150640e-06 1.9601902650309865e-04 0.0000000000000000e+00  9.7124996394681651e-06 1.8421386271645949e-04 0.0000000000000000e+00  9.8619043574037078e-06 1.7241128724785945e-04 0.0000000000000000e+00  1.0000142955688800e-05 1.6064334928075728e-04 0.0000000000000000e+00  1.0109921707426968e-05 1.4892997932267470e-04 0.0000000000000000e+00  1.0202412594349170e-05 1.3731535703568351e-04 0.0000000000000000e+00  1.0248237047733485e-05 1.2581737055889836e-04 0.0000000000000000e+00  1.0271588545173955e-05 1.1448694859024249e-04 0.0000000000000000e+00  1.0198747398480549e-05 1.0338584278113587e-04 0.0000000000000000e+00  1.0139695209318865e-05 9.2499057306865724e-05 0.0000000000000000e+00  1.0028778840691529e-05 8.1969128526942630e-05 0.0000000000000000e+00  9.7804349148587904e-06 7.1715294240007495e-05 0.0000000000000000e+00  9.5110836349531323e-06 6.1929284976667220e-05 0.0000000000000000e+00  9.1171496333656542e-06 5.2578819264005598e-05 0.0000000000000000e+00  8.6935530477785729e-06 4.3773084820451087e-05 0.0000000000000000e+00  8.0512780330843481e-06 3.5618421316670947e-05 0.0000000000000000e+00  7.4823227895585182e-06 2.8028547864461975e-05 0.0000000000000000e+00  6.8308683387722012e-06 2.1301834042424031e-05 0.0000000000000000e+00  5.8941606816254782e-06 1.5220666426634300e-05 0.0000000000000000e+00  4.9956164774718351e-06 1.0116846560769071e-05 0.0000000000000000e+00  3.8116497484022565e-06 5.9786520242811570e-06 0.0000000000000000e+00  2.7162442164181397e-06 2.9385971868560054e-06 0.0000000000000000e+00  1.3013935389550424e-06 1.0253722211446644e-06 0.0000000000000000e+00  -3.4464664506995487e-07 1.4428471783636391e-06 0.0000000000000000e+00  -7.0075832669820327e-06 4.4813147165815589e-04 0.0000000000000000e+00  -7.1555790357656983e-06 4.2745120752442004e-04 0.0000000000000000e+00  -7.0719273881775320e-06 3.9361117732914517e-04 0.0000000000000000e+00  -9.1054858353343155e-07 7.5513650634761107e-06 0.0000000000000000e+00  -6.9330662716878177e-06 3.7223211976680564e-04 0.0000000000000000e+00  -1.3796635960142034e-06 1.7385172199177925e-05 0.0000000000000000e+00  -6.9494849938185627e-06 3.5033692279781920e-04 0.0000000000000000e+00  -2.2707506610776251e-06 3.9861005221251406e-05 0.0000000000000000e+00  -3.0150172013114091e-06 5.7202468052868245e-05 0.0000000000000000e+00  -6.9499507510460719e-06 3.2826029359495285e-04 0.0000000000000000e+00  -4.3068428663043358e-06 1.0954539436068875e-04 0.0000000000000000e+00  -6.8667984460632951e-06 2.8336678825284164e-04 0.0000000000000000e+00  -3.4230210340217700e-06 7.6038832726407909e-05 0.0000000000000000e+00  -5.0220835716199074e-06 1.3175856306757078e-04 0.0000000000000000e+00  -6.7627158654958666e-06 2.6048810183626150e-04 0.0000000000000000e+00  -6.9256000361203557e-06 3.0595053633387568e-04 0.0000000000000000e+00  -5.4963818171685265e-06 1.5500400381779323e-04 0.0000000000000000e+00  -6.6023937550692424e-06 2.3732160826606238e-04 0.0000000000000000e+00  -5.6854270725059342e-06 1.7758128115541645e-04 0.0000000000000000e+00  -6.5840434694996639e-06 2.1439883249948342e-04 0.0000000000000000e+00  -6.1364511811357212e-06 1.9527427195037268e-04 0.0000000000000000e+00  -4.0640300021118877e-06 9.1748537594640655e-05 0.0000000000000000e+00  -6.8563516229868842e-06 4.1121558009821023e-04 0.0000000000000000e+00  -1.9192231186879313e-06 2.7399410668098329e-05 0.0000000000000000e+00  -1.9917650322499865e-06 4.3770448401006138e-04 0.0000000000000000e+00  7.8304636936615913e-07 3.9058509937609648e-06 0.0000000000000000e+00  -2.6722876189831321e-06 3.6128676654752847e-04 0.0000000000000000e+00  -2.6760795428755574e-06 3.8311339503040496e-04 0.0000000000000000e+00  -3.5302831827900472e-06 1.2410334338124880e-05 0.0000000000000000e+00  -6.0901252564245639e-06 4.8229345759922973e-05 0.0000000000000000e+00  -2.5009010310348216e-06 2.9466369809935997e-04 0.0000000000000000e+00  -2.6467253072124897e-06 3.3930407933510274e-04 0.0000000000000000e+00  -9.1371066037304046e-06 1.2043813191007202e-04 0.0000000000000000e+00  -2.3675419534756927e-06 2.7192638627688783e-04 0.0000000000000000e+00  -7.0786102859029636e-06 6.6959349286293228e-05 0.0000000000000000e+00  -9.7549556817122762e-06 1.4342687083358544e-04 0.0000000000000000e+00  -2.1853007437027133e-06 2.4889325956853933e-04 0.0000000000000000e+00  -2.5918898274190968e-06 3.1711240280695612e-04 0.0000000000000000e+00  -1.1260930624663439e-05 1.6671990303958941e-04 0.0000000000000000e+00  -1.9523865953528810e-06 2.2558849704873272e-04 0.0000000000000000e+00  -3.9223519322270318e-07 4.1058214246721088e-07 0.0000000000000000e+00  1.1435601905399112e-07 2.5186089744077943e-07 0.0000000000000000e+00  -1.0329486507865783e-05 4.5664977640247708e-04 0.0000000000000000e+00  -2.1790194758218746e-06 4.1442542512546016e-06 0.0000000000000000e+00  -6.2947586070381001e-07 2.0470071930049280e-04 0.000