<?xml version="1.0"?>
<VTKFile type="UnstructuredGrid"  version="0.1"  >
<UnstructuredGrid>
<Piece  NumberOfPoints="1419" NumberOfCells="2698">
<Points>
<DataArray  type="Float64"  NumberOfComponents="3"  format="ascii">0 0 0  0 0.41 0  2.5 0 0  2.5 0.41 0  0.6 0.19 0  0.6 0.21 0  0.25 0.2 0  0.15 0.2 0  0.2489897948556636 0.21 0  0.2489897948556636 0.19 0  0.6 0.2 0  0 0.3807142857143437 0  0 0.3514285714286952 0  0 0.3221428571430699 0  0 0.29285714285744 0  0 0.2635714285718054 0  0 0.2342857142861561 0  0 0.2050000000005308 0  0 0.175714285714732 0  0 0.1464285714289574 0  0 0.1171428571431897 0  0 0.08785714285737878 0  0 0.05857142857161107 0  0 0.02928571428580012 0  0.03015443760436003 0 0  0.06140001986583606 0 0  0.09377624077125973 0 0  0.1273239957535082 0 0  0.1620856860351972 0 0  0.1981052433264291 0 0  0.235428184091502 0 0  0.2741016576309132 0 0  0.3141745521465447 0 0  0.3556974926295285 0 0  0.3987229542472677 0 0  0.4433053055141081 0 0  0.4895008759286886 0 0  0.5373680609405097 0 0  0.5869673343216626 0 0  0.6383613676634521 0 0  0.6916151138468254 0 0  0.7467958595648856 0 0  0.8039733463919316 0 0  0.8632198139502143 0 0  0.9246101326867038 0 0  0.9882218810934433 0 0  1.054135445558498 0 0  1.122434100542598 0 0  1.193204177141305 0 0  1.266535089879536 0 0  1.342519516046404 0 0  1.421253448503939 0 0  1.502836389106271 0 0  1.587371439758838 0 0  1.674965418777374 0 0  1.765729001825544 0 0  1.859776908880082 0 0  1.957227977487062 0 0  2.058205329869943 0 0  2.162836591189951 0 0  2.271253957290865 0 0  2.383594446803425 0 0  2.5 0.1024999999997612 0  2.5 0.2049999999994743 0  2.5 0.3074999999997183 0  2.383594446803656 0.41 0  2.271253957291315 0.41 0  2.162836591190598 0.41 0  2.058205329870775 0.41 0  1.957227977488067 0.41 0  1.859776908881246 0.41 0  1.765729001826854 0.41 0  1.674965418778818 0.41 0  1.58737143976041 0.41 0  1.502836389107956 0.41 0  1.421253448505726 0.41 0  1.342519516048286 0.41 0  1.266535089881505 0.41 0  1.193204177143353 0.41 0  1.122434100544716 0.41 0  1.05413544556068 0.41 0  0.9882218810956305 0.41 0  0.9246101326886647 0.41 0  0.8632198139519631 0.41 0  0.8039733463934788 0.41 0  0.7467958595662458 0.41 0  0.6916151138480078 0.41 0  0.6383613676644679 0.41 0  0.5869673343225223 0.41 0  0.5373680609412221 0.41 0  0.4895008759292634 0.41 0  0.4433053055145528 0.41 0  0.3987229542475914 0.41 0  0.3556974926297398 0.41 0  0.3141745521466497 0.41 0  0.2741016576310038 0.41 0  0.2354281840915826 0.41 0  0.1981052433265003 0.41 0  0.1620856860352591 0.41 0  0.1273239957535623 0.41 0  0.09377624077128965 0.41 0  0.06140001986584975 0.41 0  0.03015443760436654 0.41 0  0.2497468076502589 0.2050254481002335 0  0.2497468076502614 0.1949745518997913 0  0.2469965252529372 0.1829317073451959 0  0.2439893735792749 0.1762316384219906 0  0.2400332147834255 0.1700443375285386 0  0.2352133972704371 0.1645032867342007 0  0.2296339016332438 0.1597280261969788 0  0.2234150974217223 0.1558215752574715 0  0.2166911463437691 0.1528682099456123 0  0.2096071079204251 0.1509316448471593 0  0.2023158100364996 0.1500536585536553 0  0.194974551899914 0.1502531923497262 0  0.1877417105387872 0.1515259415822739 0  0.1807733240461124 0.153844448527136 0  0.1742197252835808 0.15715869474974 0  0.1682222986673531 0.1613971801805478 0  0.162910430003803 0.1664684656256651 0  0.1583987151779087 0.1722631454351573 0  0.1547844879126891 0.178656207771761 0  0.1521457199348551 0.1855097315605723 0  0.1505393388476355 0.1926758619366523 0  0.1505393388476328 0.2073241380633295 0  0.1521457199348437 0.2144902684393899 0  0.1547844879126531 0.221343792228163 0  0.1583987151778488 0.2277368545647528 0  0.1629104300036858 0.2335315343742052 0  0.1682222986671726 0.2386028198193036 0  0.1742197252833576 0.2428413052501257 0  0.1807733240458683 0.2461555514727623 0  0.1877417105384929 0.2484740584176516 0  0.1949745518995776 0.2497468076502398 0  0.202315810036185 0.2499463414463592 0  0.2096071079201568 0.2490683551528932 0  0.2166911463435495 0.2471317900544655 0  0.2234150974215506 0.2441784247426195 0  0.2296339016331197 0.2402719738031125 0  0.2352133972703547 0.2354967132658811 0  0.2400332147833751 0.2299556624715287 0  0.2439893735792577 0.2237683615780412 0  0.246996525252926 0.2170682926548348 0  0.25645809709277 0.21 0  0.2639263993298655 0.21 0  0.271394701566961 0.21 0  0.2788630038040554 0.21 0  0.2863313060411479 0.21 0  0.2937996082782405 0.21 0  0.301267910515333 0.21 0  0.3087362127524279 0.21 0  0.3162045149895234 0.21 0  0.3236728172265972 0.21 0  0.3311411194636928 0.21 0  0.3386094217007701 0.21 0  0.3460777239378666 0.21 0  0.3535460261749672 0.21 0  0.3610143284120516 0.21 0  0.3684826306491596 0.21 0  0.3759509328862226 0.21 0  0.383419235123329 0.21 0  0.3908875373604028 0.21 0  0.3983558395975142 0.21 0  0.4058241418345938 0.21 0  0.4132924440716992 0.21 0  0.4207607463087888 0.21 0  0.4282290485459029 0.21 0  0.4356973507830418 0.21 0  0.4431656530201649 0.21 0  0.4506339552573136 0.21 0  0.4581022574944306 0.21 0  0.4655705597315852 0.21 0  0.4730388619686996 0.21 0  0.480507164205851 0.21 0  0.4879754664429498 0.21 0  0.4954437686800938 0.21 0  0.502912070917267 0.21 0  0.5103803731544119 0.21 0  0.5178486753915261 0.21 0  0.5253169776286404 0.21 0  0.5327852798657868 0.21 0  0.5402535821029386 0.21 0  0.54772188434007 0.21 0  0.5551901865771842 0.21 0  0.5626584888143201 0.21 0  0.5701267910514778 0.21 0  0.5775950932886138 0.21 0  0.5850633955257281 0.21 0  0.5925316977628483 0.21 0  0.6 0.2050000000000054 0  0.6 0.1950000000000217 0  0.5925316977628897 0.19 0  0.5850633955257988 0.19 0  0.5775950932887378 0.19 0  0.5701267910515998 0.19 0  0.5626584888145268 0.19 0  0.5551901865773963 0.19 0  0.547721884340339 0.19 0  0.5402535821032429 0.19 0  0.5327852798661811 0.19 0  0.5253169776290537 0.19 0  0.5178486753919799 0.19 0  0.5103803731549078 0.19 0  0.502912070917822 0.19 0  0.4954437686807294 0.19 0  0.4879754664436223 0.19 0  0.4805071642065402 0.19 0  0.4730388619694271 0.19 0  0.4655705597323621 0.19 0  0.4581022574952563 0.19 0  0.4506339552581777 0.19 0  0.4431656530210671 0.19 0  0.4356973507839815 0.19 0  0.4282290485468779 0.19 0  0.4207607463097617 0.19 0  0.4132924440726327 0.19 0  0.4058241418354857 0.19 0  0.3983558395983636 0.19 0  0.3908875373612097 0.19 0  0.3834192351240934 0.19 0  0.3759509328869369 0.19 0  0.3684826306498175 0.19 0  0.361014328412667 0.19 0  0.3535460261755617 0.19 0  0.3460777239384295 0.19 0  0.3386094217012945 0.19 0  0.3311411194641595 0.19 0  0.3236728172270245 0.19 0  0.3162045149898895 0.19 0  0.3087362127527544 0.19 0  0.3012679105156187 0.19 0  0.2937996082784807 0.19 0  0.2863313060413428 0.19 0  0.2788630038042048 0.19 0  0.2713947015670686 0.19 0  0.2639263993299336 0.19 0  0.2564580970927985 0.19 0  0.2607803159922026 0.2000727136295815 0  0.5887803774232762 0.2001272386983733 0  0.5745072403740523 0.2002044435018727 0  0.5511891430099709 0.2001122610077113 0  0.2751288526855082 0.20000000000002 0  0.5365194309847112 0.1999999999999436 0  0.2894621222999649 0.1998691686390484 0  0.5215828265105155 0.1999999999999228 0  0.3127789816668748 0.1998657885438805 0  0.3274069683451451 0.2000000000000796 0  0.5066462220363641 0.199999999999908 0  0.3650630746574081 0.199866017807523 0  0.476773013087985 0.1999999999998713 0  0.3417402379596385 0.1998691686391011 0  0.3796850840047755 0.200000000000134 0  0.4618364086138087 0.1999999999998546 0  0.4917096175621762 0.1999999999998808 0  0.3946216884789568 0.2000000000001512 0  0.446899804139621 0.1999999999998389 0  0.4089549580935208 0.1998691686391595 0  0.4322718174608562 0.200127451265745 0  0.4201487168029707 0.1999966199048527 0  0.3528922713220932 0.2000185703532356 0  0.5633122436674589 0.1999814296467508 0  0.3006558810093873 0.1999966199048318 0  0.5815926498168407 0.1966545283159175 0  0.2677053789419034 0.1964246479135325 0  0.5290511287476175 0.1970915826863981 0  0.5439877332217911 0.197091582686394 0  0.2825131256993216 0.2035478995978015 0  0.3199386661080599 0.202908417313604 0  0.4842413153250809 0.1970915826863873 0  0.5141145242734466 0.1970915826863843 0  0.3722167817676917 0.2029084173136195 0  0.4693047108508938 0.1970915826863783 0  0.3348752705822316 0.202908417313609 0  0.3871533862418661 0.2029084173136212 0  0.4543681063767183 0.1970915826863795 0  0.4991779197992749 0.1970915826863902 0  0.4020059614928624 0.203547899597858 0  0.4394315019025246 0.1970915826863714 0  0.2550657455369551 0.2034088125358657 0  0.2548908499171161 0.1966940311614271 0  0.5946539510196798 0.2024302972968126 0  0.267698176732111 0.2039977513680092 0  0.4261685417851465 0.196409292431739 0  0.3590076176283495 0.196411355804271 0  0.5571672426447437 0.2036011176410121 0  0.3066757059912147 0.1964092924317024 0  0.594380730180568 0.1966558399668133 0  0.4842413153245942 0.2040749161535287 0  0.4693047108503577 0.2040749161535231 0  0.3871533862424271 0.1959250838464788 0  0.372246743208829 0.1959123236376545 0  0.5141145242731028 0.2040749161535395 0  0.4543681063761134 0.2040749161535186 0  0.4019979587101454 0.1959834479682427 0  0.4394608940728603 0.2040870543693135 0  0.5439623148931173 0.2040856076781014 0  0.5290511287473298 0.2040749161535501 0  0.4991779197988497 0.2040749161535382 0  0.3347912413592433 0.1959225448935183 0  0.3199680582793816 0.1959123018030061 0  0.2825051229162361 0.1959834479681729 0  0.3590471196690275 0.2036304442587945 0  0.5571594006495384 0.1963685282145804 0  0.3067669986803285 0.203627750582736 0  0.4262598344738712 0.2036568242185335 0  0.5814408164431408 0.2041285596160068 0  0.5688286748170428 0.1961819304477386 0  0.4145905603063645 0.2038180695522843 0  0.3473758401724931 0.2038180695522752 0  0.2950977245128307 0.2038180695522663 0  0.5688286748170693 0.203818069552238 0  0.2950977245127906 0.1961819304477774 0  0.3473758401723931 0.1961819304478349 0  0.4145905603061963 0.1961819304479011 0  0.2601812407614425 0.2056861609747042
[...]
<PointData  Vectors="f_46-0"> 
<DataArray  type="Float64"  Name="f_46-0"  NumberOfComponents="3" format="ascii">0.0000000000000000e+00 0.0000000000000000e+00 0.0000000000000000e+00  0.0000000000000000e+00 0.0000000000000000e+00 0.0000000000000000e+00  0.0000000000000000e+00 0.0000000000000000e+00 0.0000000000000000e+00  0.0000000000000000e+00 0.0000000000000000e+00 0.0000000000000000e+00  -2.7583937541405055e-05 -3.0872706227437458e-04 0.0000000000000000e+00  -4.9196703930877324e-07 -3.0840898761133357e-04 0.0000000000000000e+00  0.0000000000000000e+00 0.0000000000000000e+00 0.0000000000000000e+00  0.0000000000000000e+00 0.0000000000000000e+00 0.0000000000000000e+00  0.0000000000000000e+00 0.0000000000000000e+00 0.0000000000000000e+00  0.0000000000000000e+00 0.0000000000000000e+00 0.0000000000000000e+00  -1.3862720369025753e-05 -3.0855887059100793e-04 0.0000000000000000e+00  7.9591836734548407e-02 0.0000000000000000e+00 0.0000000000000000e+00  1.4693877550994527e-01 0.0000000000000000e+00 0.0000000000000000e+00  2.0204081632617479e-01 0.0000000000000000e+00 0.0000000000000000e+00  2.4489795918330076e-01 0.0000000000000000e+00 0.0000000000000000e+00  2.7551020408131754e-01 0.0000000000000000e+00 0.0000000000000000e+00  2.9387755102022350e-01 0.0000000000000000e+00 0.0000000000000000e+00  3.0000000000000004e-01 0.0000000000000000e+00 0.0000000000000000e+00  2.9387755102059482e-01 0.0000000000000000e+00 0.0000000000000000e+00  2.7551020408195548e-01 0.0000000000000000e+00 0.0000000000000000e+00  2.4489795918409071e-01 0.0000000000000000e+00 0.0000000000000000e+00  2.0204081632692522e-01 0.0000000000000000e+00 0.0000000000000000e+00  1.4693877551058568e-01 0.0000000000000000e+00 0.0000000000000000e+00  7.9591836734909230e-02 0.0000000000000000e+00 0.0000000000000000e+00  0.0000000000000000e+00 0.0000000000000000e+00 0.0000000000000000e+00  0.0000000000000000e+00 0.0000000000000000e+00 0.0000000000000000e+00  0.0000000000000000e+00 0.0000000000000000e+00 0.0000000000000000e+00  0.0000000000000000e+00 0.0000000000000000e+00 0.0000000000000000e+00  0.0000000000000000e+00 0.0000000000000000e+00 0.0000000000000000e+00  0.0000000000000000e+00 0.0000000000000000e+00 0.0000000000000000e+00  0.0000000000000000e+00 0.0000000000000000e+00 0.0000000000000000e+00  0.0000000000000000e+00 0.0000000000000000e+00 0.0000000000000000e+00  0.0000000000000000e+00 0.0000000000000000e+00 0.0000000000000000e+00  0.0000000000000000e+00 0.0000000000000000e+00 0.0000000000000000e+00  0.0000000000000000e+00 0.0000000000000000e+00 0.0000000000000000e+00  0.0000000000000000e+00 0.0000000000000000e+00 0.0000000000000000e+00  0.0000000000000000e+00 0.0000000000000000e+00 0.0000000000000000e+00  0.0000000000000000e+00 0.0000000000000000e+00 0.0000000000000000e+00  0.0000000000000000e+00 0.0000000000000000e+00 0.0000000000000000e+00  0.0000000000000000e+00 0.0000000000000000e+00 0.0000000000000000e+00  0.0000000000000000e+00 0.0000000000000000e+00 0.0000000000000000e+00  0.0000000000000000e+00 0.0000000000000000e+00 0.0000000000000000e+00  0.0000000000000000e+00 0.0000000000000000e+00 0.0000000000000000e+00  0.0000000000000000e+00 0.0000000000000000e+00 0.0000000000000000e+00  0.0000000000000000e+00 0.0000000000000000e+00 0.0000000000000000e+00  0.0000000000000000e+00 0.0000000000000000e+00 0.0000000000000000e+00  0.0000000000000000e+00 0.0000000000000000e+00 0.0000000000000000e+00  0.0000000000000000e+00 0.0000000000000000e+00 0.0000000000000000e+00  0.0000000000000000e+00 0.0000000000000000e+00 0.0000000000000000e+00  0.0000000000000000e+00 0.0000000000000000e+00 0.0000000000000000e+00  0.0000000000000000e+00 0.0000000000000000e+00 0.0000000000000000e+00  0.0000000000000000e+00 0.0000000000000000e+00 0.0000000000000000e+00  0.0000000000000000e+00 0.0000000000000000e+00 0.0000000000000000e+00  0.0000000000000000e+00 0.0000000000000000e+00 0.0000000000000000e+00  0.0000000000000000e+00 0.0000000000000000e+00 0.0000000000000000e+00  0.0000000000000000e+00 0.0000000000000000e+00 0.0000000000000000e+00  0.0000000000000000e+00 0.0000000000000000e+00 0.0000000000000000e+00  0.0000000000000000e+00 0.0000000000000000e+00 0.0000000000000000e+00  0.0000000000000000e+00 0.0000000000000000e+00 0.0000000000000000e+00  0.0000000000000000e+00 0.0000000000000000e+00 0.0000000000000000e+00  0.0000000000000000e+00 0.0000000000000000e+00 0.0000000000000000e+00  0.0000000000000000e+00 0.0000000000000000e+00 0.0000000000000000e+00  2.6890369308135387e-01 8.2656381611070206e-03 0.0000000000000000e+00  2.5062954267651782e-01 5.6115364375311366e-03 0.0000000000000000e+00  2.7639087340729757e-01 -1.8457282238937660e-02 0.0000000000000000e+00  0.0000000000000000e+00 0.0000000000000000e+00 0.0000000000000000e+00  0.0000000000000000e+00 0.0000000000000000e+00 0.0000000000000000e+00  0.0000000000000000e+00 0.0000000000000000e+00 0.0000000000000000e+00  0.0000000000000000e+00 0.0000000000000000e+00 0.0000000000000000e+00  0.0000000000000000e+00 0.0000000000000000e+00 0.0000000000000000e+00  0.0000000000000000e+00 0.0000000000000000e+00 0.0000000000000000e+00  0.0000000000000000e+00 0.0000000000000000e+00 0.0000000000000000e+00  0.0000000000000000e+00 0.0000000000000000e+00 0.0000000000000000e+00  0.0000000000000000e+00 0.0000000000000000e+00 0.0000000000000000e+00  0.0000000000000000e+00 0.0000000000000000e+00 0.0000000000000000e+00  0.0000000000000000e+00 0.0000000000000000e+00 0.0000000000000000e+00  0.0000000000000000e+00 0.0000000000000000e+00 0.0000000000000000e+00  0.0000000000000000e+00 0.0000000000000000e+00 0.0000000000000000e+00  0.0000000000000000e+00 0.0000000000000000e+00 0.0000000000000000e+00  0.0000000000000000e+00 0.0000000000000000e+00 0.0000000000000000e+00  0.0000000000000000e+00 0.0000000000000000e+00 0.0000000000000000e+00  0.0000000000000000e+00 0.0000000000000000e+00 0.0000000000000000e+00  0.0000000000000000e+00 0.0000000000000000e+00 0.0000000000000000e+00  0.0000000000000000e+00 0.0000000000000000e+00 0.0000000000000000e+00  0.0000000000000000e+00 0.0000000000000000e+00 0.0000000000000000e+00  0.0000000000000000e+00 0.0000000000000000e+00 0.0000000000000000e+00  0.0000000000000000e+00 0.0000000000000000e+00 0.0000000000000000e+00  0.0000000000000000e+00 0.0000000000000000e+00 0.0000000000000000e+00  0.0000000000000000e+00 0.0000000000000000e+00 0.0000000000000000e+00  0.0000000000000000e+00 0.0000000000000000e+00 0.0000000000000000e+00  0.0000000000000000e+00 0.0000000000000000e+00 0.0000000000000000e+00  0.0000000000000000e+00 0.0000000000000000e+00 0.0000000000000000e+00  0.0000000000000000e+00 0.0000000000000000e+00 0.0000000000000000e+00  0.0000000000000000e+00 0.0000000000000000e+00 0.0000000000000000e+00  0.0000000000000000e+00 0.0000000000000000e+00 0.0000000000000000e+00  0.0000000000000000e+00 0.0000000000000000e+00 0.0000000000000000e+00  0.0000000000000000e+00 0.0000000000000000e+00 0.0000000000000000e+00  0.0000000000000000e+00 0.0000000000000000e+00 0.0000000000000000e+00  0.0000000000000000e+00 0.0000000000000000e+00 0.0000000000000000e+00  0.0000000000000000e+00 0.0000000000000000e+00 0.0000000000000000e+00  0.0000000000000000e+00 0.0000000000000000e+00 0.0000000000000000e+00  0.0000000000000000e+00 0.0000000000000000e+00 0.0000000000000000e+00  0.0000000000000000e+00 0.0000000000000000e+00 0.0000000000000000e+00  0.0000000000000000e+00 0.0000000000000000e+00 0.0000000000000000e+00  0.0000000000000000e+00 0.0000000000000000e+00 0.0000000000000000e+00  4.2209171794350577e-14 0.0000000000000000e+00 0.0000000000000000e+00  0.0000000000000000e+00 0.0000000000000000e+00 0.0000000000000000e+00  0.0000000000000000e+00 0.0000000000000000e+00 0.0000000000000000e+00  0.0000000000000000e+00 0.0000000000000000e+00 0.0000000000000000e+00  0.0000000000000000e+00 0.0000000000000000e+00 0.0000000000000000e+00  0.0000000000000000e+00 0.0000000000000000e+00 0.0000000000000000e+00  0.0000000000000000e+00 0.0000000000000000e+00 0.0000000000000000e+00  0.0000000000000000e+00 0.0000000000000000e+00 0.0000000000000000e+00  0.0000000000000000e+00 0.0000000000000000e+00 0.0000000000000000e+00  0.0000000000000000e+00 0.0000000000000000e+00 0.0000000000000000e+00  0.0000000000000000e+00 0.0000000000000000e+00 0.0000000000000000e+00  0.0000000000000000e+00 0.0000000000000000e+00 0.0000000000000000e+00  0.0000000000000000e+00 0.0000000000000000e+00 0.0000000000000000e+00  0.0000000000000000e+00 0.0000000000000000e+00 0.0000000000000000e+00  0.0000000000000000e+00 0.0000000000000000e+00 0.0000000000000000e+00  0.0000000000000000e+00 0.0000000000000000e+00 0.0000000000000000e+00  0.0000000000000000e+00 0.0000000000000000e+00 0.0000000000000000e+00  0.0000000000000000e+00 0.0000000000000000e+00 0.0000000000000000e+00  0.0000000000000000e+00 0.0000000000000000e+00 0.0000000000000000e+00  0.0000000000000000e+00 0.0000000000000000e+00 0.0000000000000000e+00  0.0000000000000000e+00 0.0000000000000000e+00 0.0000000000000000e+00  0.0000000000000000e+00 0.0000000000000000e+00 0.0000000000000000e+00  0.0000000000000000e+00 0.0000000000000000e+00 0.0000000000000000e+00  0.0000000000000000e+00 0.0000000000000000e+00 0.0000000000000000e+00  0.0000000000000000e+00 0.0000000000000000e+00 0.0000000000000000e+00  0.0000000000000000e+00 0.0000000000000000e+00 0.0000000000000000e+00  0.0000000000000000e+00 0.0000000000000000e+00 0.0000000000000000e+00  0.0000000000000000e+00 0.0000000000000000e+00 0.0000000000000000e+00  0.0000000000000000e+00 0.0000000000000000e+00 0.0000000000000000e+00  0.0000000000000000e+00 0.0000000000000000e+00 0.0000000000000000e+00  0.0000000000000000e+00 0.0000000000000000e+00 0.0000000000000000e+00  0.0000000000000000e+00 0.0000000000000000e+00 0.0000000000000000e+00  0.0000000000000000e+00 0.0000000000000000e+00 0.0000000000000000e+00  0.0000000000000000e+00 0.0000000000000000e+00 0.0000000000000000e+00  0.0000000000000000e+00 0.0000000000000000e+00 0.0000000000000000e+00  0.0000000000000000e+00 0.0000000000000000e+00 0.0000000000000000e+00  0.0000000000000000e+00 0.0000000000000000e+00 0.0000000000000000e+00  -2.1112420011873113e-13 -1.5617881619951767e-13 0.0000000000000000e+00  -5.8965071508931983e-07 8.8841126804036974e-07 0.0000000000000000e+00  -1.1371109544329499e-06 9.4515533138289005e-07 0.0000000000000000e+00  -1.6949529991801996e-06 7.4881725463348265e-07 0.0000000000000000e+00  -2.1718094576219945e-06 3.0131270457280482e-07 0.0000000000000000e+00  -2.6350919625564370e-06 -4.5090931680957309e-07 0.0000000000000000e+00  -2.9451083655242500e-06 -1.5207651735086129e-06 0.0000000000000000e+00  -3.2812858732216208e-06 -2.9004391379425607e-06 0.0000000000000000e+00  -3.5354086470244968e-06 -4.7114173260039132e-06 0.0000000000000000e+00  -3.6305359293275087e-06 -6.8757097521782436e-06 0.0000000000000000e+00  -3.7730445238755512e-06 -9.4755333115571101e-06 0.0000000000000000e+00  -3.7072965726983697e-06 -1.2463848473829088e-05 0.0000000000000000e+00  -3.7279541042555326e-06 -1.5920186622310653e-05 0.0000000000000000e+00  -3.5538900978538418e-06 -1.9784848557762893e-05 0.0000000000000000e+00  -3.4628447580898215e-06 -2.4020360344044494e-05 0.0000000000000000e+00  -3.3182704241260050e-06 -2.8740441477219798e-05 0.0000000000000000e+00  -3.0444069497148057e-06 -3.3823188191063046e-05 0.0000000000000000e+00  -2.8723430170973496e-06 -3.9331034744746055e-05 0.0000000000000000e+00  -2.5457946302285431e-06 -4.5212794260350083e-05 0.0000000000000000e+00  -2.3480006260067226e-06 -5.1495849155626681e-05 0.0000000000000000e+00  -2.0281769673945347e-06 -5.8112340987225240e-05 0.0000000000000000e+00  -1.8038645968342676e-06 -6.5104054286812030e-05 0.0000000000000000e+00  -1.5035663194876009e-06 -7.2426801919263321e-05 0.0000000000000000e+00  -1.3008070397143255e-06 -8.0007450525495933e-05 0.0000000000000000e+00  -1.1066305513923763e-06 -8.7924353078060394e-05 0.0000000000000000e+00  -8.6737397988115927e-07 -9.6062286969834902e-05 0.0000000000000000e+00  -6.9640297763900156e-07 -1.0447354662216730e-04 0.0000000000000000e+00  -5.2331441559141039e-07 -1.1310595367958044e-04 0.0000000000000000e+00  -3.9221955218684723e-07 -1.2193908630830891e-04 0.0000000000000000e+00  -2.6473344127881556e-07 -1.3096291242668757e-04 0.0000000000000000e+00  -1.7466910457668499e-07 -1.4014788536134042e-04 0.0000000000000000e+00  -9.1441478423576949e-08 -1.4948742371724888e-04 0.0000000000000000e+00  -4.0077961937982932e-08 -1.5895539762938586e-04 0.0000000000000000e+00  4.7603546028054151e-09 -1.6854350697987651e-04 0.0000000000000000e+00  2.3174343615997441e-08 -1.7822834274931114e-04 0.0000000000000000e+00  3.4644335199936794e-08 -1.8800312163304471e-04 0.0000000000000000e+00  2.6255153505590755e-08 -1.9785078494777335e-04 0.0000000000000000e+00  1.2423912476174055e-08 -2.0776183981142786e-04 0.0000000000000000e+00  -1.5760425983773996e-08 -2.1772346172843618e-04 0.0000000000000000e+00  -4.7961710502348860e-08 -2.2772618489376464e-04 0.0000000000000000e+00  -8.8803121951808878e-08 -2.3776440034861500e-04 0.0000000000000000e+00  -1.2852209505877810e-07 -2.4783207086224101e-04 0.0000000000000000e+00  -1.7526293126171419e-07 -2.5791760714418251e-04 0.0000000000000000e+00  -2.2440842178983903e-07 -2.6802109875293184e-04 0.0000000000000000e+00  -2.7264793466527838e-07 -2.7813516859517205e-04 0.0000000000000000e+00  -3.1889230799531180e-07 -2.8826271133368901e-04 0.0000000000000000e+00  -3.8142457737194796e-07 -2.9837688242640722e-04 0.0000000000000000e+00  -7.1230601704829119e-06 -3.0848553092116608e-04 0.0000000000000000e+00  -2.0669680444006768e-05 -3.0863254183911419e-04 0.0000000000000000e+00  -2.7464304717565660e-05 -2.9851045162600475e-04 0.0000000000000000e+00  -2.7393691858737428e-05 -2.8839995054380670e-04 0.0000000000000000e+00  -2.7331045646756740e-05 -2.7830362509962189e-04 0.0000000000000000e+00  -2.7252127605540927e-05 -2.6820630987846338e-04 0.0000000000000000e+00  -2.7168806788590811e-05 -2.5811658494957285e-04 0.0000000000000000e+00  -2.7073530279777154e-05 -2.4804430600261111e-04 0.0000000000000000e+00  -2.6959896573511668e-05 -2.3798653746060896e-04 0.0000000000000000e+00  -2.6840032925189482e-05 -2.2796194061594304e-04 0.0000000000000000e+00  -2.6692017677609937e-05 -2.1796135063783558e-04 0.0000000000000000e+00  -2.6543852099772797e-05 -2.0801240193553578e-04 0.0000000000000000e+00  -2.6359515840187581e-05 -1.9810330662498401e-04 0.0000000000000000e+00  -2.6179618622075486e-05 -1.8826772213779145e-04 0.0000000000000000e+00  -2.5952103775432514e-05 -1.7849474451916422e-04 0.0000000000000000e+00  -2.5735152659475806e-05 -1.6881941011657038e-04 0.0000000000000000e+00  -2.5459239054127128e-05 -1.5923324530961829e-04 0.0000000000000000e+00  -2.5200788329306527e-05 -1.4977488338247213e-04 0.0000000000000000e+00  -2.4870622237724583e-05 -1.4043627365362834e-04 0.0000000000000000e+00  -2.4567299067272741e-05 -1.3126122298821286e-04 0.0000000000000000e+00  -2.4176537812349942e-05 -1.2224114073300477e-04 0.0000000000000000e+00  -2.3821678033593326e-05 -1.1342120013194141e-04 0.0000000000000000e+00  -2.3361287356149169e-05 -1.0479534164226204e-04 0.0000000000000000e+00  -2.2946024943631548e-05 -9.6413346519348981e-05 0.0000000000000000e+00  -2.2414138543007151e-05 -8.8274775767953974e-05 0.0000000000000000e+00  -2.1918498837246100e-05 -8.0388510096947798e-05 0.0000000000000000e+00  -2.1390991832295991e-05 -7.2838904800436773e-05 0.0000000000000000e+00  -2.0758460002709142e-05 -6.5538787462382527e-05 0.0000000000000000e+00  -2.0135074483956190e-05 -5.8619637861926421e-05 0.0000000000000000e+00  -1.9427459279449855e-05 -5.2018184363535034e-05 0.0000000000000000e+00  -1.8715230759528659e-05 -4.5821877303185224e-05 0.0000000000000000e+00  -1.7919567988781021e-05 -3.9983536011605069e-05 0.0000000000000000e+00  -1.7111369802081748e-05 -3.4564615002939542e-05 0.0000000000000000e+00  -1.6171206340386717e-05 -2.9581791727394667e-05 0.0000000000000000e+00  -1.5290132303955258e-05 -2.4961329729012168e-05 0.0000000000000000e+00  -1.4361323147372181e-05 -2.0830111163075647e-05 0.0000000000000000e+00  -1.3300260543759402e-05 -1.7043112927337182e-05 0.0000000000000000e+00  -1.2246143559676983e-05 -1.3745182830788527e-05 0.0000000000000000e+00  -1.1104100550734928e-05 -1.0833524215147440e-05 0.0000000000000000e+00  -9.9651932147722171e-06 -8.3566079932434562e-06 0.0000000000000000e+00  -8.7161065984520614e-06 -6.3088155191150573e-06 0.0000000000000000e+00  -7.5442501379552835e-06 -4.5861649764622295e-06 0.0000000000000000e+00  -6.3633614995583024e-06 -3.2829641924152468e-06 0.0000000000000000e+00  -5.1093285682202233e-06 -2.2505238616416816e-06 0.0000000000000000e+00  -3.9358868946461303e-06 -1.5552078094243154e-06 0.0000000000000000e+00  -2.7631537514938474e-06 -1.1385262031280960e-06 0.0000000000000000e+00  -1.7153202176755468e-06 -8.9599227374632465e-07 0.0000000000000000e+00  -7.7114531380413979e-07 -7.9728404495243943e-07 0.0000000000000000e+00  -9.2653163392332882e-07 1.5377129273483087e-07 0.0000000000000000e+00  -1.3649453103767374e-05 -2.9336112398034440e-04 0.0000000000000000e+00  -1.3471724242098814e-05 -2.7403143509009410e-04 0.0000000000000000e+00  -1.3384337981569026e-05 -2.4252532266024639e-04 0.0000000000000000e+00  -2.6047876262268145e-06 -2.2244992160522462e-07 0.0000000000000000e+00  -1.3371538300446538e-05 -2.2281194278313496e-04 0.0000000000000000e+00  -4.1751884222793811e-06 -1.5506511072089330e-06 0.0000000000000000e+00  -1.3190023892721576e-05 -2.0288597516145447e-04 0.0000000000000000e+00  -6.4754989281962961e-06 -6.3527613682556989e-06 0.0000000000000000e+00  -7.6355852653654655e-06 -1.1312424033571888e-05 0.0000000000000000e+00  -1.2993042539841235e-05 -1.8318411556510032e-04 0.0000000000000000e+00  -9.9753241558100266e-06 -3.1573386057351855e-05 0.0000000000000000e+00  -1.2560142067856250e-05 -1.4485053636382691e-04 0.0000000000000000e+00  -8.7036199697635095e-06 -1.7756601974940026e-05 0.0000000000000000e+00  -1.0461774246713033e-05 -4.2290071840247533e-05 0.0000000000000000e+00  -1.2325647542242779e-05 -1.2646191593715608e-04 0.0000000000000000e+00  -1.2782645176019869e-05 -1.6380155732566651e-04 0.0000000000000000e+00  -1.0940721343377778e-05 -5.4784389337627916e-05 0.0000000000000000e+00  -1.2077095250444918e-05 -1.0878041557511540e-04 0.0000000000000000e+00  -1.1446409061956946e-05 -6.8130940005699351e-05 0.0000000000000000e+00  -1.1674807890603431e-05 -9.2299613762137581e-05 0.0000000000000000e+00  -1.1565458905709472e-05 -7.9425312449769771e-05 0.0000000000000000e+00  -9.2570127750735961e-06 -2.3907401006204652e-05 0.0000000000000000e+00  -1.3672542527470854e-05 -2.5889232045474958e-04 0.0000000000000000e+00  -5.2826544968867016e-06 -3.4504806270448343e-06 0.0000000000000000e+00  -1.8321486392918238e-05 -2.8364915038360972e-04 0.0000000000000000e+00  -1.9218890976779075e-06 -3.0443355041572181e-07 0.0000000000000000e+00  -1.7153527165884354e-05 -2.1286632410469789e-04 0.0000000000000000e+00  -1.7358490359300066e-05 -2.3287092648412294e-04 0.0000000000000000e+00  -3.0394998161879147e-06 -4.6901102860942942e-07 0.0000000000000000e+00  -6.0446900919609890e-06 -8.4044502288595394e-06 0.0000000000000000e+00  -1.6346009644353715e-05 -1.5431696470272492e-04 0.0000000000000000e+00  -1.6917732226846675e-05 -1.9304557114353896e-04 0.0000000000000000e+00  -8.0606078121940666e-06 -3.6553406479597716e-05 0.0000000000000000e+00  -1.6006204164179007e-05 -1.3563465329440656e-04 0.0000000000000000e+00  -6.8724721060220424e-06 -1.4330435477730751e-05 0.0000000000000000e+00  -8.3015267147172660e-06 -4.8299898539786453e-05 0.0000000000000000e+00  -1.5625417518696859e-05 -1.1758589803329556e-04 0.0000000000000000e+00  -1.6649194999706194e-05 -1.7349481261425313e-04 0.0000000000000000e+00  -7.8708339194461899e-06 -6.1453984400838360e-05 0.0000000000000000e+00  -1.5200647738048769e-05 -1.0032268873685193e-04 0.0000000000000000e+00  -3.2056713155194820e-07 3.0603202069986930e-07 0.0000000000000000e+00  -3.5024755746143383e-07 -9.9233081529460802e-08 0.0000000000000000e+00  -1.0551852903392