<?xml version="1.0"?>
<VTKFile type="UnstructuredGrid"  version="0.1"  >
<UnstructuredGrid>
<Piece  NumberOfPoints="1419" NumberOfCells="2698">
<Points>
<DataArray  type="Float64"  NumberOfComponents="3"  format="ascii">0 0 0  0 0.41 0  2.5 0 0  2.5 0.41 0  0.6 0.19 0  0.6 0.21 0  0.25 0.2 0  0.15 0.2 0  0.2489897948556636 0.21 0  0.2489897948556636 0.19 0  0.6 0.2 0  0 0.3807142857143437 0  0 0.3514285714286952 0  0 0.3221428571430699 0  0 0.29285714285744 0  0 0.2635714285718054 0  0 0.2342857142861561 0  0 0.2050000000005308 0  0 0.175714285714732 0  0 0.1464285714289574 0  0 0.1171428571431897 0  0 0.08785714285737878 0  0 0.05857142857161107 0  0 0.02928571428580012 0  0.03015443760436003 0 0  0.06140001986583606 0 0  0.09377624077125973 0 0  0.1273239957535082 0 0  0.1620856860351972 0 0  0.1981052433264291 0 0  0.235428184091502 0 0  0.2741016576309132 0 0  0.3141745521465447 0 0  0.3556974926295285 0 0  0.3987229542472677 0 0  0.4433053055141081 0 0  0.4895008759286886 0 0  0.5373680609405097 0 0  0.5869673343216626 0 0  0.6383613676634521 0 0  0.6916151138468254 0 0  0.7467958595648856 0 0  0.8039733463919316 0 0  0.8632198139502143 0 0  0.9246101326867038 0 0  0.9882218810934433 0 0  1.054135445558498 0 0  1.122434100542598 0 0  1.193204177141305 0 0  1.266535089879536 0 0  1.342519516046404 0 0  1.421253448503939 0 0  1.502836389106271 0 0  1.587371439758838 0 0  1.674965418777374 0 0  1.765729001825544 0 0  1.859776908880082 0 0  1.957227977487062 0 0  2.058205329869943 0 0  2.162836591189951 0 0  2.271253957290865 0 0  2.383594446803425 0 0  2.5 0.1024999999997612 0  2.5 0.2049999999994743 0  2.5 0.3074999999997183 0  2.383594446803656 0.41 0  2.271253957291315 0.41 0  2.162836591190598 0.41 0  2.058205329870775 0.41 0  1.957227977488067 0.41 0  1.859776908881246 0.41 0  1.765729001826854 0.41 0  1.674965418778818 0.41 0  1.58737143976041 0.41 0  1.502836389107956 0.41 0  1.421253448505726 0.41 0  1.342519516048286 0.41 0  1.266535089881505 0.41 0  1.193204177143353 0.41 0  1.122434100544716 0.41 0  1.05413544556068 0.41 0  0.9882218810956305 0.41 0  0.9246101326886647 0.41 0  0.8632198139519631 0.41 0  0.8039733463934788 0.41 0  0.7467958595662458 0.41 0  0.6916151138480078 0.41 0  0.6383613676644679 0.41 0  0.5869673343225223 0.41 0  0.5373680609412221 0.41 0  0.4895008759292634 0.41 0  0.4433053055145528 0.41 0  0.3987229542475914 0.41 0  0.3556974926297398 0.41 0  0.3141745521466497 0.41 0  0.2741016576310038 0.41 0  0.2354281840915826 0.41 0  0.1981052433265003 0.41 0  0.1620856860352591 0.41 0  0.1273239957535623 0.41 0  0.09377624077128965 0.41 0  0.06140001986584975 0.41 0  0.03015443760436654 0.41 0  0.2497468076502589 0.2050254481002335 0  0.2497468076502614 0.1949745518997913 0  0.2469965252529372 0.1829317073451959 0  0.2439893735792749 0.1762316384219906 0  0.2400332147834255 0.1700443375285386 0  0.2352133972704371 0.1645032867342007 0  0.2296339016332438 0.1597280261969788 0  0.2234150974217223 0.1558215752574715 0  0.2166911463437691 0.1528682099456123 0  0.2096071079204251 0.1509316448471593 0  0.2023158100364996 0.1500536585536553 0  0.194974551899914 0.1502531923497262 0  0.1877417105387872 0.1515259415822739 0  0.1807733240461124 0.153844448527136 0  0.1742197252835808 0.15715869474974 0  0.1682222986673531 0.1613971801805478 0  0.162910430003803 0.1664684656256651 0  0.1583987151779087 0.1722631454351573 0  0.1547844879126891 0.178656207771761 0  0.1521457199348551 0.1855097315605723 0  0.1505393388476355 0.1926758619366523 0  0.1505393388476328 0.2073241380633295 0  0.1521457199348437 0.2144902684393899 0  0.1547844879126531 0.221343792228163 0  0.1583987151778488 0.2277368545647528 0  0.1629104300036858 0.2335315343742052 0  0.1682222986671726 0.2386028198193036 0  0.1742197252833576 0.2428413052501257 0  0.1807733240458683 0.2461555514727623 0  0.1877417105384929 0.2484740584176516 0  0.1949745518995776 0.2497468076502398 0  0.202315810036185 0.2499463414463592 0  0.2096071079201568 0.2490683551528932 0  0.2166911463435495 0.2471317900544655 0  0.2234150974215506 0.2441784247426195 0  0.2296339016331197 0.2402719738031125 0  0.2352133972703547 0.2354967132658811 0  0.2400332147833751 0.2299556624715287 0  0.2439893735792577 0.2237683615780412 0  0.246996525252926 0.2170682926548348 0  0.25645809709277 0.21 0  0.2639263993298655 0.21 0  0.271394701566961 0.21 0  0.2788630038040554 0.21 0  0.2863313060411479 0.21 0  0.2937996082782405 0.21 0  0.301267910515333 0.21 0  0.3087362127524279 0.21 0  0.3162045149895234 0.21 0  0.3236728172265972 0.21 0  0.3311411194636928 0.21 0  0.3386094217007701 0.21 0  0.3460777239378666 0.21 0  0.3535460261749672 0.21 0  0.3610143284120516 0.21 0  0.3684826306491596 0.21 0  0.3759509328862226 0.21 0  0.383419235123329 0.21 0  0.3908875373604028 0.21 0  0.3983558395975142 0.21 0  0.4058241418345938 0.21 0  0.4132924440716992 0.21 0  0.4207607463087888 0.21 0  0.4282290485459029 0.21 0  0.4356973507830418 0.21 0  0.4431656530201649 0.21 0  0.4506339552573136 0.21 0  0.4581022574944306 0.21 0  0.4655705597315852 0.21 0  0.4730388619686996 0.21 0  0.480507164205851 0.21 0  0.4879754664429498 0.21 0  0.4954437686800938 0.21 0  0.502912070917267 0.21 0  0.5103803731544119 0.21 0  0.5178486753915261 0.21 0  0.5253169776286404 0.21 0  0.5327852798657868 0.21 0  0.5402535821029386 0.21 0  0.54772188434007 0.21 0  0.5551901865771842 0.21 0  0.5626584888143201 0.21 0  0.5701267910514778 0.21 0  0.5775950932886138 0.21 0  0.5850633955257281 0.21 0  0.5925316977628483 0.21 0  0.6 0.2050000000000054 0  0.6 0.1950000000000217 0  0.5925316977628897 0.19 0  0.5850633955257988 0.19 0  0.5775950932887378 0.19 0  0.5701267910515998 0.19 0  0.5626584888145268 0.19 0  0.5551901865773963 0.19 0  0.547721884340339 0.19 0  0.5402535821032429 0.19 0  0.5327852798661811 0.19 0  0.5253169776290537 0.19 0  0.5178486753919799 0.19 0  0.5103803731549078 0.19 0  0.502912070917822 0.19 0  0.4954437686807294 0.19 0  0.4879754664436223 0.19 0  0.4805071642065402 0.19 0  0.4730388619694271 0.19 0  0.4655705597323621 0.19 0  0.4581022574952563 0.19 0  0.4506339552581777 0.19 0  0.4431656530210671 0.19 0  0.4356973507839815 0.19 0  0.4282290485468779 0.19 0  0.4207607463097617 0.19 0  0.4132924440726327 0.19 0  0.4058241418354857 0.19 0  0.3983558395983636 0.19 0  0.3908875373612097 0.19 0  0.3834192351240934 0.19 0  0.3759509328869369 0.19 0  0.3684826306498175 0.19 0  0.361014328412667 0.19 0  0.3535460261755617 0.19 0  0.3460777239384295 0.19 0  0.3386094217012945 0.19 0  0.3311411194641595 0.19 0  0.3236728172270245 0.19 0  0.3162045149898895 0.19 0  0.3087362127527544 0.19 0  0.3012679105156187 0.19 0  0.2937996082784807 0.19 0  0.2863313060413428 0.19 0  0.2788630038042048 0.19 0  0.2713947015670686 0.19 0  0.2639263993299336 0.19 0  0.2564580970927985 0.19 0  0.2607803159922026 0.2000727136295815 0  0.5887803774232762 0.2001272386983733 0  0.5745072403740523 0.2002044435018727 0  0.5511891430099709 0.2001122610077113 0  0.2751288526855082 0.20000000000002 0  0.5365194309847112 0.1999999999999436 0  0.2894621222999649 0.1998691686390484 0  0.5215828265105155 0.1999999999999228 0  0.3127789816668748 0.1998657885438805 0  0.3274069683451451 0.2000000000000796 0  0.5066462220363641 0.199999999999908 0  0.3650630746574081 0.199866017807523 0  0.476773013087985 0.1999999999998713 0  0.3417402379596385 0.1998691686391011 0  0.3796850840047755 0.200000000000134 0  0.4618364086138087 0.1999999999998546 0  0.4917096175621762 0.1999999999998808 0  0.3946216884789568 0.2000000000001512 0  0.446899804139621 0.1999999999998389 0  0.4089549580935208 0.1998691686391595 0  0.4322718174608562 0.200127451265745 0  0.4201487168029707 0.1999966199048527 0  0.3528922713220932 0.2000185703532356 0  0.5633122436674589 0.1999814296467508 0  0.3006558810093873 0.1999966199048318 0  0.5815926498168407 0.1966545283159175 0  0.2677053789419034 0.1964246479135325 0  0.5290511287476175 0.1970915826863981 0  0.5439877332217911 0.197091582686394 0  0.2825131256993216 0.2035478995978015 0  0.3199386661080599 0.202908417313604 0  0.4842413153250809 0.1970915826863873 0  0.5141145242734466 0.1970915826863843 0  0.3722167817676917 0.2029084173136195 0  0.4693047108508938 0.1970915826863783 0  0.3348752705822316 0.202908417313609 0  0.3871533862418661 0.2029084173136212 0  0.4543681063767183 0.1970915826863795 0  0.4991779197992749 0.1970915826863902 0  0.4020059614928624 0.203547899597858 0  0.4394315019025246 0.1970915826863714 0  0.2550657455369551 0.2034088125358657 0  0.2548908499171161 0.1966940311614271 0  0.5946539510196798 0.2024302972968126 0  0.267698176732111 0.2039977513680092 0  0.4261685417851465 0.196409292431739 0  0.3590076176283495 0.196411355804271 0  0.5571672426447437 0.2036011176410121 0  0.3066757059912147 0.1964092924317024 0  0.594380730180568 0.1966558399668133 0  0.4842413153245942 0.2040749161535287 0  0.4693047108503577 0.2040749161535231 0  0.3871533862424271 0.1959250838464788 0  0.372246743208829 0.1959123236376545 0  0.5141145242731028 0.2040749161535395 0  0.4543681063761134 0.2040749161535186 0  0.4019979587101454 0.1959834479682427 0  0.4394608940728603 0.2040870543693135 0  0.5439623148931173 0.2040856076781014 0  0.5290511287473298 0.2040749161535501 0  0.4991779197988497 0.2040749161535382 0  0.3347912413592433 0.1959225448935183 0  0.3199680582793816 0.1959123018030061 0  0.2825051229162361 0.1959834479681729 0  0.3590471196690275 0.2036304442587945 0  0.5571594006495384 0.1963685282145804 0  0.3067669986803285 0.203627750582736 0  0.4262598344738712 0.2036568242185335 0  0.5814408164431408 0.2041285596160068 0  0.5688286748170428 0.1961819304477386 0  0.4145905603063645 0.2038180695522843 0  0.3473758401724931 0.2038180695522752 0  0.2950977245128307 0.2038180695522663 0  0.5688286748170693 0.203818069552238 0  0.2950977245127906 0.1961819304477774 0  0.3473758401723931 0.1961819304478349 0  0.4145905603061963 0.1961819304479011 0  0.2601812407614425 0.2056861609747042
[...]
<PointData  Vectors="f_46-0"> 
<DataArray  type="Float64"  Name="f_46-0"  NumberOfComponents="3" format="ascii">0.0000000000000000e+00 0.0000000000000000e+00 0.0000000000000000e+00  0.0000000000000000e+00 0.0000000000000000e+00 0.0000000000000000e+00  0.0000000000000000e+00 0.0000000000000000e+00 0.0000000000000000e+00  0.0000000000000000e+00 0.0000000000000000e+00 0.0000000000000000e+00  3.8041296173311940e-05 1.0951633359059531e-03 0.0000000000000000e+00  -4.6038592605321133e-05 1.0951591090887375e-03 0.0000000000000000e+00  0.0000000000000000e+00 0.0000000000000000e+00 0.0000000000000000e+00  0.0000000000000000e+00 0.0000000000000000e+00 0.0000000000000000e+00  0.0000000000000000e+00 0.0000000000000000e+00 0.0000000000000000e+00  0.0000000000000000e+00 0.0000000000000000e+00 0.0000000000000000e+00  -3.9838093293658337e-06 1.0951519660645341e-03 0.0000000000000000e+00  7.9591836734548407e-02 0.0000000000000000e+00 0.0000000000000000e+00  1.4693877550994527e-01 0.0000000000000000e+00 0.0000000000000000e+00  2.0204081632617479e-01 0.0000000000000000e+00 0.0000000000000000e+00  2.4489795918330076e-01 0.0000000000000000e+00 0.0000000000000000e+00  2.7551020408131754e-01 0.0000000000000000e+00 0.0000000000000000e+00  2.9387755102022350e-01 0.0000000000000000e+00 0.0000000000000000e+00  3.0000000000000004e-01 0.0000000000000000e+00 0.0000000000000000e+00  2.9387755102059482e-01 0.0000000000000000e+00 0.0000000000000000e+00  2.7551020408195548e-01 0.0000000000000000e+00 0.0000000000000000e+00  2.4489795918409071e-01 0.0000000000000000e+00 0.0000000000000000e+00  2.0204081632692525e-01 0.0000000000000000e+00 0.0000000000000000e+00  1.4693877551058568e-01 0.0000000000000000e+00 0.0000000000000000e+00  7.9591836734909230e-02 0.0000000000000000e+00 0.0000000000000000e+00  0.0000000000000000e+00 0.0000000000000000e+00 0.0000000000000000e+00  0.0000000000000000e+00 0.0000000000000000e+00 0.0000000000000000e+00  0.0000000000000000e+00 0.0000000000000000e+00 0.0000000000000000e+00  0.0000000000000000e+00 0.0000000000000000e+00 0.0000000000000000e+00  0.0000000000000000e+00 0.0000000000000000e+00 0.0000000000000000e+00  0.0000000000000000e+00 0.0000000000000000e+00 0.0000000000000000e+00  0.0000000000000000e+00 0.0000000000000000e+00 0.0000000000000000e+00  0.0000000000000000e+00 0.0000000000000000e+00 0.0000000000000000e+00  0.0000000000000000e+00 0.0000000000000000e+00 0.0000000000000000e+00  0.0000000000000000e+00 0.0000000000000000e+00 0.0000000000000000e+00  0.0000000000000000e+00 0.0000000000000000e+00 0.0000000000000000e+00  0.0000000000000000e+00 0.0000000000000000e+00 0.0000000000000000e+00  0.0000000000000000e+00 0.0000000000000000e+00 0.0000000000000000e+00  0.0000000000000000e+00 0.0000000000000000e+00 0.0000000000000000e+00  0.0000000000000000e+00 0.0000000000000000e+00 0.0000000000000000e+00  0.0000000000000000e+00 0.0000000000000000e+00 0.0000000000000000e+00  0.0000000000000000e+00 0.0000000000000000e+00 0.0000000000000000e+00  0.0000000000000000e+00 0.0000000000000000e+00 0.0000000000000000e+00  0.0000000000000000e+00 0.0000000000000000e+00 0.0000000000000000e+00  0.0000000000000000e+00 0.0000000000000000e+00 0.0000000000000000e+00  0.0000000000000000e+00 0.0000000000000000e+00 0.0000000000000000e+00  0.0000000000000000e+00 0.0000000000000000e+00 0.0000000000000000e+00  0.0000000000000000e+00 0.0000000000000000e+00 0.0000000000000000e+00  0.0000000000000000e+00 0.0000000000000000e+00 0.0000000000000000e+00  0.0000000000000000e+00 0.0000000000000000e+00 0.0000000000000000e+00  0.0000000000000000e+00 0.0000000000000000e+00 0.0000000000000000e+00  0.0000000000000000e+00 0.0000000000000000e+00 0.0000000000000000e+00  0.0000000000000000e+00 0.0000000000000000e+00 0.0000000000000000e+00  0.0000000000000000e+00 0.0000000000000000e+00 0.0000000000000000e+00  0.0000000000000000e+00 0.0000000000000000e+00 0.0000000000000000e+00  0.0000000000000000e+00 0.0000000000000000e+00 0.0000000000000000e+00  0.0000000000000000e+00 0.0000000000000000e+00 0.0000000000000000e+00  0.0000000000000000e+00 0.0000000000000000e+00 0.0000000000000000e+00  0.0000000000000000e+00 0.0000000000000000e+00 0.0000000000000000e+00  0.0000000000000000e+00 0.0000000000000000e+00 0.0000000000000000e+00  0.0000000000000000e+00 0.0000000000000000e+00 0.0000000000000000e+00  0.0000000000000000e+00 0.0000000000000000e+00 0.0000000000000000e+00  0.0000000000000000e+00 0.0000000000000000e+00 0.0000000000000000e+00  2.4898880066188525e-01 1.4002593140612048e-03 0.0000000000000000e+00  3.0409599066162057e-01 4.5629198221608155e-03 0.0000000000000000e+00  2.4283968866502692e-01 -7.1190559167374490e-03 0.0000000000000000e+00  0.0000000000000000e+00 0.0000000000000000e+00 0.0000000000000000e+00  0.0000000000000000e+00 0.0000000000000000e+00 0.0000000000000000e+00  0.0000000000000000e+00 0.0000000000000000e+00 0.0000000000000000e+00  0.0000000000000000e+00 0.0000000000000000e+00 0.0000000000000000e+00  0.0000000000000000e+00 0.0000000000000000e+00 0.0000000000000000e+00  0.0000000000000000e+00 0.0000000000000000e+00 0.0000000000000000e+00  0.0000000000000000e+00 0.0000000000000000e+00 0.0000000000000000e+00  0.0000000000000000e+00 0.0000000000000000e+00 0.0000000000000000e+00  0.0000000000000000e+00 0.0000000000000000e+00 0.0000000000000000e+00  0.0000000000000000e+00 0.0000000000000000e+00 0.0000000000000000e+00  0.0000000000000000e+00 0.0000000000000000e+00 0.0000000000000000e+00  0.0000000000000000e+00 0.0000000000000000e+00 0.0000000000000000e+00  0.0000000000000000e+00 0.0000000000000000e+00 0.0000000000000000e+00  0.0000000000000000e+00 0.0000000000000000e+00 0.0000000000000000e+00  0.0000000000000000e+00 0.0000000000000000e+00 0.0000000000000000e+00  0.0000000000000000e+00 0.0000000000000000e+00 0.0000000000000000e+00  0.0000000000000000e+00 0.0000000000000000e+00 0.0000000000000000e+00  0.0000000000000000e+00 0.0000000000000000e+00 0.0000000000000000e+00  0.0000000000000000e+00 0.0000000000000000e+00 0.0000000000000000e+00  0.0000000000000000e+00 0.0000000000000000e+00 0.0000000000000000e+00  0.0000000000000000e+00 0.0000000000000000e+00 0.0000000000000000e+00  0.0000000000000000e+00 0.0000000000000000e+00 0.0000000000000000e+00  0.0000000000000000e+00 0.0000000000000000e+00 0.0000000000000000e+00  0.0000000000000000e+00 0.0000000000000000e+00 0.0000000000000000e+00  0.0000000000000000e+00 0.0000000000000000e+00 0.0000000000000000e+00  0.0000000000000000e+00 0.0000000000000000e+00 0.0000000000000000e+00  0.0000000000000000e+00 0.0000000000000000e+00 0.0000000000000000e+00  0.0000000000000000e+00 0.0000000000000000e+00 0.0000000000000000e+00  0.0000000000000000e+00 0.0000000000000000e+00 0.0000000000000000e+00  0.0000000000000000e+00 0.0000000000000000e+00 0.0000000000000000e+00  0.0000000000000000e+00 0.0000000000000000e+00 0.0000000000000000e+00  0.0000000000000000e+00 0.0000000000000000e+00 0.0000000000000000e+00  0.0000000000000000e+00 0.0000000000000000e+00 0.0000000000000000e+00  0.0000000000000000e+00 0.0000000000000000e+00 0.0000000000000000e+00  0.0000000000000000e+00 0.0000000000000000e+00 0.0000000000000000e+00  0.0000000000000000e+00 0.0000000000000000e+00 0.0000000000000000e+00  0.0000000000000000e+00 0.0000000000000000e+00 0.0000000000000000e+00  0.0000000000000000e+00 0.0000000000000000e+00 0.0000000000000000e+00  0.0000000000000000e+00 0.0000000000000000e+00 0.0000000000000000e+00  0.0000000000000000e+00 0.0000000000000000e+00 0.0000000000000000e+00  -3.2032263995867943e-16 0.0000000000000000e+00 0.0000000000000000e+00  0.0000000000000000e+00 0.0000000000000000e+00 0.0000000000000000e+00  0.0000000000000000e+00 0.0000000000000000e+00 0.0000000000000000e+00  0.0000000000000000e+00 0.0000000000000000e+00 0.0000000000000000e+00  0.0000000000000000e+00 0.0000000000000000e+00 0.0000000000000000e+00  0.0000000000000000e+00 0.0000000000000000e+00 0.0000000000000000e+00  0.0000000000000000e+00 0.0000000000000000e+00 0.0000000000000000e+00  0.0000000000000000e+00 0.0000000000000000e+00 0.0000000000000000e+00  0.0000000000000000e+00 0.0000000000000000e+00 0.0000000000000000e+00  0.0000000000000000e+00 0.0000000000000000e+00 0.0000000000000000e+00  0.0000000000000000e+00 0.0000000000000000e+00 0.0000000000000000e+00  0.0000000000000000e+00 0.0000000000000000e+00 0.0000000000000000e+00  0.0000000000000000e+00 0.0000000000000000e+00 0.0000000000000000e+00  0.0000000000000000e+00 0.0000000000000000e+00 0.0000000000000000e+00  0.0000000000000000e+00 0.0000000000000000e+00 0.0000000000000000e+00  0.0000000000000000e+00 0.0000000000000000e+00 0.0000000000000000e+00  0.0000000000000000e+00 0.0000000000000000e+00 0.0000000000000000e+00  0.0000000000000000e+00 0.0000000000000000e+00 0.0000000000000000e+00  0.0000000000000000e+00 0.0000000000000000e+00 0.0000000000000000e+00  0.0000000000000000e+00 0.0000000000000000e+00 0.0000000000000000e+00  0.0000000000000000e+00 0.0000000000000000e+00 0.0000000000000000e+00  0.0000000000000000e+00 0.0000000000000000e+00 0.0000000000000000e+00  0.0000000000000000e+00 0.0000000000000000e+00 0.0000000000000000e+00  0.0000000000000000e+00 0.0000000000000000e+00 0.0000000000000000e+00  0.0000000000000000e+00 0.0000000000000000e+00 0.0000000000000000e+00  0.0000000000000000e+00 0.0000000000000000e+00 0.0000000000000000e+00  0.0000000000000000e+00 0.0000000000000000e+00 0.0000000000000000e+00  0.0000000000000000e+00 0.0000000000000000e+00 0.0000000000000000e+00  0.0000000000000000e+00 0.0000000000000000e+00 0.0000000000000000e+00  0.0000000000000000e+00 0.0000000000000000e+00 0.0000000000000000e+00  0.0000000000000000e+00 0.0000000000000000e+00 0.0000000000000000e+00  0.0000000000000000e+00 0.0000000000000000e+00 0.0000000000000000e+00  0.0000000000000000e+00 0.0000000000000000e+00 0.0000000000000000e+00  0.0000000000000000e+00 0.0000000000000000e+00 0.0000000000000000e+00  0.0000000000000000e+00 0.0000000000000000e+00 0.0000000000000000e+00  0.0000000000000000e+00 0.0000000000000000e+00 0.0000000000000000e+00  0.0000000000000000e+00 0.0000000000000000e+00 0.0000000000000000e+00  0.0000000000000000e+00 0.0000000000000000e+00 0.0000000000000000e+00  -2.3197258439311393e-06 1.8997077866195839e-06 0.0000000000000000e+00  -4.9406667301723875e-06 4.6362065412798255e-06 0.0000000000000000e+00  -7.2384159937715249e-06 9.1164556446478687e-06 0.0000000000000000e+00  -9.7179282589385010e-06 1.5432599597637251e-05 0.0000000000000000e+00  -1.1775247219319655e-05 2.3280339836823562e-05 0.0000000000000000e+00  -1.4111145843239884e-05 3.2800965554426870e-05 0.0000000000000000e+00  -1.5977606398661997e-05 4.3559156544285301e-05 0.0000000000000000e+00  -1.7783776044173475e-05 5.5945288083984206e-05 0.0000000000000000e+00  -1.9861797068815981e-05 6.9561824995233553e-05 0.0000000000000000e+00  -2.1434985789579617e-05 8.4464327764116612e-05 0.0000000000000000e+00  -2.3363085704326296e-05 1.0062577320914979e-04 0.0000000000000000e+00  -2.4800744561556337e-05 1.1795334084090483e-04 0.0000000000000000e+00  -2.6507785620250900e-05 1.3640574614011533e-04 0.0000000000000000e+00  -2.7855615299024195e-05 1.5577212622172192e-04 0.0000000000000000e+00  -2.9158465789838280e-05 1.7627316077947533e-04 0.0000000000000000e+00  -3.0640428760177114e-05 1.9762848171638449e-04 0.0000000000000000e+00  -3.1762161811868116e-05 2.1987346242739587e-04 0.0000000000000000e+00  -3.3109745034756834e-05 2.4297936060768726e-04 0.0000000000000000e+00  -3.4111239102576489e-05 2.6686758747542443e-04 0.0000000000000000e+00  -3.5293588283764817e-05 2.9148172311439487e-04 0.0000000000000000e+00  -3.6229621828611560e-05 3.1680948649076486e-04 0.0000000000000000e+00  -3.7262599840551216e-05 3.4281659908421146e-04 0.0000000000000000e+00  -3.8084130267535931e-05 3.6932730147508499e-04 0.0000000000000000e+00  -3.8863839139501209e-05 3.9648817011542567e-04 0.0000000000000000e+00  -3.9713378046642741e-05 4.2408541168603936e-04 0.0000000000000000e+00  -4.0411883962120349e-05 4.5220063773700338e-04 0.0000000000000000e+00  -4.1100949695620806e-05 4.8075594343073357e-04 0.0000000000000000e+00  -4.1698844453539531e-05 5.0968605647812597e-04 0.0000000000000000e+00  -4.2280065378663565e-05 5.3899494638589890e-04 0.0000000000000000e+00  -4.2780231611758208e-05 5.6860366470097080e-04 0.0000000000000000e+00  -4.3259790928161317e-05 5.9852014180253484e-04 0.0000000000000000e+00  -4.3667714655884818e-05 6.2866935840097924e-04 0.0000000000000000e+00  -4.4052341075361664e-05 6.5906032540537446e-04 0.0000000000000000e+00  -4.4375693614827935e-05 6.8962464464044488e-04 0.0000000000000000e+00  -4.4674140997070579e-05 7.2037219232966515e-04 0.0000000000000000e+00  -4.4920920269458819e-05 7.5124192753335507e-04 0.0000000000000000e+00  -4.5143859602499178e-05 7.8224422424041798e-04 0.0000000000000000e+00  -4.5324997324376874e-05 8.1332713916899434e-04 0.0000000000000000e+00  -4.5484187956848179e-05 8.4450071849161406e-04 0.0000000000000000e+00  -4.5610704796677467e-05 8.7572255862594195e-04 0.0000000000000000e+00  -4.5719786980695387e-05 9.0700425110989687e-04 0.0000000000000000e+00  -4.5802836597684093e-05 9.3831032908979668e-04 0.0000000000000000e+00  -4.5868339325901445e-05 9.6964973162103106e-04 0.0000000000000000e+00  -4.5927923055380838e-05 1.0010046321578838e-03 0.0000000000000000e+00  -4.5970518867435849e-05 1.0323734479907145e-03 0.0000000000000000e+00  -4.6005559727642908e-05 1.0637562745248257e-03 0.0000000000000000e+00  -2.5001907081763248e-05 1.0951528998312001e-03 0.0000000000000000e+00  1.7028819613484362e-05 1.0951546101022670e-03 0.0000000000000000e+00  3.8051030561852357e-05 1.0637676221574761e-03 0.0000000000000000e+00  3.8056393595820781e-05 1.0323784269282983e-03 0.0000000000000000e+00  3.8062855791753078e-05 1.0009967508478530e-03 0.0000000000000000e+00  3.8061928303424494e-05 9.6963055369424928e-04 0.0000000000000000e+00  3.8062646077251576e-05 9.3827963716785220e-04 0.0000000000000000e+00  3.8058457254526974e-05 9.0695962029450233e-04 0.0000000000000000e+00  3.8034528599283508e-05 8.7567074976365182e-04 0.0000000000000000e+00  3.8017110094560041e-05 8.4443029246440639e-04 0.0000000000000000e+00  3.7962171657191303e-05 8.1325003033462517e-04 0.0000000000000000e+00  3.7919821886823384e-05 7.8214958306482005e-04 0.0000000000000000e+00  3.7821694194046691e-05 7.5114187720684773e-04 0.0000000000000000e+00  3.7742925192759649e-05 7.2025526944694549e-04 0.0000000000000000e+00  3.7587010746598996e-05 6.8950397327730028e-04 0.0000000000000000e+00  3.7460317513346789e-05 6.5892489024598150e-04 0.0000000000000000e+00  3.7231905004501017e-05 6.2853214958633898e-04 0.0000000000000000e+00  3.7046362451089769e-05 5.9837061617859738e-04 0.0000000000000000e+00  3.6732380077584931e-05 5.6845454062989863e-04 0.0000000000000000e+00  3.6477392754667971e-05 5.3883634426614587e-04 0.0000000000000000e+00  3.6064613956894024e-05 5.0952943259204193e-04 0.0000000000000000e+00  3.5730344122853130e-05 4.8059228400071358e-04 0.0000000000000000e+00  3.5203620118633657e-05 4.5204113655289858e-04 0.0000000000000000e+00  3.4776380266350201e-05 4.2394112834429727e-04 0.0000000000000000e+00  3.4136917270820965e-05 3.9631690635762119e-04 0.0000000000000000e+00  3.3580360149482401e-05 3.6916704075081152e-04 0.0000000000000000e+00  3.2977810043300245e-05 3.4266532932365225e-04 0.0000000000000000e+00  3.2181189585202689e-05 3.1664382651961585e-04 0.0000000000000000e+00  3.1430802271552552e-05 2.9134784632058329e-04 0.0000000000000000e+00  3.0534482958275635e-05 2.6670070484006970e-04 0.0000000000000000e+00  2.9655281506246912e-05 2.4283226460783365e-04 0.0000000000000000e+00  2.8633017685377287e-05 2.1972249259580884e-04 0.0000000000000000e+00  2.7627497090793192e-05 1.9744639547188857e-04 0.0000000000000000e+00  2.6374520391319363e-05 1.7614890061397120e-04 0.0000000000000000e+00  2.5282681537002113e-05 1.5563604656720806e-04 0.0000000000000000e+00  2.4136898359150278e-05 1.3628547913799104e-04 0.0000000000000000e+00  2.2683114299623202e-05 1.1776251666172332e-04 0.0000000000000000e+00  2.1315435567588987e-05 1.0047875194377020e-04 0.0000000000000000e+00  1.9750656246008285e-05 8.4307111425543967e-05 0.0000000000000000e+00  1.8233166713567237e-05 6.9353384842544562e-05 0.0000000000000000e+00  1.6376158063956689e-05 5.5813563494189233e-05 0.0000000000000000e+00  1.4759944918718475e-05 4.3403589198607964e-05 0.0000000000000000e+00  1.3084308578380657e-05 3.2646963566219563e-05 0.0000000000000000e+00  1.0972995264663364e-05 2.3078246910813489e-05 0.0000000000000000e+00  9.0370898522123066e-06 1.5206643097120995e-05 0.0000000000000000e+00  6.7254832435420508e-06 8.9770412220982707e-06 0.0000000000000000e+00  4.6495772942608713e-06 4.4709465973222835e-06 0.0000000000000000e+00  2.1869959949691506e-06 1.7197508004516927e-06 0.0000000000000000e+00  -1.2182210513451061e-07 1.9129090114670901e-06 0.0000000000000000e+00  -4.4939008595506207e-06 1.0479884375758780e-03 0.0000000000000000e+00  -4.7740823266738835e-06 9.8801789683973800e-04 0.0000000000000000e+00  -4.2702106624361806e-06 8.9018400161756245e-04 0.0000000000000000e+00  -2.7414244650517783e-07 1.0874858895568369e-05 0.0000000000000000e+00  -3.6988215904479180e-06 8.2881902116562921e-04 0.0000000000000000e+00  -2.9973966744008080e-07 2.5949845837094815e-05 0.0000000000000000e+00  -3.5714600665297969e-06 7.6660755591479043e-04 0.0000000000000000e+00  -5.0124875060110803e-07 6.2188721114859281e-05 0.0000000000000000e+00  -9.3582602122780607e-07 9.1548086529033028e-05 0.0000000000000000e+00  -3.4206336165338187e-06 7.0481645013247495e-04 0.0000000000000000e+00  -1.0601104071066395e-06 1.8704955921119767e-04 0.0000000000000000e+00  -3.0575785849741539e-06 5.8327392873298379e-04 0.0000000000000000e+00  -8.0820377846538784e-07 1.2473782154193535e-04 0.0000000000000000e+00  -1.6517924115189266e-06 2.3072217236788322e-04 0.0000000000000000e+00  -2.8527826624393543e-06 5.2399475406017461e-04 0.0000000000000000e+00  -3.2482629530241926e-06 6.4363166433304201e-04 0.0000000000000000e+00  -1.8675318746894176e-06 2.7853723582485013e-04 0.0000000000000000e+00  -2.6360694062309395e-06 4.6607402915113119e-04 0.0000000000000000e+00  -1.6234814533738979e-06 3.2712243817706706e-04 0.0000000000000000e+00  -2.8919378639930479e-06 4.1095788563847016e-04 0.0000000000000000e+00  -2.2311414765438060e-06 3.6677740393777531e-04 0.0000000000000000e+00  -1.3252367452592436e-06 1.5348616601579984e-04 0.0000000000000000e+00  -3.7866565676819075e-06 9.4102244674394112e-04 0.0000000000000000e+00  -5.8144665788235317e-07 4.1853871984996545e-05 0.0000000000000000e+00  1.0112786293085954e-05 1.0177851638117315e-03 0.0000000000000000e+00  1.9377965996558741e-06 5.6150402587872898e-06 0.0000000000000000e+00  8.4547438555942615e-06 7.9766720408078738e-04 0.0000000000000000e+00  8.3973634994746435e-06 8.6003124905684376e-04 0.0000000000000000e+00  -4.0051587056490515e-06 1.8127564044713660e-05 0.0000000000000000e+00  -6.6177118431254465e-06 7.6092893486975517e-05 0.0000000000000000e+00  8.5621065794547466e-06 6.1333597699462789e-04 0.0000000000000000e+00  8.5067037801477996e-06 7.3564550975731377e-04 0.0000000000000000e+00  -1.0180959860772907e-05 2.0810292217328697e-04 0.0000000000000000e+00  8.5465324477019319e-06 5.5348868212577458e-04 0.0000000000000000e+00  -7.7042240965521630e-06 1.0844890581070494e-04 0.0000000000000000e+00  -1.1012973147830979e-05 2.5434179943557356e-04 0.0000000000000000e+00  8.4896211782784108e-06 4.9485705206009551e-04 0.0000000000000000e+00  8.5456219718464630e-06 6.7413366397759387e-04 0.0000000000000000e+00  -1.3936112973636182e-05 3.0336075370928788e-04 0.0000000000000000e+00  8.3896670962134273e-06 4.3773355412735809e-04 0.0000000000000000e+00  -4.3592685437373194e-07 4.2480366555123750e-07 0.0000000000000000e+00  3.1436290772499305e-07 3.4744550182699325e-07 0.0000000000000000e+00  -1.4186527525771827e-05 1.0726769760439666e-03 0.0000000000000000e+00  -2.5531048940045404e-06 5.6876496103386181e-06 0.0000000000000000e+00  1.0731730191962262e-05 3.8853732083917602e-04 0.000000000000000