<?xml version="1.0"?>
<VTKFile type="UnstructuredGrid"  version="0.1"  >
<UnstructuredGrid>
<Piece  NumberOfPoints="1419" NumberOfCells="2698">
<Points>
<DataArray  type="Float64"  NumberOfComponents="3"  format="ascii">0 0 0  0 0.41 0  2.5 0 0  2.5 0.41 0  0.6 0.19 0  0.6 0.21 0  0.25 0.2 0  0.15 0.2 0  0.2489897948556636 0.21 0  0.2489897948556636 0.19 0  0.6 0.2 0  0 0.3807142857143437 0  0 0.3514285714286952 0  0 0.3221428571430699 0  0 0.29285714285744 0  0 0.2635714285718054 0  0 0.2342857142861561 0  0 0.2050000000005308 0  0 0.175714285714732 0  0 0.1464285714289574 0  0 0.1171428571431897 0  0 0.08785714285737878 0  0 0.05857142857161107 0  0 0.02928571428580012 0  0.03015443760436003 0 0  0.06140001986583606 0 0  0.09377624077125973 0 0  0.1273239957535082 0 0  0.1620856860351972 0 0  0.1981052433264291 0 0  0.235428184091502 0 0  0.2741016576309132 0 0  0.3141745521465447 0 0  0.3556974926295285 0 0  0.3987229542472677 0 0  0.4433053055141081 0 0  0.4895008759286886 0 0  0.5373680609405097 0 0  0.5869673343216626 0 0  0.6383613676634521 0 0  0.6916151138468254 0 0  0.7467958595648856 0 0  0.8039733463919316 0 0  0.8632198139502143 0 0  0.9246101326867038 0 0  0.9882218810934433 0 0  1.054135445558498 0 0  1.122434100542598 0 0  1.193204177141305 0 0  1.266535089879536 0 0  1.342519516046404 0 0  1.421253448503939 0 0  1.502836389106271 0 0  1.587371439758838 0 0  1.674965418777374 0 0  1.765729001825544 0 0  1.859776908880082 0 0  1.957227977487062 0 0  2.058205329869943 0 0  2.162836591189951 0 0  2.271253957290865 0 0  2.383594446803425 0 0  2.5 0.1024999999997612 0  2.5 0.2049999999994743 0  2.5 0.3074999999997183 0  2.383594446803656 0.41 0  2.271253957291315 0.41 0  2.162836591190598 0.41 0  2.058205329870775 0.41 0  1.957227977488067 0.41 0  1.859776908881246 0.41 0  1.765729001826854 0.41 0  1.674965418778818 0.41 0  1.58737143976041 0.41 0  1.502836389107956 0.41 0  1.421253448505726 0.41 0  1.342519516048286 0.41 0  1.266535089881505 0.41 0  1.193204177143353 0.41 0  1.122434100544716 0.41 0  1.05413544556068 0.41 0  0.9882218810956305 0.41 0  0.9246101326886647 0.41 0  0.8632198139519631 0.41 0  0.8039733463934788 0.41 0  0.7467958595662458 0.41 0  0.6916151138480078 0.41 0  0.6383613676644679 0.41 0  0.5869673343225223 0.41 0  0.5373680609412221 0.41 0  0.4895008759292634 0.41 0  0.4433053055145528 0.41 0  0.3987229542475914 0.41 0  0.3556974926297398 0.41 0  0.3141745521466497 0.41 0  0.2741016576310038 0.41 0  0.2354281840915826 0.41 0  0.1981052433265003 0.41 0  0.1620856860352591 0.41 0  0.1273239957535623 0.41 0  0.09377624077128965 0.41 0  0.06140001986584975 0.41 0  0.03015443760436654 0.41 0  0.2497468076502589 0.2050254481002335 0  0.2497468076502614 0.1949745518997913 0  0.2469965252529372 0.1829317073451959 0  0.2439893735792749 0.1762316384219906 0  0.2400332147834255 0.1700443375285386 0  0.2352133972704371 0.1645032867342007 0  0.2296339016332438 0.1597280261969788 0  0.2234150974217223 0.1558215752574715 0  0.2166911463437691 0.1528682099456123 0  0.2096071079204251 0.1509316448471593 0  0.2023158100364996 0.1500536585536553 0  0.194974551899914 0.1502531923497262 0  0.1877417105387872 0.1515259415822739 0  0.1807733240461124 0.153844448527136 0  0.1742197252835808 0.15715869474974 0  0.1682222986673531 0.1613971801805478 0  0.162910430003803 0.1664684656256651 0  0.1583987151779087 0.1722631454351573 0  0.1547844879126891 0.178656207771761 0  0.1521457199348551 0.1855097315605723 0  0.1505393388476355 0.1926758619366523 0  0.1505393388476328 0.2073241380633295 0  0.1521457199348437 0.2144902684393899 0  0.1547844879126531 0.221343792228163 0  0.1583987151778488 0.2277368545647528 0  0.1629104300036858 0.2335315343742052 0  0.1682222986671726 0.2386028198193036 0  0.1742197252833576 0.2428413052501257 0  0.1807733240458683 0.2461555514727623 0  0.1877417105384929 0.2484740584176516 0  0.1949745518995776 0.2497468076502398 0  0.202315810036185 0.2499463414463592 0  0.2096071079201568 0.2490683551528932 0  0.2166911463435495 0.2471317900544655 0  0.2234150974215506 0.2441784247426195 0  0.2296339016331197 0.2402719738031125 0  0.2352133972703547 0.2354967132658811 0  0.2400332147833751 0.2299556624715287 0  0.2439893735792577 0.2237683615780412 0  0.246996525252926 0.2170682926548348 0  0.25645809709277 0.21 0  0.2639263993298655 0.21 0  0.271394701566961 0.21 0  0.2788630038040554 0.21 0  0.2863313060411479 0.21 0  0.2937996082782405 0.21 0  0.301267910515333 0.21 0  0.3087362127524279 0.21 0  0.3162045149895234 0.21 0  0.3236728172265972 0.21 0  0.3311411194636928 0.21 0  0.3386094217007701 0.21 0  0.3460777239378666 0.21 0  0.3535460261749672 0.21 0  0.3610143284120516 0.21 0  0.3684826306491596 0.21 0  0.3759509328862226 0.21 0  0.383419235123329 0.21 0  0.3908875373604028 0.21 0  0.3983558395975142 0.21 0  0.4058241418345938 0.21 0  0.4132924440716992 0.21 0  0.4207607463087888 0.21 0  0.4282290485459029 0.21 0  0.4356973507830418 0.21 0  0.4431656530201649 0.21 0  0.4506339552573136 0.21 0  0.4581022574944306 0.21 0  0.4655705597315852 0.21 0  0.4730388619686996 0.21 0  0.480507164205851 0.21 0  0.4879754664429498 0.21 0  0.4954437686800938 0.21 0  0.502912070917267 0.21 0  0.5103803731544119 0.21 0  0.5178486753915261 0.21 0  0.5253169776286404 0.21 0  0.5327852798657868 0.21 0  0.5402535821029386 0.21 0  0.54772188434007 0.21 0  0.5551901865771842 0.21 0  0.5626584888143201 0.21 0  0.5701267910514778 0.21 0  0.5775950932886138 0.21 0  0.5850633955257281 0.21 0  0.5925316977628483 0.21 0  0.6 0.2050000000000054 0  0.6 0.1950000000000217 0  0.5925316977628897 0.19 0  0.5850633955257988 0.19 0  0.5775950932887378 0.19 0  0.5701267910515998 0.19 0  0.5626584888145268 0.19 0  0.5551901865773963 0.19 0  0.547721884340339 0.19 0  0.5402535821032429 0.19 0  0.5327852798661811 0.19 0  0.5253169776290537 0.19 0  0.5178486753919799 0.19 0  0.5103803731549078 0.19 0  0.502912070917822 0.19 0  0.4954437686807294 0.19 0  0.4879754664436223 0.19 0  0.4805071642065402 0.19 0  0.4730388619694271 0.19 0  0.4655705597323621 0.19 0  0.4581022574952563 0.19 0  0.4506339552581777 0.19 0  0.4431656530210671 0.19 0  0.4356973507839815 0.19 0  0.4282290485468779 0.19 0  0.4207607463097617 0.19 0  0.4132924440726327 0.19 0  0.4058241418354857 0.19 0  0.3983558395983636 0.19 0  0.3908875373612097 0.19 0  0.3834192351240934 0.19 0  0.3759509328869369 0.19 0  0.3684826306498175 0.19 0  0.361014328412667 0.19 0  0.3535460261755617 0.19 0  0.3460777239384295 0.19 0  0.3386094217012945 0.19 0  0.3311411194641595 0.19 0  0.3236728172270245 0.19 0  0.3162045149898895 0.19 0  0.3087362127527544 0.19 0  0.3012679105156187 0.19 0  0.2937996082784807 0.19 0  0.2863313060413428 0.19 0  0.2788630038042048 0.19 0  0.2713947015670686 0.19 0  0.2639263993299336 0.19 0  0.2564580970927985 0.19 0  0.2607803159922026 0.2000727136295815 0  0.5887803774232762 0.2001272386983733 0  0.5745072403740523 0.2002044435018727 0  0.5511891430099709 0.2001122610077113 0  0.2751288526855082 0.20000000000002 0  0.5365194309847112 0.1999999999999436 0  0.2894621222999649 0.1998691686390484 0  0.5215828265105155 0.1999999999999228 0  0.3127789816668748 0.1998657885438805 0  0.3274069683451451 0.2000000000000796 0  0.5066462220363641 0.199999999999908 0  0.3650630746574081 0.199866017807523 0  0.476773013087985 0.1999999999998713 0  0.3417402379596385 0.1998691686391011 0  0.3796850840047755 0.200000000000134 0  0.4618364086138087 0.1999999999998546 0  0.4917096175621762 0.1999999999998808 0  0.3946216884789568 0.2000000000001512 0  0.446899804139621 0.1999999999998389 0  0.4089549580935208 0.1998691686391595 0  0.4322718174608562 0.200127451265745 0  0.4201487168029707 0.1999966199048527 0  0.3528922713220932 0.2000185703532356 0  0.5633122436674589 0.1999814296467508 0  0.3006558810093873 0.1999966199048318 0  0.5815926498168407 0.1966545283159175 0  0.2677053789419034 0.1964246479135325 0  0.5290511287476175 0.1970915826863981 0  0.5439877332217911 0.197091582686394 0  0.2825131256993216 0.2035478995978015 0  0.3199386661080599 0.202908417313604 0  0.4842413153250809 0.1970915826863873 0  0.5141145242734466 0.1970915826863843 0  0.3722167817676917 0.2029084173136195 0  0.4693047108508938 0.1970915826863783 0  0.3348752705822316 0.202908417313609 0  0.3871533862418661 0.2029084173136212 0  0.4543681063767183 0.1970915826863795 0  0.4991779197992749 0.1970915826863902 0  0.4020059614928624 0.203547899597858 0  0.4394315019025246 0.1970915826863714 0  0.2550657455369551 0.2034088125358657 0  0.2548908499171161 0.1966940311614271 0  0.5946539510196798 0.2024302972968126 0  0.267698176732111 0.2039977513680092 0  0.4261685417851465 0.196409292431739 0  0.3590076176283495 0.196411355804271 0  0.5571672426447437 0.2036011176410121 0  0.3066757059912147 0.1964092924317024 0  0.594380730180568 0.1966558399668133 0  0.4842413153245942 0.2040749161535287 0  0.4693047108503577 0.2040749161535231 0  0.3871533862424271 0.1959250838464788 0  0.372246743208829 0.1959123236376545 0  0.5141145242731028 0.2040749161535395 0  0.4543681063761134 0.2040749161535186 0  0.4019979587101454 0.1959834479682427 0  0.4394608940728603 0.2040870543693135 0  0.5439623148931173 0.2040856076781014 0  0.5290511287473298 0.2040749161535501 0  0.4991779197988497 0.2040749161535382 0  0.3347912413592433 0.1959225448935183 0  0.3199680582793816 0.1959123018030061 0  0.2825051229162361 0.1959834479681729 0  0.3590471196690275 0.2036304442587945 0  0.5571594006495384 0.1963685282145804 0  0.3067669986803285 0.203627750582736 0  0.4262598344738712 0.2036568242185335 0  0.5814408164431408 0.2041285596160068 0  0.5688286748170428 0.1961819304477386 0  0.4145905603063645 0.2038180695522843 0  0.3473758401724931 0.2038180695522752 0  0.2950977245128307 0.2038180695522663 0  0.5688286748170693 0.203818069552238 0  0.2950977245127906 0.1961819304477774 0  0.3473758401723931 0.1961819304478349 0  0.4145905603061963 0.1961819304479011 0  0.2601812407614425 0.2056861609747042
[...]
<PointData  Vectors="f_46-0"> 
<DataArray  type="Float64"  Name="f_46-0"  NumberOfComponents="3" format="ascii">0.0000000000000000e+00 0.0000000000000000e+00 0.0000000000000000e+00  0.0000000000000000e+00 0.0000000000000000e+00 0.0000000000000000e+00  0.0000000000000000e+00 0.0000000000000000e+00 0.0000000000000000e+00  0.0000000000000000e+00 0.0000000000000000e+00 0.0000000000000000e+00  3.7549517313245730e-05 1.0799209004778139e-03 0.0000000000000000e+00  -4.4815872026496508e-05 1.0798721053517440e-03 0.0000000000000000e+00  0.0000000000000000e+00 0.0000000000000000e+00 0.0000000000000000e+00  0.0000000000000000e+00 0.0000000000000000e+00 0.0000000000000000e+00  0.0000000000000000e+00 0.0000000000000000e+00 0.0000000000000000e+00  0.0000000000000000e+00 0.0000000000000000e+00 0.0000000000000000e+00  -3.6066029007965873e-06 1.0798843121773234e-03 0.0000000000000000e+00  7.9591836734548407e-02 0.0000000000000000e+00 0.0000000000000000e+00  1.4693877550994527e-01 0.0000000000000000e+00 0.0000000000000000e+00  2.0204081632617479e-01 0.0000000000000000e+00 0.0000000000000000e+00  2.4489795918330076e-01 0.0000000000000000e+00 0.0000000000000000e+00  2.7551020408131754e-01 0.0000000000000000e+00 0.0000000000000000e+00  2.9387755102022350e-01 0.0000000000000000e+00 0.0000000000000000e+00  3.0000000000000004e-01 0.0000000000000000e+00 0.0000000000000000e+00  2.9387755102059482e-01 0.0000000000000000e+00 0.0000000000000000e+00  2.7551020408195548e-01 0.0000000000000000e+00 0.0000000000000000e+00  2.4489795918409069e-01 0.0000000000000000e+00 0.0000000000000000e+00  2.0204081632692525e-01 0.0000000000000000e+00 0.0000000000000000e+00  1.4693877551058568e-01 0.0000000000000000e+00 0.0000000000000000e+00  7.9591836734909230e-02 0.0000000000000000e+00 0.0000000000000000e+00  0.0000000000000000e+00 0.0000000000000000e+00 0.0000000000000000e+00  0.0000000000000000e+00 0.0000000000000000e+00 0.0000000000000000e+00  0.0000000000000000e+00 0.0000000000000000e+00 0.0000000000000000e+00  0.0000000000000000e+00 0.0000000000000000e+00 0.0000000000000000e+00  0.0000000000000000e+00 0.0000000000000000e+00 0.0000000000000000e+00  0.0000000000000000e+00 0.0000000000000000e+00 0.0000000000000000e+00  0.0000000000000000e+00 0.0000000000000000e+00 0.0000000000000000e+00  0.0000000000000000e+00 0.0000000000000000e+00 0.0000000000000000e+00  0.0000000000000000e+00 0.0000000000000000e+00 0.0000000000000000e+00  0.0000000000000000e+00 0.0000000000000000e+00 0.0000000000000000e+00  0.0000000000000000e+00 0.0000000000000000e+00 0.0000000000000000e+00  0.0000000000000000e+00 0.0000000000000000e+00 0.0000000000000000e+00  0.0000000000000000e+00 0.0000000000000000e+00 0.0000000000000000e+00  0.0000000000000000e+00 0.0000000000000000e+00 0.0000000000000000e+00  0.0000000000000000e+00 0.0000000000000000e+00 0.0000000000000000e+00  0.0000000000000000e+00 0.0000000000000000e+00 0.0000000000000000e+00  0.0000000000000000e+00 0.0000000000000000e+00 0.0000000000000000e+00  0.0000000000000000e+00 0.0000000000000000e+00 0.0000000000000000e+00  0.0000000000000000e+00 0.0000000000000000e+00 0.0000000000000000e+00  0.0000000000000000e+00 0.0000000000000000e+00 0.0000000000000000e+00  0.0000000000000000e+00 0.0000000000000000e+00 0.0000000000000000e+00  0.0000000000000000e+00 0.0000000000000000e+00 0.0000000000000000e+00  0.0000000000000000e+00 0.0000000000000000e+00 0.0000000000000000e+00  0.0000000000000000e+00 0.0000000000000000e+00 0.0000000000000000e+00  0.0000000000000000e+00 0.0000000000000000e+00 0.0000000000000000e+00  0.0000000000000000e+00 0.0000000000000000e+00 0.0000000000000000e+00  0.0000000000000000e+00 0.0000000000000000e+00 0.0000000000000000e+00  0.0000000000000000e+00 0.0000000000000000e+00 0.0000000000000000e+00  0.0000000000000000e+00 0.0000000000000000e+00 0.0000000000000000e+00  0.0000000000000000e+00 0.0000000000000000e+00 0.0000000000000000e+00  0.0000000000000000e+00 0.0000000000000000e+00 0.0000000000000000e+00  0.0000000000000000e+00 0.0000000000000000e+00 0.0000000000000000e+00  0.0000000000000000e+00 0.0000000000000000e+00 0.0000000000000000e+00  0.0000000000000000e+00 0.0000000000000000e+00 0.0000000000000000e+00  0.0000000000000000e+00 0.0000000000000000e+00 0.0000000000000000e+00  0.0000000000000000e+00 0.0000000000000000e+00 0.0000000000000000e+00  0.0000000000000000e+00 0.0000000000000000e+00 0.0000000000000000e+00  0.0000000000000000e+00 0.0000000000000000e+00 0.0000000000000000e+00  2.4734694875026911e-01 1.2682479869823501e-03 0.0000000000000000e+00  3.0755020022823826e-01 4.2080991455867404e-03 0.0000000000000000e+00  2.4103200645244155e-01 -5.9510806323289107e-03 0.0000000000000000e+00  0.0000000000000000e+00 0.0000000000000000e+00 0.0000000000000000e+00  0.0000000000000000e+00 0.0000000000000000e+00 0.0000000000000000e+00  0.0000000000000000e+00 0.0000000000000000e+00 0.0000000000000000e+00  0.0000000000000000e+00 0.0000000000000000e+00 0.0000000000000000e+00  0.0000000000000000e+00 0.0000000000000000e+00 0.0000000000000000e+00  0.0000000000000000e+00 0.0000000000000000e+00 0.0000000000000000e+00  0.0000000000000000e+00 0.0000000000000000e+00 0.0000000000000000e+00  0.0000000000000000e+00 0.0000000000000000e+00 0.0000000000000000e+00  0.0000000000000000e+00 0.0000000000000000e+00 0.0000000000000000e+00  0.0000000000000000e+00 0.0000000000000000e+00 0.0000000000000000e+00  0.0000000000000000e+00 0.0000000000000000e+00 0.0000000000000000e+00  0.0000000000000000e+00 0.0000000000000000e+00 0.0000000000000000e+00  0.0000000000000000e+00 0.0000000000000000e+00 0.0000000000000000e+00  0.0000000000000000e+00 0.0000000000000000e+00 0.0000000000000000e+00  0.0000000000000000e+00 0.0000000000000000e+00 0.0000000000000000e+00  0.0000000000000000e+00 0.0000000000000000e+00 0.0000000000000000e+00  0.0000000000000000e+00 0.0000000000000000e+00 0.0000000000000000e+00  0.0000000000000000e+00 0.0000000000000000e+00 0.0000000000000000e+00  0.0000000000000000e+00 0.0000000000000000e+00 0.0000000000000000e+00  0.0000000000000000e+00 0.0000000000000000e+00 0.0000000000000000e+00  0.0000000000000000e+00 0.0000000000000000e+00 0.0000000000000000e+00  0.0000000000000000e+00 0.0000000000000000e+00 0.0000000000000000e+00  0.0000000000000000e+00 0.0000000000000000e+00 0.0000000000000000e+00  0.0000000000000000e+00 0.0000000000000000e+00 0.0000000000000000e+00  0.0000000000000000e+00 0.0000000000000000e+00 0.0000000000000000e+00  0.0000000000000000e+00 0.0000000000000000e+00 0.0000000000000000e+00  0.0000000000000000e+00 0.0000000000000000e+00 0.0000000000000000e+00  0.0000000000000000e+00 0.0000000000000000e+00 0.0000000000000000e+00  0.0000000000000000e+00 0.0000000000000000e+00 0.0000000000000000e+00  0.0000000000000000e+00 0.0000000000000000e+00 0.0000000000000000e+00  0.0000000000000000e+00 0.0000000000000000e+00 0.0000000000000000e+00  0.0000000000000000e+00 0.0000000000000000e+00 0.0000000000000000e+00  0.0000000000000000e+00 0.0000000000000000e+00 0.0000000000000000e+00  0.0000000000000000e+00 0.0000000000000000e+00 0.0000000000000000e+00  0.0000000000000000e+00 0.0000000000000000e+00 0.0000000000000000e+00  0.0000000000000000e+00 0.0000000000000000e+00 0.0000000000000000e+00  0.0000000000000000e+00 0.0000000000000000e+00 0.0000000000000000e+00  0.0000000000000000e+00 0.0000000000000000e+00 0.0000000000000000e+00  0.0000000000000000e+00 0.0000000000000000e+00 0.0000000000000000e+00  0.0000000000000000e+00 0.0000000000000000e+00 0.0000000000000000e+00  2.5261109060000565e-13 0.0000000000000000e+00 0.0000000000000000e+00  0.0000000000000000e+00 0.0000000000000000e+00 0.0000000000000000e+00  0.0000000000000000e+00 0.0000000000000000e+00 0.0000000000000000e+00  0.0000000000000000e+00 0.0000000000000000e+00 0.0000000000000000e+00  0.0000000000000000e+00 0.0000000000000000e+00 0.0000000000000000e+00  0.0000000000000000e+00 0.0000000000000000e+00 0.0000000000000000e+00  0.0000000000000000e+00 0.0000000000000000e+00 0.0000000000000000e+00  0.0000000000000000e+00 0.0000000000000000e+00 0.0000000000000000e+00  0.0000000000000000e+00 0.0000000000000000e+00 0.0000000000000000e+00  0.0000000000000000e+00 0.0000000000000000e+00 0.0000000000000000e+00  0.0000000000000000e+00 0.0000000000000000e+00 0.0000000000000000e+00  0.0000000000000000e+00 0.0000000000000000e+00 0.0000000000000000e+00  0.0000000000000000e+00 0.0000000000000000e+00 0.0000000000000000e+00  0.0000000000000000e+00 0.0000000000000000e+00 0.0000000000000000e+00  0.0000000000000000e+00 0.0000000000000000e+00 0.0000000000000000e+00  0.0000000000000000e+00 0.0000000000000000e+00 0.0000000000000000e+00  0.0000000000000000e+00 0.0000000000000000e+00 0.0000000000000000e+00  0.0000000000000000e+00 0.0000000000000000e+00 0.0000000000000000e+00  0.0000000000000000e+00 0.0000000000000000e+00 0.0000000000000000e+00  0.0000000000000000e+00 0.0000000000000000e+00 0.0000000000000000e+00  0.0000000000000000e+00 0.0000000000000000e+00 0.0000000000000000e+00  0.0000000000000000e+00 0.0000000000000000e+00 0.0000000000000000e+00  0.0000000000000000e+00 0.0000000000000000e+00 0.0000000000000000e+00  0.0000000000000000e+00 0.0000000000000000e+00 0.0000000000000000e+00  0.0000000000000000e+00 0.0000000000000000e+00 0.0000000000000000e+00  0.0000000000000000e+00 0.0000000000000000e+00 0.0000000000000000e+00  0.0000000000000000e+00 0.0000000000000000e+00 0.0000000000000000e+00  0.0000000000000000e+00 0.0000000000000000e+00 0.0000000000000000e+00  0.0000000000000000e+00 0.0000000000000000e+00 0.0000000000000000e+00  0.0000000000000000e+00 0.0000000000000000e+00 0.0000000000000000e+00  0.0000000000000000e+00 0.0000000000000000e+00 0.0000000000000000e+00  0.0000000000000000e+00 0.0000000000000000e+00 0.0000000000000000e+00  0.0000000000000000e+00 0.0000000000000000e+00 0.0000000000000000e+00  0.0000000000000000e+00 0.0000000000000000e+00 0.0000000000000000e+00  0.0000000000000000e+00 0.0000000000000000e+00 0.0000000000000000e+00  0.0000000000000000e+00 0.0000000000000000e+00 0.0000000000000000e+00  0.0000000000000000e+00 0.0000000000000000e+00 0.0000000000000000e+00  0.0000000000000000e+00 0.0000000000000000e+00 0.0000000000000000e+00  -2.3356427116499942e-06 1.9127725441642063e-06 0.0000000000000000e+00  -4.9688215248154762e-06 4.7074067508929406e-06 0.0000000000000000e+00  -7.2648849035383001e-06 9.2715713295099976e-06 0.0000000000000000e+00  -9.7373081742881989e-06 1.5696178875728682e-05 0.0000000000000000e+00  -1.1777276647772366e-05 2.3662882316904222e-05 0.0000000000000000e+00  -1.4090134622512703e-05 3.3311491172193521e-05 0.0000000000000000e+00  -1.5927065334127477e-05 4.4199057440765565e-05 0.0000000000000000e+00  -1.7698113273305377e-05 5.6711002423620711e-05 0.0000000000000000e+00  -1.9733359568636502e-05 7.0445715536994233e-05 0.0000000000000000e+00  -2.1261658969648497e-05 8.5452130165823847e-05 0.0000000000000000e+00  -2.3133388363235678e-05 1.0170020372487329e-04 0.0000000000000000e+00  -2.4517197531596748e-05 1.1908992222779806e-04 0.0000000000000000e+00  -2.6157168640388489e-05 1.3757750686918183e-04 0.0000000000000000e+00  -2.7442185045327222e-05 1.5695219905122559e-04 0.0000000000000000e+00  -2.8678094398789440e-05 1.7742268425220562e-04 0.0000000000000000e+00  -3.0080637771881341e-05 1.9871372981877054e-04 0.0000000000000000e+00  -3.1132271295376442e-05 2.2085401257390457e-04 0.0000000000000000e+00  -3.2393585405780376e-05 2.4381367941812493e-04 0.0000000000000000e+00  -3.3322407563868610e-05 2.6751131339979110e-04 0.0000000000000000e+00  -3.4417451284503486e-05 2.9189263949393955e-04 0.0000000000000000e+00  -3.5277915155494410e-05 3.1694067420816996e-04 0.0000000000000000e+00  -3.6225607943619593e-05 3.4262175833987558e-04 0.0000000000000000e+00  -3.6975425702852016e-05 3.6876950268829823e-04 0.0000000000000000e+00  -3.7685292090615830e-05 3.9551840240313737e-04 0.0000000000000000e+00  -3.8459364341735105e-05 4.2266904507223200e-04 0.0000000000000000e+00  -3.9094755878153020e-05 4.5029722929321999e-04 0.0000000000000000e+00  -3.9723316427153298e-05 4.7832901572161693e-04 0.0000000000000000e+00  -4.0270303779006289e-05 5.0670693763811385e-04 0.0000000000000000e+00  -4.0805189981461762e-05 5.3543235702497108e-04 0.0000000000000000e+00  -4.1269359867831607e-05 5.6443731542577653e-04 0.0000000000000000e+00  -4.1718896391470399e-05 5.9372614223982825e-04 0.0000000000000000e+00  -4.2106892495136341e-05 6.2323570748844834e-04 0.0000000000000000e+00  -4.2478468438509928e-05 6.5297071218675055e-04 0.0000000000000000e+00  -4.2797810206989556e-05 6.8287447172308375e-04 0.0000000000000000e+00  -4.3099408487742752e-05 7.1295209646831184e-04 0.0000000000000000e+00  -4.3356535616424832e-05 7.4315289381222125e-04 0.0000000000000000e+00  -4.3596093565652053e-05 7.7348274297605376e-04 0.0000000000000000e+00  -4.3798993944474499e-05 8.0389775218739595e-04 0.0000000000000000e+00  -4.3985303035087746e-05 8.3440407266127182e-04 0.0000000000000000e+00  -4.4141754563366613e-05 8.6496414841106119e-04 0.0000000000000000e+00  -4.4284636579007394e-05 8.9558782446366031e-04 0.0000000000000000e+00  -4.4401643266589007e-05 9.2623997027391658e-04 0.0000000000000000e+00  -4.4501996431416083e-05 9.5692962360375004e-04 0.0000000000000000e+00  -4.4597455573266374e-05 9.8763715792718238e-04 0.0000000000000000e+00  -4.4674428134275210e-05 1.0183611361467791e-03 0.0000000000000000e+00  -4.4744975328951050e-05 1.0491021098396358e-03 0.0000000000000000e+00  -2.4197316286570372e-05 1.0798742723393958e-03 0.0000000000000000e+00  1.6974204431585853e-05 1.0798988861706466e-03 0.0000000000000000e+00  3.7591197608765451e-05 1.0491698154122171e-03 0.0000000000000000e+00  3.7625550012547151e-05 1.0184223119898725e-03 0.0000000000000000e+00  3.7659632767542763e-05 9.8768484825115938e-04 0.0000000000000000e+00  3.7684596672738304e-05 9.5696675070729284e-04 0.0000000000000000e+00  3.7710738398334809e-05 9.2626765406452058e-04 0.0000000000000000e+00  3.7730282703601048e-05 8.9560501674335838e-04 0.0000000000000000e+00  3.7728120228020894e-05 8.6497816883938038e-04 0.0000000000000000e+00  3.7731319773970244e-05 8.3440544125039319e-04 0.0000000000000000e+00  3.7695100206062141e-05 8.0389629413606513e-04 0.0000000000000000e+00  3.7670661392321434e-05 7.7347177999929516e-04 0.0000000000000000e+00  3.7589933674823059e-05 7.4314066638484617e-04 0.0000000000000000e+00  3.7527105319654705e-05 7.1293192786899722e-04 0.0000000000000000e+00  3.7388609080880799e-05 6.8285441974906612e-04 0.0000000000000000e+00  3.7277399988383204e-05 6.5294451305682839e-04 0.0000000000000000e+00  3.7068952576689855e-05 6.2321079255730257e-04 0.0000000000000000e+00  3.6900081355112821e-05 5.9369640066947178e-04 0.0000000000000000e+00  3.6610203020785550e-05 5.6440990044543727e-04 0.0000000000000000e+00  3.6374350479319443e-05 5.3540109023799895e-04 0.0000000000000000e+00  3.5991184088053932e-05 5.0667818434916624e-04 0.0000000000000000e+00  3.5679448246167907e-05 4.7829662324956482e-04 0.0000000000000000e+00  3.5188412068894343e-05 4.5026812269763984e-04 0.0000000000000000e+00  3.4787331172719379e-05 4.2265493286181845e-04 0.0000000000000000e+00  3.4187513259775809e-05 3.9547782905748269e-04 0.0000000000000000e+00  3.3662101466836287e-05 3.6873751336534937e-04 0.0000000000000000e+00  3.3090972289485133e-05 3.4259600722908210e-04 0.0000000000000000e+00  3.2336446864779551e-05 3.1689845180784691e-04 0.0000000000000000e+00  3.1620305496829127e-05 2.9187706182870872e-04 0.0000000000000000e+00  3.0762764309399510e-05 2.6746082149029936e-04 0.0000000000000000e+00  2.9916171305827951e-05 2.4377810061064823e-04 0.0000000000000000e+00  2.8928641220414671e-05 2.2081037261906450e-04 0.0000000000000000e+00  2.7951243842410209e-05 1.9863615030539598e-04 0.0000000000000000e+00  2.6729448184551318e-05 1.7739617753597992e-04 0.0000000000000000e+00  2.5656700184718700e-05 1.5691052973202318e-04 0.0000000000000000e+00  2.4525034796464134e-05 1.3754780826637943e-04 0.0000000000000000e+00  2.3088051869322924e-05 1.1898737330440638e-04 0.0000000000000000e+00  2.1726166806734639e-05 1.0163738474991699e-04 0.0000000000000000e+00  2.0163197369035323e-05 8.5375685240127961e-05 0.0000000000000000e+00  1.8638771347599319e-05 7.0316084884411737e-05 0.0000000000000000e+00  1.6768669235447962e-05 5.6654530690381163e-05 0.0000000000000000e+00  1.5130784812137957e-05 4.4117080005056140e-05 0.0000000000000000e+00  1.3425720358856400e-05 3.3229456956644978e-05 0.0000000000000000e+00  1.1277433079104642e-05 2.3530781296856103e-05 0.0000000000000000e+00  9.2961420862113409e-06 1.5539127908163741e-05 0.0000000000000000e+00  6.9282728379655166e-06 9.2014193356382148e-06 0.0000000000000000e+00  4.7920104866583904e-06 4.6095831833492024e-06 0.0000000000000000e+00  2.2581322873578303e-06 1.7945207311676277e-06 0.0000000000000000e+00  -8.3564953657429078e-08 1.9678041433204765e-06 0.0000000000000000e+00  -4.0623853229811676e-06 1.0336826115794897e-03 0.0000000000000000e+00  -4.2793604671897785e-06 9.7494268336168442e-04 0.0000000000000000e+00  -3.6929980898570781e-06 8.7914857433930697e-04 0.0000000000000000e+00  -1.6957540898260730e-07 1.1105231466093454e-05 0.0000000000000000e+00  -3.0833430150339991e-06 8.1909074013838338e-04 0.0000000000000000e+00  -1.3333439269461393e-07 2.6417276391678473e-05 0.0000000000000000e+00  -2.9170962403384997e-06 7.5822546810511561e-04 0.0000000000000000e+00  -2.4437308677617576e-07 6.3066005017732373e-05 0.0000000000000000e+00  -6.2831753372755816e-07 9.2635689261391814e-05 0.0000000000000000e+00  -2.7401570997131742e-06 6.9778457606590072e-04 0.0000000000000000e+00  -6.3033832813813777e-07 1.8824529182053838e-04 0.0000000000000000e+00  -2.3660430849355609e-06 5.7886864002710820e-04 0.0000000000000000e+00  -4.5146620140864076e-07 1.2595667905241105e-04 0.0000000000000000e+00  -1.1754069549728324e-06 2.3171635111036518e-04 0.0000000000000000e+00  -2.1748660127490372e-06 5.2080800820145177e-04 0.0000000000000000e+00  -2.5554624586238748e-06 6.3793430865070888e-04 0.0000000000000000e+00  -1.3464009941153559e-06 2.7915710864205074e-04 0.0000000000000000e+00  -1.9822869197970844e-06 4.6399976482933950e-04 0.0000000000000000e+00  -1.0668727657450611e-06 3.2721477650987109e-04 0.0000000000000000e+00  -2.2616623083491279e-06 4.0984100899356325e-04 0.0000000000000000e+00  -1.6391746380303124e-06 3.6633497174297857e-04 0.0000000000000000e+00  -9.3276470022113738e-07 1.5472933808222889e-04 0.0000000000000000e+00  -3.2669148068320347e-06 9.2892230384385144e-04 0.0000000000000000e+00  -3.7264858582877403e-07 4.2520842788906100e-05 0.0000000000000000e+00  1.0271793381283683e-05 1.0041081610011767e-03 0.0000000000000000e+00  2.0445028303274409e-06 5.7598820675240618e-06 0.0000000000000000e+00  8.8303292144036310e-06 7.8862218572951694e-04 0.0000000000000000e+00  8.7304750042626446e-06 8.4964564618415501e-04 0.0000000000000000e+00  -3.9202659796792111e-06 1.8464013477987509e-05 0.0000000000000000e+00  -6.3734359224305226e-06 7.7067590105582670e-05 0.0000000000000000e+00  9.0085061088401507e-06 6.0830726472559180e-04 0.0000000000000000e+00  8.9153972830865894e-06 7.2795215474776443e-04 0.0000000000000000e+00  -9.6852237392680621e-06 2.0920057549208009e-04 0.0000000000000000e+00  8.9998474797838847e-06 5.4971991666133565e-04 0.0000000000000000e+00  -7.3931778298665077e-06 1.0960146233109111e-04 0.0000000000000000e+00  -1.0440278904152825e-05 2.5515062155556439e-04 0.0000000000000000e+00  8.9441695468104031e-06 4.9225801204501784e-04 0.0000000000000000e+00  8.9776167389488808e-06 6.6778697927798994e-04 0.0000000000000000e+00  -1.3263242297625602e-05 3.0370322923455446e-04 0.0000000000000000e+00  8.8409640607770877e-06 4.3618225118670720e-04 0.0000000000000000e+00  -4.2819091687271452e-07 4.3345113076855283e-07 0.0000000000000000e+00  3.3491058870301118e-07 3.6999542723270736e-07 0.0000000000000000e+00  -1.3579527613224701e-05 1.0578607792006299e-03 0.0000000000000000e+00  -2.5206956274920518e-06 5.8054655588348631e-06 0.0000000000000000e+00  1.1140503056957578e-05 3.8779548784561446e-04 0.0000000000000000