<?xml version="1.0"?>
<VTKFile type="UnstructuredGrid"  version="0.1"  >
<UnstructuredGrid>
<Piece  NumberOfPoints="1419" NumberOfCells="2698">
<Points>
<DataArray  type="Float64"  NumberOfComponents="3"  format="ascii">0 0 0  0 0.41 0  2.5 0 0  2.5 0.41 0  0.6 0.19 0  0.6 0.21 0  0.25 0.2 0  0.15 0.2 0  0.2489897948556636 0.21 0  0.2489897948556636 0.19 0  0.6 0.2 0  0 0.3807142857143437 0  0 0.3514285714286952 0  0 0.3221428571430699 0  0 0.29285714285744 0  0 0.2635714285718054 0  0 0.2342857142861561 0  0 0.2050000000005308 0  0 0.175714285714732 0  0 0.1464285714289574 0  0 0.1171428571431897 0  0 0.08785714285737878 0  0 0.05857142857161107 0  0 0.02928571428580012 0  0.03015443760436003 0 0  0.06140001986583606 0 0  0.09377624077125973 0 0  0.1273239957535082 0 0  0.1620856860351972 0 0  0.1981052433264291 0 0  0.235428184091502 0 0  0.2741016576309132 0 0  0.3141745521465447 0 0  0.3556974926295285 0 0  0.3987229542472677 0 0  0.4433053055141081 0 0  0.4895008759286886 0 0  0.5373680609405097 0 0  0.5869673343216626 0 0  0.6383613676634521 0 0  0.6916151138468254 0 0  0.7467958595648856 0 0  0.8039733463919316 0 0  0.8632198139502143 0 0  0.9246101326867038 0 0  0.9882218810934433 0 0  1.054135445558498 0 0  1.122434100542598 0 0  1.193204177141305 0 0  1.266535089879536 0 0  1.342519516046404 0 0  1.421253448503939 0 0  1.502836389106271 0 0  1.587371439758838 0 0  1.674965418777374 0 0  1.765729001825544 0 0  1.859776908880082 0 0  1.957227977487062 0 0  2.058205329869943 0 0  2.162836591189951 0 0  2.271253957290865 0 0  2.383594446803425 0 0  2.5 0.1024999999997612 0  2.5 0.2049999999994743 0  2.5 0.3074999999997183 0  2.383594446803656 0.41 0  2.271253957291315 0.41 0  2.162836591190598 0.41 0  2.058205329870775 0.41 0  1.957227977488067 0.41 0  1.859776908881246 0.41 0  1.765729001826854 0.41 0  1.674965418778818 0.41 0  1.58737143976041 0.41 0  1.502836389107956 0.41 0  1.421253448505726 0.41 0  1.342519516048286 0.41 0  1.266535089881505 0.41 0  1.193204177143353 0.41 0  1.122434100544716 0.41 0  1.05413544556068 0.41 0  0.9882218810956305 0.41 0  0.9246101326886647 0.41 0  0.8632198139519631 0.41 0  0.8039733463934788 0.41 0  0.7467958595662458 0.41 0  0.6916151138480078 0.41 0  0.6383613676644679 0.41 0  0.5869673343225223 0.41 0  0.5373680609412221 0.41 0  0.4895008759292634 0.41 0  0.4433053055145528 0.41 0  0.3987229542475914 0.41 0  0.3556974926297398 0.41 0  0.3141745521466497 0.41 0  0.2741016576310038 0.41 0  0.2354281840915826 0.41 0  0.1981052433265003 0.41 0  0.1620856860352591 0.41 0  0.1273239957535623 0.41 0  0.09377624077128965 0.41 0  0.06140001986584975 0.41 0  0.03015443760436654 0.41 0  0.2497468076502589 0.2050254481002335 0  0.2497468076502614 0.1949745518997913 0  0.2469965252529372 0.1829317073451959 0  0.2439893735792749 0.1762316384219906 0  0.2400332147834255 0.1700443375285386 0  0.2352133972704371 0.1645032867342007 0  0.2296339016332438 0.1597280261969788 0  0.2234150974217223 0.1558215752574715 0  0.2166911463437691 0.1528682099456123 0  0.2096071079204251 0.1509316448471593 0  0.2023158100364996 0.1500536585536553 0  0.194974551899914 0.1502531923497262 0  0.1877417105387872 0.1515259415822739 0  0.1807733240461124 0.153844448527136 0  0.1742197252835808 0.15715869474974 0  0.1682222986673531 0.1613971801805478 0  0.162910430003803 0.1664684656256651 0  0.1583987151779087 0.1722631454351573 0  0.1547844879126891 0.178656207771761 0  0.1521457199348551 0.1855097315605723 0  0.1505393388476355 0.1926758619366523 0  0.1505393388476328 0.2073241380633295 0  0.1521457199348437 0.2144902684393899 0  0.1547844879126531 0.221343792228163 0  0.1583987151778488 0.2277368545647528 0  0.1629104300036858 0.2335315343742052 0  0.1682222986671726 0.2386028198193036 0  0.1742197252833576 0.2428413052501257 0  0.1807733240458683 0.2461555514727623 0  0.1877417105384929 0.2484740584176516 0  0.1949745518995776 0.2497468076502398 0  0.202315810036185 0.2499463414463592 0  0.2096071079201568 0.2490683551528932 0  0.2166911463435495 0.2471317900544655 0  0.2234150974215506 0.2441784247426195 0  0.2296339016331197 0.2402719738031125 0  0.2352133972703547 0.2354967132658811 0  0.2400332147833751 0.2299556624715287 0  0.2439893735792577 0.2237683615780412 0  0.246996525252926 0.2170682926548348 0  0.25645809709277 0.21 0  0.2639263993298655 0.21 0  0.271394701566961 0.21 0  0.2788630038040554 0.21 0  0.2863313060411479 0.21 0  0.2937996082782405 0.21 0  0.301267910515333 0.21 0  0.3087362127524279 0.21 0  0.3162045149895234 0.21 0  0.3236728172265972 0.21 0  0.3311411194636928 0.21 0  0.3386094217007701 0.21 0  0.3460777239378666 0.21 0  0.3535460261749672 0.21 0  0.3610143284120516 0.21 0  0.3684826306491596 0.21 0  0.3759509328862226 0.21 0  0.383419235123329 0.21 0  0.3908875373604028 0.21 0  0.3983558395975142 0.21 0  0.4058241418345938 0.21 0  0.4132924440716992 0.21 0  0.4207607463087888 0.21 0  0.4282290485459029 0.21 0  0.4356973507830418 0.21 0  0.4431656530201649 0.21 0  0.4506339552573136 0.21 0  0.4581022574944306 0.21 0  0.4655705597315852 0.21 0  0.4730388619686996 0.21 0  0.480507164205851 0.21 0  0.4879754664429498 0.21 0  0.4954437686800938 0.21 0  0.502912070917267 0.21 0  0.5103803731544119 0.21 0  0.5178486753915261 0.21 0  0.5253169776286404 0.21 0  0.5327852798657868 0.21 0  0.5402535821029386 0.21 0  0.54772188434007 0.21 0  0.5551901865771842 0.21 0  0.5626584888143201 0.21 0  0.5701267910514778 0.21 0  0.5775950932886138 0.21 0  0.5850633955257281 0.21 0  0.5925316977628483 0.21 0  0.6 0.2050000000000054 0  0.6 0.1950000000000217 0  0.5925316977628897 0.19 0  0.5850633955257988 0.19 0  0.5775950932887378 0.19 0  0.5701267910515998 0.19 0  0.5626584888145268 0.19 0  0.5551901865773963 0.19 0  0.547721884340339 0.19 0  0.5402535821032429 0.19 0  0.5327852798661811 0.19 0  0.5253169776290537 0.19 0  0.5178486753919799 0.19 0  0.5103803731549078 0.19 0  0.502912070917822 0.19 0  0.4954437686807294 0.19 0  0.4879754664436223 0.19 0  0.4805071642065402 0.19 0  0.4730388619694271 0.19 0  0.4655705597323621 0.19 0  0.4581022574952563 0.19 0  0.4506339552581777 0.19 0  0.4431656530210671 0.19 0  0.4356973507839815 0.19 0  0.4282290485468779 0.19 0  0.4207607463097617 0.19 0  0.4132924440726327 0.19 0  0.4058241418354857 0.19 0  0.3983558395983636 0.19 0  0.3908875373612097 0.19 0  0.3834192351240934 0.19 0  0.3759509328869369 0.19 0  0.3684826306498175 0.19 0  0.361014328412667 0.19 0  0.3535460261755617 0.19 0  0.3460777239384295 0.19 0  0.3386094217012945 0.19 0  0.3311411194641595 0.19 0  0.3236728172270245 0.19 0  0.3162045149898895 0.19 0  0.3087362127527544 0.19 0  0.3012679105156187 0.19 0  0.2937996082784807 0.19 0  0.2863313060413428 0.19 0  0.2788630038042048 0.19 0  0.2713947015670686 0.19 0  0.2639263993299336 0.19 0  0.2564580970927985 0.19 0  0.2607803159922026 0.2000727136295815 0  0.5887803774232762 0.2001272386983733 0  0.5745072403740523 0.2002044435018727 0  0.5511891430099709 0.2001122610077113 0  0.2751288526855082 0.20000000000002 0  0.5365194309847112 0.1999999999999436 0  0.2894621222999649 0.1998691686390484 0  0.5215828265105155 0.1999999999999228 0  0.3127789816668748 0.1998657885438805 0  0.3274069683451451 0.2000000000000796 0  0.5066462220363641 0.199999999999908 0  0.3650630746574081 0.199866017807523 0  0.476773013087985 0.1999999999998713 0  0.3417402379596385 0.1998691686391011 0  0.3796850840047755 0.200000000000134 0  0.4618364086138087 0.1999999999998546 0  0.4917096175621762 0.1999999999998808 0  0.3946216884789568 0.2000000000001512 0  0.446899804139621 0.1999999999998389 0  0.4089549580935208 0.1998691686391595 0  0.4322718174608562 0.200127451265745 0  0.4201487168029707 0.1999966199048527 0  0.3528922713220932 0.2000185703532356 0  0.5633122436674589 0.1999814296467508 0  0.3006558810093873 0.1999966199048318 0  0.5815926498168407 0.1966545283159175 0  0.2677053789419034 0.1964246479135325 0  0.5290511287476175 0.1970915826863981 0  0.5439877332217911 0.197091582686394 0  0.2825131256993216 0.2035478995978015 0  0.3199386661080599 0.202908417313604 0  0.4842413153250809 0.1970915826863873 0  0.5141145242734466 0.1970915826863843 0  0.3722167817676917 0.2029084173136195 0  0.4693047108508938 0.1970915826863783 0  0.3348752705822316 0.202908417313609 0  0.3871533862418661 0.2029084173136212 0  0.4543681063767183 0.1970915826863795 0  0.4991779197992749 0.1970915826863902 0  0.4020059614928624 0.203547899597858 0  0.4394315019025246 0.1970915826863714 0  0.2550657455369551 0.2034088125358657 0  0.2548908499171161 0.1966940311614271 0  0.5946539510196798 0.2024302972968126 0  0.267698176732111 0.2039977513680092 0  0.4261685417851465 0.196409292431739 0  0.3590076176283495 0.196411355804271 0  0.5571672426447437 0.2036011176410121 0  0.3066757059912147 0.1964092924317024 0  0.594380730180568 0.1966558399668133 0  0.4842413153245942 0.2040749161535287 0  0.4693047108503577 0.2040749161535231 0  0.3871533862424271 0.1959250838464788 0  0.372246743208829 0.1959123236376545 0  0.5141145242731028 0.2040749161535395 0  0.4543681063761134 0.2040749161535186 0  0.4019979587101454 0.1959834479682427 0  0.4394608940728603 0.2040870543693135 0  0.5439623148931173 0.2040856076781014 0  0.5290511287473298 0.2040749161535501 0  0.4991779197988497 0.2040749161535382 0  0.3347912413592433 0.1959225448935183 0  0.3199680582793816 0.1959123018030061 0  0.2825051229162361 0.1959834479681729 0  0.3590471196690275 0.2036304442587945 0  0.5571594006495384 0.1963685282145804 0  0.3067669986803285 0.203627750582736 0  0.4262598344738712 0.2036568242185335 0  0.5814408164431408 0.2041285596160068 0  0.5688286748170428 0.1961819304477386 0  0.4145905603063645 0.2038180695522843 0  0.3473758401724931 0.2038180695522752 0  0.2950977245128307 0.2038180695522663 0  0.5688286748170693 0.203818069552238 0  0.2950977245127906 0.1961819304477774 0  0.3473758401723931 0.1961819304478349 0  0.4145905603061963 0.1961819304479011 0  0.2601812407614425 0.2056861609747042
[...]
<PointData  Vectors="f_46-0"> 
<DataArray  type="Float64"  Name="f_46-0"  NumberOfComponents="3" format="ascii">0.0000000000000000e+00 0.0000000000000000e+00 0.0000000000000000e+00  0.0000000000000000e+00 0.0000000000000000e+00 0.0000000000000000e+00  0.0000000000000000e+00 0.0000000000000000e+00 0.0000000000000000e+00  0.0000000000000000e+00 0.0000000000000000e+00 0.0000000000000000e+00  3.7892020020091910e-05 1.0922024988259875e-03 0.0000000000000000e+00  -4.5915220915587218e-05 1.0922003650729705e-03 0.0000000000000000e+00  0.0000000000000000e+00 0.0000000000000000e+00 0.0000000000000000e+00  0.0000000000000000e+00 0.0000000000000000e+00 0.0000000000000000e+00  0.0000000000000000e+00 0.0000000000000000e+00 0.0000000000000000e+00  0.0000000000000000e+00 0.0000000000000000e+00 0.0000000000000000e+00  -3.9974601568319169e-06 1.0921923910198498e-03 0.0000000000000000e+00  7.9591836734548407e-02 0.0000000000000000e+00 0.0000000000000000e+00  1.4693877550994527e-01 0.0000000000000000e+00 0.0000000000000000e+00  2.0204081632617479e-01 0.0000000000000000e+00 0.0000000000000000e+00  2.4489795918330076e-01 0.0000000000000000e+00 0.0000000000000000e+00  2.7551020408131754e-01 0.0000000000000000e+00 0.0000000000000000e+00  2.9387755102022350e-01 0.0000000000000000e+00 0.0000000000000000e+00  3.0000000000000004e-01 0.0000000000000000e+00 0.0000000000000000e+00  2.9387755102059482e-01 0.0000000000000000e+00 0.0000000000000000e+00  2.7551020408195548e-01 0.0000000000000000e+00 0.0000000000000000e+00  2.4489795918409074e-01 0.0000000000000000e+00 0.0000000000000000e+00  2.0204081632692525e-01 0.0000000000000000e+00 0.0000000000000000e+00  1.4693877551058568e-01 0.0000000000000000e+00 0.0000000000000000e+00  7.9591836734909230e-02 0.0000000000000000e+00 0.0000000000000000e+00  0.0000000000000000e+00 0.0000000000000000e+00 0.0000000000000000e+00  0.0000000000000000e+00 0.0000000000000000e+00 0.0000000000000000e+00  0.0000000000000000e+00 0.0000000000000000e+00 0.0000000000000000e+00  0.0000000000000000e+00 0.0000000000000000e+00 0.0000000000000000e+00  0.0000000000000000e+00 0.0000000000000000e+00 0.0000000000000000e+00  0.0000000000000000e+00 0.0000000000000000e+00 0.0000000000000000e+00  0.0000000000000000e+00 0.0000000000000000e+00 0.0000000000000000e+00  0.0000000000000000e+00 0.0000000000000000e+00 0.0000000000000000e+00  0.0000000000000000e+00 0.0000000000000000e+00 0.0000000000000000e+00  0.0000000000000000e+00 0.0000000000000000e+00 0.0000000000000000e+00  0.0000000000000000e+00 0.0000000000000000e+00 0.0000000000000000e+00  0.0000000000000000e+00 0.0000000000000000e+00 0.0000000000000000e+00  0.0000000000000000e+00 0.0000000000000000e+00 0.0000000000000000e+00  0.0000000000000000e+00 0.0000000000000000e+00 0.0000000000000000e+00  0.0000000000000000e+00 0.0000000000000000e+00 0.0000000000000000e+00  0.0000000000000000e+00 0.0000000000000000e+00 0.0000000000000000e+00  0.0000000000000000e+00 0.0000000000000000e+00 0.0000000000000000e+00  0.0000000000000000e+00 0.0000000000000000e+00 0.0000000000000000e+00  0.0000000000000000e+00 0.0000000000000000e+00 0.0000000000000000e+00  0.0000000000000000e+00 0.0000000000000000e+00 0.0000000000000000e+00  0.0000000000000000e+00 0.0000000000000000e+00 0.0000000000000000e+00  0.0000000000000000e+00 0.0000000000000000e+00 0.0000000000000000e+00  0.0000000000000000e+00 0.0000000000000000e+00 0.0000000000000000e+00  0.0000000000000000e+00 0.0000000000000000e+00 0.0000000000000000e+00  0.0000000000000000e+00 0.0000000000000000e+00 0.0000000000000000e+00  0.0000000000000000e+00 0.0000000000000000e+00 0.0000000000000000e+00  0.0000000000000000e+00 0.0000000000000000e+00 0.0000000000000000e+00  0.0000000000000000e+00 0.0000000000000000e+00 0.0000000000000000e+00  0.0000000000000000e+00 0.0000000000000000e+00 0.0000000000000000e+00  0.0000000000000000e+00 0.0000000000000000e+00 0.0000000000000000e+00  0.0000000000000000e+00 0.0000000000000000e+00 0.0000000000000000e+00  0.0000000000000000e+00 0.0000000000000000e+00 0.0000000000000000e+00  0.0000000000000000e+00 0.0000000000000000e+00 0.0000000000000000e+00  0.0000000000000000e+00 0.0000000000000000e+00 0.0000000000000000e+00  0.0000000000000000e+00 0.0000000000000000e+00 0.0000000000000000e+00  0.0000000000000000e+00 0.0000000000000000e+00 0.0000000000000000e+00  0.0000000000000000e+00 0.0000000000000000e+00 0.0000000000000000e+00  0.0000000000000000e+00 0.0000000000000000e+00 0.0000000000000000e+00  2.4907550118377678e-01 1.4152979968019524e-03 0.0000000000000000e+00  3.0390797763030836e-01 4.5996317943402844e-03 0.0000000000000000e+00  2.4294077295937919e-01 -7.1716935739718985e-03 0.0000000000000000e+00  0.0000000000000000e+00 0.0000000000000000e+00 0.0000000000000000e+00  0.0000000000000000e+00 0.0000000000000000e+00 0.0000000000000000e+00  0.0000000000000000e+00 0.0000000000000000e+00 0.0000000000000000e+00  0.0000000000000000e+00 0.0000000000000000e+00 0.0000000000000000e+00  0.0000000000000000e+00 0.0000000000000000e+00 0.0000000000000000e+00  0.0000000000000000e+00 0.0000000000000000e+00 0.0000000000000000e+00  0.0000000000000000e+00 0.0000000000000000e+00 0.0000000000000000e+00  0.0000000000000000e+00 0.0000000000000000e+00 0.0000000000000000e+00  0.0000000000000000e+00 0.0000000000000000e+00 0.0000000000000000e+00  0.0000000000000000e+00 0.0000000000000000e+00 0.0000000000000000e+00  0.0000000000000000e+00 0.0000000000000000e+00 0.0000000000000000e+00  0.0000000000000000e+00 0.0000000000000000e+00 0.0000000000000000e+00  0.0000000000000000e+00 0.0000000000000000e+00 0.0000000000000000e+00  0.0000000000000000e+00 0.0000000000000000e+00 0.0000000000000000e+00  0.0000000000000000e+00 0.0000000000000000e+00 0.0000000000000000e+00  0.0000000000000000e+00 0.0000000000000000e+00 0.0000000000000000e+00  0.0000000000000000e+00 0.0000000000000000e+00 0.0000000000000000e+00  0.0000000000000000e+00 0.0000000000000000e+00 0.0000000000000000e+00  0.0000000000000000e+00 0.0000000000000000e+00 0.0000000000000000e+00  0.0000000000000000e+00 0.0000000000000000e+00 0.0000000000000000e+00  0.0000000000000000e+00 0.0000000000000000e+00 0.0000000000000000e+00  0.0000000000000000e+00 0.0000000000000000e+00 0.0000000000000000e+00  0.0000000000000000e+00 0.0000000000000000e+00 0.0000000000000000e+00  0.0000000000000000e+00 0.0000000000000000e+00 0.0000000000000000e+00  0.0000000000000000e+00 0.0000000000000000e+00 0.0000000000000000e+00  0.0000000000000000e+00 0.0000000000000000e+00 0.0000000000000000e+00  0.0000000000000000e+00 0.0000000000000000e+00 0.0000000000000000e+00  0.0000000000000000e+00 0.0000000000000000e+00 0.0000000000000000e+00  0.0000000000000000e+00 0.0000000000000000e+00 0.0000000000000000e+00  0.0000000000000000e+00 0.0000000000000000e+00 0.0000000000000000e+00  0.0000000000000000e+00 0.0000000000000000e+00 0.0000000000000000e+00  0.0000000000000000e+00 0.0000000000000000e+00 0.0000000000000000e+00  0.0000000000000000e+00 0.0000000000000000e+00 0.0000000000000000e+00  0.0000000000000000e+00 0.0000000000000000e+00 0.0000000000000000e+00  0.0000000000000000e+00 0.0000000000000000e+00 0.0000000000000000e+00  0.0000000000000000e+00 0.0000000000000000e+00 0.0000000000000000e+00  0.0000000000000000e+00 0.0000000000000000e+00 0.0000000000000000e+00  0.0000000000000000e+00 0.0000000000000000e+00 0.0000000000000000e+00  0.0000000000000000e+00 0.0000000000000000e+00 0.0000000000000000e+00  0.0000000000000000e+00 0.0000000000000000e+00 0.0000000000000000e+00  -6.1608494310188247e-16 0.0000000000000000e+00 0.0000000000000000e+00  0.0000000000000000e+00 0.0000000000000000e+00 0.0000000000000000e+00  0.0000000000000000e+00 0.0000000000000000e+00 0.0000000000000000e+00  0.0000000000000000e+00 0.0000000000000000e+00 0.0000000000000000e+00  0.0000000000000000e+00 0.0000000000000000e+00 0.0000000000000000e+00  0.0000000000000000e+00 0.0000000000000000e+00 0.0000000000000000e+00  0.0000000000000000e+00 0.0000000000000000e+00 0.0000000000000000e+00  0.0000000000000000e+00 0.0000000000000000e+00 0.0000000000000000e+00  0.0000000000000000e+00 0.0000000000000000e+00 0.0000000000000000e+00  0.0000000000000000e+00 0.0000000000000000e+00 0.0000000000000000e+00  0.0000000000000000e+00 0.0000000000000000e+00 0.0000000000000000e+00  0.0000000000000000e+00 0.0000000000000000e+00 0.0000000000000000e+00  0.0000000000000000e+00 0.0000000000000000e+00 0.0000000000000000e+00  0.0000000000000000e+00 0.0000000000000000e+00 0.0000000000000000e+00  0.0000000000000000e+00 0.0000000000000000e+00 0.0000000000000000e+00  0.0000000000000000e+00 0.0000000000000000e+00 0.0000000000000000e+00  0.0000000000000000e+00 0.0000000000000000e+00 0.0000000000000000e+00  0.0000000000000000e+00 0.0000000000000000e+00 0.0000000000000000e+00  0.0000000000000000e+00 0.0000000000000000e+00 0.0000000000000000e+00  0.0000000000000000e+00 0.0000000000000000e+00 0.0000000000000000e+00  0.0000000000000000e+00 0.0000000000000000e+00 0.0000000000000000e+00  0.0000000000000000e+00 0.0000000000000000e+00 0.0000000000000000e+00  0.0000000000000000e+00 0.0000000000000000e+00 0.0000000000000000e+00  0.0000000000000000e+00 0.0000000000000000e+00 0.0000000000000000e+00  0.0000000000000000e+00 0.0000000000000000e+00 0.0000000000000000e+00  0.0000000000000000e+00 0.0000000000000000e+00 0.0000000000000000e+00  0.0000000000000000e+00 0.0000000000000000e+00 0.0000000000000000e+00  0.0000000000000000e+00 0.0000000000000000e+00 0.0000000000000000e+00  0.0000000000000000e+00 0.0000000000000000e+00 0.0000000000000000e+00  0.0000000000000000e+00 0.0000000000000000e+00 0.0000000000000000e+00  0.0000000000000000e+00 0.0000000000000000e+00 0.0000000000000000e+00  0.0000000000000000e+00 0.0000000000000000e+00 0.0000000000000000e+00  0.0000000000000000e+00 0.0000000000000000e+00 0.0000000000000000e+00  0.0000000000000000e+00 0.0000000000000000e+00 0.0000000000000000e+00  0.0000000000000000e+00 0.0000000000000000e+00 0.0000000000000000e+00  0.0000000000000000e+00 0.0000000000000000e+00 0.0000000000000000e+00  0.0000000000000000e+00 0.0000000000000000e+00 0.0000000000000000e+00  0.0000000000000000e+00 0.0000000000000000e+00 0.0000000000000000e+00  -2.3163394513580677e-06 1.8975327779835705e-06 0.0000000000000000e+00  -4.9332995944673969e-06 4.6283786470160697e-06 0.0000000000000000e+00  -7.2278231989741372e-06 9.0990377280724062e-06 0.0000000000000000e+00  -9.7036686384074371e-06 1.5401516570448709e-05 0.0000000000000000e+00  -1.1758209104548867e-05 2.3232159197746257e-05 0.0000000000000000e+00  -1.4090607877804756e-05 3.2731952212847263e-05 0.0000000000000000e+00  -1.5954572282188357e-05 4.3466490987910655e-05 0.0000000000000000e+00  -1.7758311041670429e-05 5.5825252023199153e-05 0.0000000000000000e+00  -1.9833211280235204e-05 6.9411596908320952e-05 0.0000000000000000e+00  -2.1404401123792985e-05 8.4280919555974293e-05 0.0000000000000000e+00  -2.3329612375633478e-05 1.0040625777952914e-04 0.0000000000000000e+00  -2.4765494952883946e-05 1.1769497149653339e-04 0.0000000000000000e+00  -2.6470069187361578e-05 1.3610586859016022e-04 0.0000000000000000e+00  -2.7816248317091752e-05 1.5542853802643570e-04 0.0000000000000000e+00  -2.9117506033352193e-05 1.7588311528689987e-04 0.0000000000000000e+00  -3.0597355966177079e-05 1.9718987876600637e-04 0.0000000000000000e+00  -3.1717804622616658e-05 2.1938403330960487e-04 0.0000000000000000e+00  -3.3063403002524593e-05 2.4243688466968642e-04 0.0000000000000000e+00  -3.4063701816967689e-05 2.6626988806455025e-04 0.0000000000000000e+00  -3.5244177026103036e-05 2.9082680089019086e-04 0.0000000000000000e+00  -3.6178853908480144e-05 3.1609511812095878e-04 0.0000000000000000e+00  -3.7209885675901572e-05 3.4204062300781818e-04 0.0000000000000000e+00  -3.8029921802566669e-05 3.6848793840290185e-04 0.0000000000000000e+00  -3.8807985959335107e-05 3.9558295076934353e-04 0.0000000000000000e+00  -3.9655261960240235e-05 4.2311257674048551e-04 0.0000000000000000e+00  -4.0351689085281241e-05 4.5115767557125908e-04 0.0000000000000000e+00  -4.1038243226634209e-05 4.7964079034422738e-04 0.0000000000000000e+00  -4.1633634517745142e-05 5.0849631390577680e-04 0.0000000000000000e+00  -4.2211921386121411e-05 5.3772843377462149e-04 0.0000000000000000e+00  -4.2709154283286126e-05 5.6725794096328856e-04 0.0000000000000000e+00  -4.3185379132723094e-05 5.9709299399612371e-04 0.0000000000000000e+00  -4.3590010185126486e-05 6.2715838019919542e-04 0.0000000000000000e+00  -4.3971006165205021e-05 6.5746335960077467e-04 0.0000000000000000e+00  -4.4290819019642834e-05 6.8793943123710303e-04 0.0000000000000000e+00  -4.4585478489699300e-05 7.1859672479930071e-04 0.0000000000000000e+00  -4.4828663791780214e-05 7.4937423628290429e-04 0.0000000000000000e+00  -4.5047877734777002e-05 7.8028253733486257e-04 0.0000000000000000e+00  -4.5225548300911633e-05 8.1126986042559220e-04 0.0000000000000000e+00  -4.5381226985351411e-05 8.4234639707837528e-04 0.0000000000000000e+00  -4.5504554084137286e-05 8.7347006169541223e-04 0.0000000000000000e+00  -4.5610475351146519e-05 9.0465241137476264e-04 0.0000000000000000e+00  -4.5690764786985705e-05 9.3585851922792999e-04 0.0000000000000000e+00  -4.5753733967021784e-05 9.6709722315697867e-04 0.0000000000000000e+00  -4.5810837755948452e-05 9.9835107956621817e-04 0.0000000000000000e+00  -4.5851300974868724e-05 1.0296185499705612e-03 0.0000000000000000e+00  -4.5884289552357416e-05 1.0608997418502183e-03 0.0000000000000000e+00  -2.4947351381660124e-05 1.0921938172953555e-03 0.0000000000000000e+00  1.6947222862221826e-05 1.0921944603020509e-03 0.0000000000000000e+00  3.7900151847712863e-05 1.0609084016597208e-03 0.0000000000000000e+00  3.7904108659583936e-05 1.0296209447972480e-03 0.0000000000000000e+00  3.7909239939892796e-05 9.9834080543646743e-04 0.0000000000000000e+00  3.7907220955335329e-05 9.6707575325570994e-04 0.0000000000000000e+00  3.7906889889726428e-05 9.3582556143016564e-04 0.0000000000000000e+00  3.7901871678612356e-05 9.0460548480271832e-04 0.0000000000000000e+00  3.7877573717257922e-05 8.7341578802778398e-04 0.0000000000000000e+00  3.7859800610037763e-05 8.4227336422360716e-04 0.0000000000000000e+00  3.7805234912163318e-05 8.1118996987531312e-04 0.0000000000000000e+00  3.7763130923615832e-05 7.8018478738449610e-04 0.0000000000000000e+00  3.7666126791298301e-05 7.4927084296573770e-04 0.0000000000000000e+00  3.7588276803245913e-05 7.1847601648604182e-04 0.0000000000000000e+00  3.7434279573696734e-05 6.8781471212880972e-04 0.0000000000000000e+00  3.7309164319439286e-05 6.5732337595252705e-04 0.0000000000000000e+00  3.7083359723603427e-05 6.2701636931128857e-04 0.0000000000000000e+00  3.6899970985689232e-05 5.9693816981387876e-04 0.0000000000000000e+00  3.6589172187688835e-05 5.6710329989564337e-04 0.0000000000000000e+00  3.6336819127798250e-05 5.3756387276296749e-04 0.0000000000000000e+00  3.5927665053938153e-05 5.0833358396126544e-04 0.0000000000000000e+00  3.5596389703531993e-05 4.7947068894722676e-04 0.0000000000000000e+00  3.5073610324023750e-05 4.5099166785087956e-04 0.0000000000000000e+00  3.4649658592819108e-05 4.2296149002655310e-04 0.0000000000000000e+00  3.4014324712499940e-05 3.9540499947488092e-04 0.0000000000000000e+00  3.3461375974546320e-05 3.6832093437018799e-04 0.0000000000000000e+00  3.2862484152802577e-05 3.4188262081288412e-04 0.0000000000000000e+00  3.2070073666191870e-05 3.1592288590145886e-04 0.0000000000000000e+00  3.1323590340661898e-05 2.9068637685398987e-04 0.0000000000000000e+00  3.0431508461664503e-05 2.6609674257000333e-04 0.0000000000000000e+00  2.9556378142829776e-05 2.4228367433154767e-04 0.0000000000000000e+00  2.8538471096793211e-05 2.1922717721533868e-04 0.0000000000000000e+00  2.7537171146036231e-05 1.9700223448720027e-04 0.0000000000000000e+00  2.6288959274472261e-05 1.7575339414857861e-04 0.0000000000000000e+00  2.5201435082032266e-05 1.5528727092546917e-04 0.0000000000000000e+00  2.4060050549450646e-05 1.3598059334185838e-04 0.0000000000000000e+00  2.2611378943825135e-05 1.1749954246892889e-04 0.0000000000000000e+00  2.1248573202264601e-05 1.0025473594165457e-04 0.0000000000000000e+00  1.9689112250806151e-05 8.4119402625649657e-05 0.0000000000000000e+00  1.8176825284011774e-05 6.9199139628425290e-05 0.0000000000000000e+00  1.6325794818454078e-05 5.5689483088729327e-05 0.0000000000000000e+00  1.4715008876573217e-05 4.3307045925251738e-05 0.0000000000000000e+00  1.3044944130462787e-05 3.2574158191491478e-05 0.0000000000000000e+00  1.0940186626696988e-05 2.3026465055230243e-05 0.0000000000000000e+00  9.0104408080104769e-06 1.5172034112567952e-05 0.0000000000000000e+00  6.7057866146418580e-06 8.9559199950899463e-06 0.0000000000000000e+00  4.6362520112112234e-06 4.4595546434008646e-06 0.0000000000000000e+00  2.1807267572494517e-06 1.7143434426510482e-06 0.0000000000000000e+00  -1.2377593969411250e-07 1.9089819446836458e-06 0.0000000000000000e+00  -4.5081168087543973e-06 1.0451818389544526e-03 0.0000000000000000e+00  -4.7904017008959226e-06 9.8540534783936535e-04 0.0000000000000000e+00  -4.2933294451095747e-06 8.8788497454169780e-04 0.0000000000000000e+00  -2.7958238059460482e-07 1.0851699500668883e-05 0.0000000000000000e+00  -3.7267190748568748e-06 8.2671291032821196e-04 0.0000000000000000e+00  -3.0862680859459176e-07 2.5893841288752771e-05 0.0000000000000000e+00  -3.6023451038906967e-06 7.6469255195016198e-04 0.0000000000000000e+00  -5.1511010481449605e-07 6.2052704087390111e-05 0.0000000000000000e+00  -9.5196799747533817e-07 9.1346587460429629e-05 0.0000000000000000e+00  -3.4539152333630974e-06 7.0308567587439746e-04 0.0000000000000000e+00  -1.0840569183343124e-06 1.8663221919879513e-04 0.0000000000000000e+00  -3.0933582735406201e-06 5.8188653090014654e-04 0.0000000000000000e+00  -8.2773864895199721e-07 1.2446171657131905e-04 0.0000000000000000e+00  -1.6774602060027896e-06 2.3020491012485733e-04 0.0000000000000000e+00  -2.8885763195637558e-06 5.2276536452663318e-04 0.0000000000000000e+00  -3.2832022103809191e-06 6.4207702219692693e-04 0.0000000000000000e+00  -1.8957659377054928e-06 2.7790937938738177e-04 0.0000000000000000e+00  -2.6711227537632080e-06 4.6499345069424665e-04 0.0000000000000000e+00  -1.6551120326147770e-06 3.2638057505671956e-04 0.0000000000000000e+00  -2.9244686937703214e-06 4.1001443965322794e-04 0.0000000000000000e+00  -2.2632959001744837e-06 3.6594097391177808e-04 0.0000000000000000e+00  -1.3459952055886208e-06 1.5314510258678925e-04 0.0000000000000000e+00  -3.8086476696059571e-06 9.3856104630067225e-04 0.0000000000000000e+00  -5.9235237075276914e-07 4.1762909759452625e-05 0.0000000000000000e+00  1.0049970827227533e-05 1.0150759049623579e-03 0.0000000000000000e+00  1.9294747351160302e-06 5.6024527281516305e-06 0.0000000000000000e+00  8.3883011040112092e-06 7.9565685514157111e-04 0.0000000000000000e+00  8.3331007912596307e-06 8.5782699379658811e-04 0.0000000000000000e+00  -4.0042550370202282e-06 1.8089368837517558e-05 0.0000000000000000e+00  -6.6195105980695241e-06 7.5926595070067635e-05 0.0000000000000000e+00  8.4941387939839051e-06 6.1186517142270802e-04 0.0000000000000000e+00  8.4388444212075634e-06 7.3382288524103225e-04 0.0000000000000000e+00  -1.0185480772889531e-05 2.0763840393913592e-04 0.0000000000000000e+00  8.4798817694400973e-06 5.5218041399082577e-04 0.0000000000000000e+00  -7.7067636849953828e-06 1.0821019600079819e-04 0.0000000000000000e+00  -1.1018451106951242e-05 2.5377098815130438e-04 0.0000000000000000e+00  8.4251024415292498e-06 4.9370209307527128e-04 0.0000000000000000e+00  8.4772420802579259e-06 6.7249122269963336e-04 0.0000000000000000e+00  -1.3937377722278052e-05 3.0267606503032020e-04 0.0000000000000000e+00  8.3279274804496060e-06 4.3672285694676942e-04 0.0000000000000000e+00  -4.3583536370229416e-07 4.2442831964640677e-07 0.0000000000000000e+00  3.1287131203760717e-07 3.4636331735133540e-07 0.0000000000000000e+00  -1.4168199961543338e-05 1.0697906118026165e-03 0.0000000000000000e+00  -2.5516983084076112e-06 5.6764792815371361e-06 0.0000000000000000e+00  1.0666887340496991e-05 3.8764708762672312e-04 0.000000000000000