<?xml version="1.0"?>
<VTKFile type="UnstructuredGrid"  version="0.1"  >
<UnstructuredGrid>
<Piece  NumberOfPoints="1419" NumberOfCells="2698">
<Points>
<DataArray  type="Float64"  NumberOfComponents="3"  format="ascii">0 0 0  0 0.41 0  2.5 0 0  2.5 0.41 0  0.6 0.19 0  0.6 0.21 0  0.25 0.2 0  0.15 0.2 0  0.2489897948556636 0.21 0  0.2489897948556636 0.19 0  0.6 0.2 0  0 0.3807142857143437 0  0 0.3514285714286952 0  0 0.3221428571430699 0  0 0.29285714285744 0  0 0.2635714285718054 0  0 0.2342857142861561 0  0 0.2050000000005308 0  0 0.175714285714732 0  0 0.1464285714289574 0  0 0.1171428571431897 0  0 0.08785714285737878 0  0 0.05857142857161107 0  0 0.02928571428580012 0  0.03015443760436003 0 0  0.06140001986583606 0 0  0.09377624077125973 0 0  0.1273239957535082 0 0  0.1620856860351972 0 0  0.1981052433264291 0 0  0.235428184091502 0 0  0.2741016576309132 0 0  0.3141745521465447 0 0  0.3556974926295285 0 0  0.3987229542472677 0 0  0.4433053055141081 0 0  0.4895008759286886 0 0  0.5373680609405097 0 0  0.5869673343216626 0 0  0.6383613676634521 0 0  0.6916151138468254 0 0  0.7467958595648856 0 0  0.8039733463919316 0 0  0.8632198139502143 0 0  0.9246101326867038 0 0  0.9882218810934433 0 0  1.054135445558498 0 0  1.122434100542598 0 0  1.193204177141305 0 0  1.266535089879536 0 0  1.342519516046404 0 0  1.421253448503939 0 0  1.502836389106271 0 0  1.587371439758838 0 0  1.674965418777374 0 0  1.765729001825544 0 0  1.859776908880082 0 0  1.957227977487062 0 0  2.058205329869943 0 0  2.162836591189951 0 0  2.271253957290865 0 0  2.383594446803425 0 0  2.5 0.1024999999997612 0  2.5 0.2049999999994743 0  2.5 0.3074999999997183 0  2.383594446803656 0.41 0  2.271253957291315 0.41 0  2.162836591190598 0.41 0  2.058205329870775 0.41 0  1.957227977488067 0.41 0  1.859776908881246 0.41 0  1.765729001826854 0.41 0  1.674965418778818 0.41 0  1.58737143976041 0.41 0  1.502836389107956 0.41 0  1.421253448505726 0.41 0  1.342519516048286 0.41 0  1.266535089881505 0.41 0  1.193204177143353 0.41 0  1.122434100544716 0.41 0  1.05413544556068 0.41 0  0.9882218810956305 0.41 0  0.9246101326886647 0.41 0  0.8632198139519631 0.41 0  0.8039733463934788 0.41 0  0.7467958595662458 0.41 0  0.6916151138480078 0.41 0  0.6383613676644679 0.41 0  0.5869673343225223 0.41 0  0.5373680609412221 0.41 0  0.4895008759292634 0.41 0  0.4433053055145528 0.41 0  0.3987229542475914 0.41 0  0.3556974926297398 0.41 0  0.3141745521466497 0.41 0  0.2741016576310038 0.41 0  0.2354281840915826 0.41 0  0.1981052433265003 0.41 0  0.1620856860352591 0.41 0  0.1273239957535623 0.41 0  0.09377624077128965 0.41 0  0.06140001986584975 0.41 0  0.03015443760436654 0.41 0  0.2497468076502589 0.2050254481002335 0  0.2497468076502614 0.1949745518997913 0  0.2469965252529372 0.1829317073451959 0  0.2439893735792749 0.1762316384219906 0  0.2400332147834255 0.1700443375285386 0  0.2352133972704371 0.1645032867342007 0  0.2296339016332438 0.1597280261969788 0  0.2234150974217223 0.1558215752574715 0  0.2166911463437691 0.1528682099456123 0  0.2096071079204251 0.1509316448471593 0  0.2023158100364996 0.1500536585536553 0  0.194974551899914 0.1502531923497262 0  0.1877417105387872 0.1515259415822739 0  0.1807733240461124 0.153844448527136 0  0.1742197252835808 0.15715869474974 0  0.1682222986673531 0.1613971801805478 0  0.162910430003803 0.1664684656256651 0  0.1583987151779087 0.1722631454351573 0  0.1547844879126891 0.178656207771761 0  0.1521457199348551 0.1855097315605723 0  0.1505393388476355 0.1926758619366523 0  0.1505393388476328 0.2073241380633295 0  0.1521457199348437 0.2144902684393899 0  0.1547844879126531 0.221343792228163 0  0.1583987151778488 0.2277368545647528 0  0.1629104300036858 0.2335315343742052 0  0.1682222986671726 0.2386028198193036 0  0.1742197252833576 0.2428413052501257 0  0.1807733240458683 0.2461555514727623 0  0.1877417105384929 0.2484740584176516 0  0.1949745518995776 0.2497468076502398 0  0.202315810036185 0.2499463414463592 0  0.2096071079201568 0.2490683551528932 0  0.2166911463435495 0.2471317900544655 0  0.2234150974215506 0.2441784247426195 0  0.2296339016331197 0.2402719738031125 0  0.2352133972703547 0.2354967132658811 0  0.2400332147833751 0.2299556624715287 0  0.2439893735792577 0.2237683615780412 0  0.246996525252926 0.2170682926548348 0  0.25645809709277 0.21 0  0.2639263993298655 0.21 0  0.271394701566961 0.21 0  0.2788630038040554 0.21 0  0.2863313060411479 0.21 0  0.2937996082782405 0.21 0  0.301267910515333 0.21 0  0.3087362127524279 0.21 0  0.3162045149895234 0.21 0  0.3236728172265972 0.21 0  0.3311411194636928 0.21 0  0.3386094217007701 0.21 0  0.3460777239378666 0.21 0  0.3535460261749672 0.21 0  0.3610143284120516 0.21 0  0.3684826306491596 0.21 0  0.3759509328862226 0.21 0  0.383419235123329 0.21 0  0.3908875373604028 0.21 0  0.3983558395975142 0.21 0  0.4058241418345938 0.21 0  0.4132924440716992 0.21 0  0.4207607463087888 0.21 0  0.4282290485459029 0.21 0  0.4356973507830418 0.21 0  0.4431656530201649 0.21 0  0.4506339552573136 0.21 0  0.4581022574944306 0.21 0  0.4655705597315852 0.21 0  0.4730388619686996 0.21 0  0.480507164205851 0.21 0  0.4879754664429498 0.21 0  0.4954437686800938 0.21 0  0.502912070917267 0.21 0  0.5103803731544119 0.21 0  0.5178486753915261 0.21 0  0.5253169776286404 0.21 0  0.5327852798657868 0.21 0  0.5402535821029386 0.21 0  0.54772188434007 0.21 0  0.5551901865771842 0.21 0  0.5626584888143201 0.21 0  0.5701267910514778 0.21 0  0.5775950932886138 0.21 0  0.5850633955257281 0.21 0  0.5925316977628483 0.21 0  0.6 0.2050000000000054 0  0.6 0.1950000000000217 0  0.5925316977628897 0.19 0  0.5850633955257988 0.19 0  0.5775950932887378 0.19 0  0.5701267910515998 0.19 0  0.5626584888145268 0.19 0  0.5551901865773963 0.19 0  0.547721884340339 0.19 0  0.5402535821032429 0.19 0  0.5327852798661811 0.19 0  0.5253169776290537 0.19 0  0.5178486753919799 0.19 0  0.5103803731549078 0.19 0  0.502912070917822 0.19 0  0.4954437686807294 0.19 0  0.4879754664436223 0.19 0  0.4805071642065402 0.19 0  0.4730388619694271 0.19 0  0.4655705597323621 0.19 0  0.4581022574952563 0.19 0  0.4506339552581777 0.19 0  0.4431656530210671 0.19 0  0.4356973507839815 0.19 0  0.4282290485468779 0.19 0  0.4207607463097617 0.19 0  0.4132924440726327 0.19 0  0.4058241418354857 0.19 0  0.3983558395983636 0.19 0  0.3908875373612097 0.19 0  0.3834192351240934 0.19 0  0.3759509328869369 0.19 0  0.3684826306498175 0.19 0  0.361014328412667 0.19 0  0.3535460261755617 0.19 0  0.3460777239384295 0.19 0  0.3386094217012945 0.19 0  0.3311411194641595 0.19 0  0.3236728172270245 0.19 0  0.3162045149898895 0.19 0  0.3087362127527544 0.19 0  0.3012679105156187 0.19 0  0.2937996082784807 0.19 0  0.2863313060413428 0.19 0  0.2788630038042048 0.19 0  0.2713947015670686 0.19 0  0.2639263993299336 0.19 0  0.2564580970927985 0.19 0  0.2607803159922026 0.2000727136295815 0  0.5887803774232762 0.2001272386983733 0  0.5745072403740523 0.2002044435018727 0  0.5511891430099709 0.2001122610077113 0  0.2751288526855082 0.20000000000002 0  0.5365194309847112 0.1999999999999436 0  0.2894621222999649 0.1998691686390484 0  0.5215828265105155 0.1999999999999228 0  0.3127789816668748 0.1998657885438805 0  0.3274069683451451 0.2000000000000796 0  0.5066462220363641 0.199999999999908 0  0.3650630746574081 0.199866017807523 0  0.476773013087985 0.1999999999998713 0  0.3417402379596385 0.1998691686391011 0  0.3796850840047755 0.200000000000134 0  0.4618364086138087 0.1999999999998546 0  0.4917096175621762 0.1999999999998808 0  0.3946216884789568 0.2000000000001512 0  0.446899804139621 0.1999999999998389 0  0.4089549580935208 0.1998691686391595 0  0.4322718174608562 0.200127451265745 0  0.4201487168029707 0.1999966199048527 0  0.3528922713220932 0.2000185703532356 0  0.5633122436674589 0.1999814296467508 0  0.3006558810093873 0.1999966199048318 0  0.5815926498168407 0.1966545283159175 0  0.2677053789419034 0.1964246479135325 0  0.5290511287476175 0.1970915826863981 0  0.5439877332217911 0.197091582686394 0  0.2825131256993216 0.2035478995978015 0  0.3199386661080599 0.202908417313604 0  0.4842413153250809 0.1970915826863873 0  0.5141145242734466 0.1970915826863843 0  0.3722167817676917 0.2029084173136195 0  0.4693047108508938 0.1970915826863783 0  0.3348752705822316 0.202908417313609 0  0.3871533862418661 0.2029084173136212 0  0.4543681063767183 0.1970915826863795 0  0.4991779197992749 0.1970915826863902 0  0.4020059614928624 0.203547899597858 0  0.4394315019025246 0.1970915826863714 0  0.2550657455369551 0.2034088125358657 0  0.2548908499171161 0.1966940311614271 0  0.5946539510196798 0.2024302972968126 0  0.267698176732111 0.2039977513680092 0  0.4261685417851465 0.196409292431739 0  0.3590076176283495 0.196411355804271 0  0.5571672426447437 0.2036011176410121 0  0.3066757059912147 0.1964092924317024 0  0.594380730180568 0.1966558399668133 0  0.4842413153245942 0.2040749161535287 0  0.4693047108503577 0.2040749161535231 0  0.3871533862424271 0.1959250838464788 0  0.372246743208829 0.1959123236376545 0  0.5141145242731028 0.2040749161535395 0  0.4543681063761134 0.2040749161535186 0  0.4019979587101454 0.1959834479682427 0  0.4394608940728603 0.2040870543693135 0  0.5439623148931173 0.2040856076781014 0  0.5290511287473298 0.2040749161535501 0  0.4991779197988497 0.2040749161535382 0  0.3347912413592433 0.1959225448935183 0  0.3199680582793816 0.1959123018030061 0  0.2825051229162361 0.1959834479681729 0  0.3590471196690275 0.2036304442587945 0  0.5571594006495384 0.1963685282145804 0  0.3067669986803285 0.203627750582736 0  0.4262598344738712 0.2036568242185335 0  0.5814408164431408 0.2041285596160068 0  0.5688286748170428 0.1961819304477386 0  0.4145905603063645 0.2038180695522843 0  0.3473758401724931 0.2038180695522752 0  0.2950977245128307 0.2038180695522663 0  0.5688286748170693 0.203818069552238 0  0.2950977245127906 0.1961819304477774 0  0.3473758401723931 0.1961819304478349 0  0.4145905603061963 0.1961819304479011 0  0.2601812407614425 0.2056861609747042
[...]
<PointData  Vectors="f_46-0"> 
<DataArray  type="Float64"  Name="f_46-0"  NumberOfComponents="3" format="ascii">0.0000000000000000e+00 0.0000000000000000e+00 0.0000000000000000e+00  0.0000000000000000e+00 0.0000000000000000e+00 0.0000000000000000e+00  0.0000000000000000e+00 0.0000000000000000e+00 0.0000000000000000e+00  0.0000000000000000e+00 0.0000000000000000e+00 0.0000000000000000e+00  3.7075637142369863e-05 1.0686121492254469e-03 0.0000000000000000e+00  -4.4224944118843315e-05 1.0685586449292381e-03 0.0000000000000000e+00  0.0000000000000000e+00 0.0000000000000000e+00 0.0000000000000000e+00  0.0000000000000000e+00 0.0000000000000000e+00 0.0000000000000000e+00  0.0000000000000000e+00 0.0000000000000000e+00 0.0000000000000000e+00  0.0000000000000000e+00 0.0000000000000000e+00 0.0000000000000000e+00  -3.5473883345969778e-06 1.0685731016054894e-03 0.0000000000000000e+00  7.9591836734548407e-02 0.0000000000000000e+00 0.0000000000000000e+00  1.4693877550994527e-01 0.0000000000000000e+00 0.0000000000000000e+00  2.0204081632617477e-01 0.0000000000000000e+00 0.0000000000000000e+00  2.4489795918330076e-01 0.0000000000000000e+00 0.0000000000000000e+00  2.7551020408131754e-01 0.0000000000000000e+00 0.0000000000000000e+00  2.9387755102022350e-01 0.0000000000000000e+00 0.0000000000000000e+00  3.0000000000000004e-01 0.0000000000000000e+00 0.0000000000000000e+00  2.9387755102059482e-01 0.0000000000000000e+00 0.0000000000000000e+00  2.7551020408195548e-01 0.0000000000000000e+00 0.0000000000000000e+00  2.4489795918409071e-01 0.0000000000000000e+00 0.0000000000000000e+00  2.0204081632692522e-01 0.0000000000000000e+00 0.0000000000000000e+00  1.4693877551058568e-01 0.0000000000000000e+00 0.0000000000000000e+00  7.9591836734909244e-02 0.0000000000000000e+00 0.0000000000000000e+00  0.0000000000000000e+00 0.0000000000000000e+00 0.0000000000000000e+00  0.0000000000000000e+00 0.0000000000000000e+00 0.0000000000000000e+00  0.0000000000000000e+00 0.0000000000000000e+00 0.0000000000000000e+00  0.0000000000000000e+00 0.0000000000000000e+00 0.0000000000000000e+00  0.0000000000000000e+00 0.0000000000000000e+00 0.0000000000000000e+00  0.0000000000000000e+00 0.0000000000000000e+00 0.0000000000000000e+00  0.0000000000000000e+00 0.0000000000000000e+00 0.0000000000000000e+00  0.0000000000000000e+00 0.0000000000000000e+00 0.0000000000000000e+00  0.0000000000000000e+00 0.0000000000000000e+00 0.0000000000000000e+00  0.0000000000000000e+00 0.0000000000000000e+00 0.0000000000000000e+00  0.0000000000000000e+00 0.0000000000000000e+00 0.0000000000000000e+00  0.0000000000000000e+00 0.0000000000000000e+00 0.0000000000000000e+00  0.0000000000000000e+00 0.0000000000000000e+00 0.0000000000000000e+00  0.0000000000000000e+00 0.0000000000000000e+00 0.0000000000000000e+00  0.0000000000000000e+00 0.0000000000000000e+00 0.0000000000000000e+00  0.0000000000000000e+00 0.0000000000000000e+00 0.0000000000000000e+00  0.0000000000000000e+00 0.0000000000000000e+00 0.0000000000000000e+00  0.0000000000000000e+00 0.0000000000000000e+00 0.0000000000000000e+00  0.0000000000000000e+00 0.0000000000000000e+00 0.0000000000000000e+00  0.0000000000000000e+00 0.0000000000000000e+00 0.0000000000000000e+00  0.0000000000000000e+00 0.0000000000000000e+00 0.0000000000000000e+00  0.0000000000000000e+00 0.0000000000000000e+00 0.0000000000000000e+00  0.0000000000000000e+00 0.0000000000000000e+00 0.0000000000000000e+00  0.0000000000000000e+00 0.0000000000000000e+00 0.0000000000000000e+00  0.0000000000000000e+00 0.0000000000000000e+00 0.0000000000000000e+00  0.0000000000000000e+00 0.0000000000000000e+00 0.0000000000000000e+00  0.0000000000000000e+00 0.0000000000000000e+00 0.0000000000000000e+00  0.0000000000000000e+00 0.0000000000000000e+00 0.0000000000000000e+00  0.0000000000000000e+00 0.0000000000000000e+00 0.0000000000000000e+00  0.0000000000000000e+00 0.0000000000000000e+00 0.0000000000000000e+00  0.0000000000000000e+00 0.0000000000000000e+00 0.0000000000000000e+00  0.0000000000000000e+00 0.0000000000000000e+00 0.0000000000000000e+00  0.0000000000000000e+00 0.0000000000000000e+00 0.0000000000000000e+00  0.0000000000000000e+00 0.0000000000000000e+00 0.0000000000000000e+00  0.0000000000000000e+00 0.0000000000000000e+00 0.0000000000000000e+00  0.0000000000000000e+00 0.0000000000000000e+00 0.0000000000000000e+00  0.0000000000000000e+00 0.0000000000000000e+00 0.0000000000000000e+00  0.0000000000000000e+00 0.0000000000000000e+00 0.0000000000000000e+00  2.4718519235109057e-01 1.2709427843079584e-03 0.0000000000000000e+00  3.0789039841834559e-01 4.2094189713548424e-03 0.0000000000000000e+00  2.4085402099951711e-01 -5.8142612154275033e-03 0.0000000000000000e+00  0.0000000000000000e+00 0.0000000000000000e+00 0.0000000000000000e+00  0.0000000000000000e+00 0.0000000000000000e+00 0.0000000000000000e+00  0.0000000000000000e+00 0.0000000000000000e+00 0.0000000000000000e+00  0.0000000000000000e+00 0.0000000000000000e+00 0.0000000000000000e+00  0.0000000000000000e+00 0.0000000000000000e+00 0.0000000000000000e+00  0.0000000000000000e+00 0.0000000000000000e+00 0.0000000000000000e+00  0.0000000000000000e+00 0.0000000000000000e+00 0.0000000000000000e+00  0.0000000000000000e+00 0.0000000000000000e+00 0.0000000000000000e+00  0.0000000000000000e+00 0.0000000000000000e+00 0.0000000000000000e+00  0.0000000000000000e+00 0.0000000000000000e+00 0.0000000000000000e+00  0.0000000000000000e+00 0.0000000000000000e+00 0.0000000000000000e+00  0.0000000000000000e+00 0.0000000000000000e+00 0.0000000000000000e+00  0.0000000000000000e+00 0.0000000000000000e+00 0.0000000000000000e+00  0.0000000000000000e+00 0.0000000000000000e+00 0.0000000000000000e+00  0.0000000000000000e+00 0.0000000000000000e+00 0.0000000000000000e+00  0.0000000000000000e+00 0.0000000000000000e+00 0.0000000000000000e+00  0.0000000000000000e+00 0.0000000000000000e+00 0.0000000000000000e+00  0.0000000000000000e+00 0.0000000000000000e+00 0.0000000000000000e+00  0.0000000000000000e+00 0.0000000000000000e+00 0.0000000000000000e+00  0.0000000000000000e+00 0.0000000000000000e+00 0.0000000000000000e+00  0.0000000000000000e+00 0.0000000000000000e+00 0.0000000000000000e+00  0.0000000000000000e+00 0.0000000000000000e+00 0.0000000000000000e+00  0.0000000000000000e+00 0.0000000000000000e+00 0.0000000000000000e+00  0.0000000000000000e+00 0.0000000000000000e+00 0.0000000000000000e+00  0.0000000000000000e+00 0.0000000000000000e+00 0.0000000000000000e+00  0.0000000000000000e+00 0.0000000000000000e+00 0.0000000000000000e+00  0.0000000000000000e+00 0.0000000000000000e+00 0.0000000000000000e+00  0.0000000000000000e+00 0.0000000000000000e+00 0.0000000000000000e+00  0.0000000000000000e+00 0.0000000000000000e+00 0.0000000000000000e+00  0.0000000000000000e+00 0.0000000000000000e+00 0.0000000000000000e+00  0.0000000000000000e+00 0.0000000000000000e+00 0.0000000000000000e+00  0.0000000000000000e+00 0.0000000000000000e+00 0.0000000000000000e+00  0.0000000000000000e+00 0.0000000000000000e+00 0.0000000000000000e+00  0.0000000000000000e+00 0.0000000000000000e+00 0.0000000000000000e+00  0.0000000000000000e+00 0.0000000000000000e+00 0.0000000000000000e+00  0.0000000000000000e+00 0.0000000000000000e+00 0.0000000000000000e+00  0.0000000000000000e+00 0.0000000000000000e+00 0.0000000000000000e+00  0.0000000000000000e+00 0.0000000000000000e+00 0.0000000000000000e+00  0.0000000000000000e+00 0.0000000000000000e+00 0.0000000000000000e+00  0.0000000000000000e+00 0.0000000000000000e+00 0.0000000000000000e+00  -2.5921580990910431e-13 0.0000000000000000e+00 0.0000000000000000e+00  0.0000000000000000e+00 0.0000000000000000e+00 0.0000000000000000e+00  0.0000000000000000e+00 0.0000000000000000e+00 0.0000000000000000e+00  0.0000000000000000e+00 0.0000000000000000e+00 0.0000000000000000e+00  0.0000000000000000e+00 0.0000000000000000e+00 0.0000000000000000e+00  0.0000000000000000e+00 0.0000000000000000e+00 0.0000000000000000e+00  0.0000000000000000e+00 0.0000000000000000e+00 0.0000000000000000e+00  0.0000000000000000e+00 0.0000000000000000e+00 0.0000000000000000e+00  0.0000000000000000e+00 0.0000000000000000e+00 0.0000000000000000e+00  0.0000000000000000e+00 0.0000000000000000e+00 0.0000000000000000e+00  0.0000000000000000e+00 0.0000000000000000e+00 0.0000000000000000e+00  0.0000000000000000e+00 0.0000000000000000e+00 0.0000000000000000e+00  0.0000000000000000e+00 0.0000000000000000e+00 0.0000000000000000e+00  0.0000000000000000e+00 0.0000000000000000e+00 0.0000000000000000e+00  0.0000000000000000e+00 0.0000000000000000e+00 0.0000000000000000e+00  0.0000000000000000e+00 0.0000000000000000e+00 0.0000000000000000e+00  0.0000000000000000e+00 0.0000000000000000e+00 0.0000000000000000e+00  0.0000000000000000e+00 0.0000000000000000e+00 0.0000000000000000e+00  0.0000000000000000e+00 0.0000000000000000e+00 0.0000000000000000e+00  0.0000000000000000e+00 0.0000000000000000e+00 0.0000000000000000e+00  0.0000000000000000e+00 0.0000000000000000e+00 0.0000000000000000e+00  0.0000000000000000e+00 0.0000000000000000e+00 0.0000000000000000e+00  0.0000000000000000e+00 0.0000000000000000e+00 0.0000000000000000e+00  0.0000000000000000e+00 0.0000000000000000e+00 0.0000000000000000e+00  0.0000000000000000e+00 0.0000000000000000e+00 0.0000000000000000e+00  0.0000000000000000e+00 0.0000000000000000e+00 0.0000000000000000e+00  0.0000000000000000e+00 0.0000000000000000e+00 0.0000000000000000e+00  0.0000000000000000e+00 0.0000000000000000e+00 0.0000000000000000e+00  0.0000000000000000e+00 0.0000000000000000e+00 0.0000000000000000e+00  0.0000000000000000e+00 0.0000000000000000e+00 0.0000000000000000e+00  0.0000000000000000e+00 0.0000000000000000e+00 0.0000000000000000e+00  0.0000000000000000e+00 0.0000000000000000e+00 0.0000000000000000e+00  0.0000000000000000e+00 0.0000000000000000e+00 0.0000000000000000e+00  0.0000000000000000e+00 0.0000000000000000e+00 0.0000000000000000e+00  0.0000000000000000e+00 0.0000000000000000e+00 0.0000000000000000e+00  0.0000000000000000e+00 0.0000000000000000e+00 0.0000000000000000e+00  0.0000000000000000e+00 0.0000000000000000e+00 0.0000000000000000e+00  0.0000000000000000e+00 0.0000000000000000e+00 0.0000000000000000e+00  -2.3264405604302386e-06 1.9063783512006562e-06 0.0000000000000000e+00  -4.9477981193454716e-06 4.6946400907334631e-06 0.0000000000000000e+00  -7.2315821571782046e-06 9.2455214956667424e-06 0.0000000000000000e+00  -9.6893725148073325e-06 1.5649200512684665e-05 0.0000000000000000e+00  -1.1715472908593638e-05 2.3586589881237376e-05 0.0000000000000000e+00  -1.4011280042847620e-05 3.3196283083050570e-05 0.0000000000000000e+00  -1.5833001685385073e-05 4.4036697072759578e-05 0.0000000000000000e+00  -1.7588034560363613e-05 5.6489600470617837e-05 0.0000000000000000e+00  -1.9603791548462906e-05 7.0155310882699556e-05 0.0000000000000000e+00  -2.1115608130099761e-05 8.5081035658871303e-05 0.0000000000000000e+00  -2.2966065005957553e-05 1.0123634185170939e-04 0.0000000000000000e+00  -2.4332450464322890e-05 1.1852042634399521e-04 0.0000000000000000e+00  -2.5950485514512946e-05 1.3688932271639466e-04 0.0000000000000000e+00  -2.7216856474596443e-05 1.5613369930414723e-04 0.0000000000000000e+00  -2.8433573651050561e-05 1.7645837432450615e-04 0.0000000000000000e+00  -2.9813131665832433e-05 1.9759104367801758e-04 0.0000000000000000e+00  -3.0846064100389746e-05 2.1955872999486961e-04 0.0000000000000000e+00  -3.2083738685227818e-05 2.4233152671672198e-04 0.0000000000000000e+00  -3.2993903430843855e-05 2.6582781013042103e-04 0.0000000000000000e+00  -3.4065807615018427e-05 2.8999416752096787e-04 0.0000000000000000e+00  -3.4906986117709334e-05 3.1481238188884816e-04 0.0000000000000000e+00  -3.5832229049355849e-05 3.4024909390109430e-04 0.0000000000000000e+00  -3.6563565879323362e-05 3.6614086644956573e-04 0.0000000000000000e+00  -3.7255144974610104e-05 3.9261823761720300e-04 0.0000000000000000e+00  -3.8008523698355121e-05 4.1948638241166874e-04 0.0000000000000000e+00  -3.8626288593139416e-05 4.4681835559856603e-04 0.0000000000000000e+00  -3.9236900807553626e-05 4.7454198814215315e-04 0.0000000000000000e+00  -3.9767980082802026e-05 5.0260078653495887e-04 0.0000000000000000e+00  -4.0287007392632881e-05 5.3099600360978657e-04 0.0000000000000000e+00  -4.0737437048254723e-05 5.5966139267290161e-04 0.0000000000000000e+00  -4.1173592402962358e-05 5.8860101341129216e-04 0.0000000000000000e+00  -4.1550328567211586e-05 6.1775371854831576e-04 0.0000000000000000e+00  -4.1911284878844682e-05 6.4712385552538089e-04 0.0000000000000000e+00  -4.2222009013191062e-05 6.7665684515568695e-04 0.0000000000000000e+00  -4.2515853024057425e-05 7.0635737557182344e-04 0.0000000000000000e+00  -4.2767067289451333e-05 7.3617686915864258e-04 0.0000000000000000e+00  -4.3001646500589578e-05 7.6612073530234388e-04 0.0000000000000000e+00  -4.3201148537550243e-05 7.9614704371158977e-04 0.0000000000000000e+00  -4.3385004422201394e-05 8.2626148764069227e-04 0.0000000000000000e+00  -4.3540272678660765e-05 8.5642817019564556e-04 0.0000000000000000e+00  -4.3682786633322153e-05 8.8665650623218734e-04 0.0000000000000000e+00  -4.3800370327473989e-05 9.1691265258311871e-04 0.0000000000000000e+00  -4.3901992715487273e-05 9.4720543158814544e-04 0.0000000000000000e+00  -4.3999041641722897e-05 9.7751574251674208e-04 0.0000000000000000e+00  -4.4078115230034824e-05 1.0078422819186582e-03 0.0000000000000000e+00  -4.4151174454117484e-05 1.0381857236240919e-03 0.0000000000000000e+00  -2.3872042756291930e-05 1.0685618444060880e-03 0.0000000000000000e+00  1.6767090290338547e-05 1.0685888855135634e-03 0.0000000000000000e+00  3.7120189730518592e-05 1.0382590818098542e-03 0.0000000000000000e+00  3.7157293432201243e-05 1.0079093228944562e-03 0.0000000000000000e+00  3.7194030160863902e-05 9.7756962113996126e-04 0.0000000000000000e+00  3.7221861401314402e-05 9.4724912913489575e-04 0.0000000000000000e+00  3.7250868109328154e-05 9.1694737963117056e-04 0.0000000000000000e+00  3.7273438531187113e-05 8.8668136189492392e-04 0.0000000000000000e+00  3.7274957329625881e-05 8.5645026825659589e-04 0.0000000000000000e+00  3.7281618514295666e-05 8.2627180571263458e-04 0.0000000000000000e+00  3.7250116221334298e-05 7.9615491489885425e-04 0.0000000000000000e+00  3.7229913337051733e-05 7.6611998190494884e-04 0.0000000000000000e+00  3.7155267817030440e-05 7.3617517127547052e-04 0.0000000000000000e+00  3.7097728872478798e-05 7.0634856827858042e-04 0.0000000000000000e+00  3.6967002283535747e-05 6.7664837852000447e-04 0.0000000000000000e+00  3.6862375921424740e-05 6.4710992084820757e-04 0.0000000000000000e+00  3.6663643613070870e-05 6.1774117292212464e-04 0.0000000000000000e+00  3.6502785200691573e-05 5.8858414042092062e-04 0.0000000000000000e+00  3.6224638729373480e-05 5.5964682158444990e-04 0.0000000000000000e+00  3.5998280292875237e-05 5.3097786338987963e-04 0.0000000000000000e+00  3.5628862568871362e-05 5.0258502566343421e-04 0.0000000000000000e+00  3.5328054194924303e-05 4.7452267582833054e-04 0.0000000000000000e+00  3.4852695762821710e-05 4.4680208861371494e-04 0.0000000000000000e+00  3.4463930603295350e-05 4.1948454805900234e-04 0.0000000000000000e+00  3.3881069654038074e-05 3.9259040016515655e-04 0.0000000000000000e+00  3.3369776249159676e-05 3.6612110059031913e-04 0.0000000000000000e+00  3.2812995660745884e-05 3.4023511130347722e-04 0.0000000000000000e+00  3.2076353518502723e-05 3.1478193565747536e-04 0.0000000000000000e+00  3.1375896531949499e-05 2.8998943115118072e-04 0.0000000000000000e+00  3.0535887253626280e-05 2.6578845347781350e-04 0.0000000000000000e+00  2.9705296966009097e-05 2.4230644103519870e-04 0.0000000000000000e+00  2.8735077906851846e-05 2.1952524870441317e-04 0.0000000000000000e+00  2.7773445178595617e-05 1.9752381150242885e-04 0.0000000000000000e+00  2.6569666438617320e-05 1.7644097338218460e-04 0.0000000000000000e+00  2.5511385114423855e-05 1.5610104534369922e-04 0.0000000000000000e+00  2.4393550887992580e-05 1.3686819839279249e-04 0.0000000000000000e+00  2.2973057902603477e-05 1.1842694127994743e-04 0.0000000000000000e+00  2.1624907945120765e-05 1.0118187195688044e-04 0.0000000000000000e+00  2.0076269769159382e-05 8.5012666608603920e-05 0.0000000000000000e+00  1.8564172752972301e-05 7.0034019564273433e-05 0.0000000000000000e+00  1.6707562628039292e-05 5.6440512742479736e-05 0.0000000000000000e+00  1.5079868452910303e-05 4.3962135251867571e-05 0.0000000000000000e+00  1.3383930581984198e-05 3.3121488396487786e-05 0.0000000000000000e+00  1.1246290120887780e-05 2.3461812327736220e-05 0.0000000000000000e+00  9.2728218589627570e-06 1.5499449545250870e-05 0.0000000000000000e+00  6.9131271218135450e-06 9.1821722198012738e-06 0.0000000000000000e+00  4.7825380610519852e-06 4.6035859073437438e-06 0.0000000000000000e+00  2.2544842265489819e-06 1.7944442790062966e-06 0.0000000000000000e+00  -7.9561774334837413e-08 1.9661938447655031e-06 0.0000000000000000e+00  -3.9927453286602368e-06 1.0229688145349100e-03 0.0000000000000000e+00  -4.2012337902150291e-06 9.6498894616217341e-04 0.0000000000000000e+00  -3.6139483728817710e-06 8.7043410028566520e-04 0.0000000000000000e+00  -1.5895630515077084e-07 1.1078450364731830e-05 0.0000000000000000e+00  -3.0078504926032073e-06 8.1115059601699960e-04 0.0000000000000000e+00  -1.1721247807662644e-07 2.6335854998371410e-05 0.0000000000000000e+00  -2.8403991151218497e-06 7.5106461244318814e-04 0.0000000000000000e+00  -2.1962473155262588e-07 6.2820092468151000e-05 0.0000000000000000e+00  -5.9693975240973763e-07 9.2231683383777008e-05 0.0000000000000000e+00  -2.6635036450238808e-06 6.9138830682886248e-04 0.0000000000000000e+00  -5.8957699574079280e-07 1.8721100322752763e-04 0.0000000000000000e+00  -2.2928001867838688e-06 5.7393126499392108e-04 0.0000000000000000e+00  -4.1724700005127422e-07 1.2535233962342142e-04 0.0000000000000000e+00  -1.1273365796769350e-06 2.3034366466449872e-04 0.0000000000000000e+00  -2.1046046534180035e-06 5.1655120656076401e-04 0.0000000000000000e+00  -2.4800158843758471e-06 6.3228149361301597e-04 0.0000000000000000e+00  -1.2939713370212592e-06 2.7738258135027587e-04 0.0000000000000000e+00  -1.9156154161985364e-06 4.6038221879855752e-04 0.0000000000000000e+00  -1.0146486026668715e-06 3.2500108270269349e-04 0.0000000000000000e+00  -2.1939385911248639e-06 4.0680404066531826e-04 0.0000000000000000e+00  -1.5796706767041891e-06 3.6374034023808780e-04 0.0000000000000000e+00  -8.9257962278556834e-07 1.5393369699253520e-04 0.0000000000000000e+00  -3.1976445181774005e-06 9.1956417921673660e-04 0.0000000000000000e+00  -3.5142022104050216e-07 4.2371350975688303e-05 0.0000000000000000e+00  1.0158873890958111e-05 9.9377817280423626e-04 0.0000000000000000e+00  2.0444643303459982e-06 5.7499185948666292e-06 0.0000000000000000e+00  8.7555824210503444e-06 7.8107427256163904e-04 0.0000000000000000e+00  8.6519614347389481e-06 8.4131317300253753e-04 0.0000000000000000e+00  -3.8919560400328284e-06 1.8410848227937601e-05 0.0000000000000000e+00  -6.3126980104465735e-06 7.6747736996942643e-05 0.0000000000000000e+00  8.9446086758481791e-06 6.0301722448670859e-04 0.0000000000000000e+00  8.8442234764010201e-06 7.2117697860695927e-04 0.0000000000000000e+00  -9.5718966351198725e-06 2.0800477474225602e-04 0.0000000000000000e+00  8.9400625862373003e-06 5.4512863456884515e-04 0.0000000000000000e+00  -7.3181235983496168e-06 1.0909651096028687e-04 0.0000000000000000e+00  -1.0311851654460401e-05 2.5358130831488042e-04 0.0000000000000000e+00  8.8890189797591934e-06 4.8832730921155327e-04 0.0000000000000000e+00  8.9099856901955170e-06 6.6176667329874666e-04 0.0000000000000000e+00  -1.3100292495635409e-05 3.0170541273978743e-04 0.0000000000000000e+00  8.7908498178859384e-06 4.3286785829902509e-04 0.0000000000000000e+00  -4.2542157726098272e-07 4.3335827780389812e-07 0.0000000000000000e+00  3.3525833559583563e-07 3.7145907458543666e-07 0.0000000000000000e+00  -1.3389163372761047e-05 1.0468335263161799e-03 0.0000000000000000e+00  -2.5052890082343777e-06 5.7927501493445020e-06 0.0000000000000000e+00  1.1070561906898639e-05 3.8498716059156808e-04 0.000000000000000