<?xml version="1.0"?>
<VTKFile type="UnstructuredGrid"  version="0.1"  >
<UnstructuredGrid>
<Piece  NumberOfPoints="1419" NumberOfCells="2698">
<Points>
<DataArray  type="Float64"  NumberOfComponents="3"  format="ascii">0 0 0  0 0.41 0  2.5 0 0  2.5 0.41 0  0.6 0.19 0  0.6 0.21 0  0.25 0.2 0  0.15 0.2 0  0.2489897948556636 0.21 0  0.2489897948556636 0.19 0  0.6 0.2 0  0 0.3807142857143437 0  0 0.3514285714286952 0  0 0.3221428571430699 0  0 0.29285714285744 0  0 0.2635714285718054 0  0 0.2342857142861561 0  0 0.2050000000005308 0  0 0.175714285714732 0  0 0.1464285714289574 0  0 0.1171428571431897 0  0 0.08785714285737878 0  0 0.05857142857161107 0  0 0.02928571428580012 0  0.03015443760436003 0 0  0.06140001986583606 0 0  0.09377624077125973 0 0  0.1273239957535082 0 0  0.1620856860351972 0 0  0.1981052433264291 0 0  0.235428184091502 0 0  0.2741016576309132 0 0  0.3141745521465447 0 0  0.3556974926295285 0 0  0.3987229542472677 0 0  0.4433053055141081 0 0  0.4895008759286886 0 0  0.5373680609405097 0 0  0.5869673343216626 0 0  0.6383613676634521 0 0  0.6916151138468254 0 0  0.7467958595648856 0 0  0.8039733463919316 0 0  0.8632198139502143 0 0  0.9246101326867038 0 0  0.9882218810934433 0 0  1.054135445558498 0 0  1.122434100542598 0 0  1.193204177141305 0 0  1.266535089879536 0 0  1.342519516046404 0 0  1.421253448503939 0 0  1.502836389106271 0 0  1.587371439758838 0 0  1.674965418777374 0 0  1.765729001825544 0 0  1.859776908880082 0 0  1.957227977487062 0 0  2.058205329869943 0 0  2.162836591189951 0 0  2.271253957290865 0 0  2.383594446803425 0 0  2.5 0.1024999999997612 0  2.5 0.2049999999994743 0  2.5 0.3074999999997183 0  2.383594446803656 0.41 0  2.271253957291315 0.41 0  2.162836591190598 0.41 0  2.058205329870775 0.41 0  1.957227977488067 0.41 0  1.859776908881246 0.41 0  1.765729001826854 0.41 0  1.674965418778818 0.41 0  1.58737143976041 0.41 0  1.502836389107956 0.41 0  1.421253448505726 0.41 0  1.342519516048286 0.41 0  1.266535089881505 0.41 0  1.193204177143353 0.41 0  1.122434100544716 0.41 0  1.05413544556068 0.41 0  0.9882218810956305 0.41 0  0.9246101326886647 0.41 0  0.8632198139519631 0.41 0  0.8039733463934788 0.41 0  0.7467958595662458 0.41 0  0.6916151138480078 0.41 0  0.6383613676644679 0.41 0  0.5869673343225223 0.41 0  0.5373680609412221 0.41 0  0.4895008759292634 0.41 0  0.4433053055145528 0.41 0  0.3987229542475914 0.41 0  0.3556974926297398 0.41 0  0.3141745521466497 0.41 0  0.2741016576310038 0.41 0  0.2354281840915826 0.41 0  0.1981052433265003 0.41 0  0.1620856860352591 0.41 0  0.1273239957535623 0.41 0  0.09377624077128965 0.41 0  0.06140001986584975 0.41 0  0.03015443760436654 0.41 0  0.2497468076502589 0.2050254481002335 0  0.2497468076502614 0.1949745518997913 0  0.2469965252529372 0.1829317073451959 0  0.2439893735792749 0.1762316384219906 0  0.2400332147834255 0.1700443375285386 0  0.2352133972704371 0.1645032867342007 0  0.2296339016332438 0.1597280261969788 0  0.2234150974217223 0.1558215752574715 0  0.2166911463437691 0.1528682099456123 0  0.2096071079204251 0.1509316448471593 0  0.2023158100364996 0.1500536585536553 0  0.194974551899914 0.1502531923497262 0  0.1877417105387872 0.1515259415822739 0  0.1807733240461124 0.153844448527136 0  0.1742197252835808 0.15715869474974 0  0.1682222986673531 0.1613971801805478 0  0.162910430003803 0.1664684656256651 0  0.1583987151779087 0.1722631454351573 0  0.1547844879126891 0.178656207771761 0  0.1521457199348551 0.1855097315605723 0  0.1505393388476355 0.1926758619366523 0  0.1505393388476328 0.2073241380633295 0  0.1521457199348437 0.2144902684393899 0  0.1547844879126531 0.221343792228163 0  0.1583987151778488 0.2277368545647528 0  0.1629104300036858 0.2335315343742052 0  0.1682222986671726 0.2386028198193036 0  0.1742197252833576 0.2428413052501257 0  0.1807733240458683 0.2461555514727623 0  0.1877417105384929 0.2484740584176516 0  0.1949745518995776 0.2497468076502398 0  0.202315810036185 0.2499463414463592 0  0.2096071079201568 0.2490683551528932 0  0.2166911463435495 0.2471317900544655 0  0.2234150974215506 0.2441784247426195 0  0.2296339016331197 0.2402719738031125 0  0.2352133972703547 0.2354967132658811 0  0.2400332147833751 0.2299556624715287 0  0.2439893735792577 0.2237683615780412 0  0.246996525252926 0.2170682926548348 0  0.25645809709277 0.21 0  0.2639263993298655 0.21 0  0.271394701566961 0.21 0  0.2788630038040554 0.21 0  0.2863313060411479 0.21 0  0.2937996082782405 0.21 0  0.301267910515333 0.21 0  0.3087362127524279 0.21 0  0.3162045149895234 0.21 0  0.3236728172265972 0.21 0  0.3311411194636928 0.21 0  0.3386094217007701 0.21 0  0.3460777239378666 0.21 0  0.3535460261749672 0.21 0  0.3610143284120516 0.21 0  0.3684826306491596 0.21 0  0.3759509328862226 0.21 0  0.383419235123329 0.21 0  0.3908875373604028 0.21 0  0.3983558395975142 0.21 0  0.4058241418345938 0.21 0  0.4132924440716992 0.21 0  0.4207607463087888 0.21 0  0.4282290485459029 0.21 0  0.4356973507830418 0.21 0  0.4431656530201649 0.21 0  0.4506339552573136 0.21 0  0.4581022574944306 0.21 0  0.4655705597315852 0.21 0  0.4730388619686996 0.21 0  0.480507164205851 0.21 0  0.4879754664429498 0.21 0  0.4954437686800938 0.21 0  0.502912070917267 0.21 0  0.5103803731544119 0.21 0  0.5178486753915261 0.21 0  0.5253169776286404 0.21 0  0.5327852798657868 0.21 0  0.5402535821029386 0.21 0  0.54772188434007 0.21 0  0.5551901865771842 0.21 0  0.5626584888143201 0.21 0  0.5701267910514778 0.21 0  0.5775950932886138 0.21 0  0.5850633955257281 0.21 0  0.5925316977628483 0.21 0  0.6 0.2050000000000054 0  0.6 0.1950000000000217 0  0.5925316977628897 0.19 0  0.5850633955257988 0.19 0  0.5775950932887378 0.19 0  0.5701267910515998 0.19 0  0.5626584888145268 0.19 0  0.5551901865773963 0.19 0  0.547721884340339 0.19 0  0.5402535821032429 0.19 0  0.5327852798661811 0.19 0  0.5253169776290537 0.19 0  0.5178486753919799 0.19 0  0.5103803731549078 0.19 0  0.502912070917822 0.19 0  0.4954437686807294 0.19 0  0.4879754664436223 0.19 0  0.4805071642065402 0.19 0  0.4730388619694271 0.19 0  0.4655705597323621 0.19 0  0.4581022574952563 0.19 0  0.4506339552581777 0.19 0  0.4431656530210671 0.19 0  0.4356973507839815 0.19 0  0.4282290485468779 0.19 0  0.4207607463097617 0.19 0  0.4132924440726327 0.19 0  0.4058241418354857 0.19 0  0.3983558395983636 0.19 0  0.3908875373612097 0.19 0  0.3834192351240934 0.19 0  0.3759509328869369 0.19 0  0.3684826306498175 0.19 0  0.361014328412667 0.19 0  0.3535460261755617 0.19 0  0.3460777239384295 0.19 0  0.3386094217012945 0.19 0  0.3311411194641595 0.19 0  0.3236728172270245 0.19 0  0.3162045149898895 0.19 0  0.3087362127527544 0.19 0  0.3012679105156187 0.19 0  0.2937996082784807 0.19 0  0.2863313060413428 0.19 0  0.2788630038042048 0.19 0  0.2713947015670686 0.19 0  0.2639263993299336 0.19 0  0.2564580970927985 0.19 0  0.2607803159922026 0.2000727136295815 0  0.5887803774232762 0.2001272386983733 0  0.5745072403740523 0.2002044435018727 0  0.5511891430099709 0.2001122610077113 0  0.2751288526855082 0.20000000000002 0  0.5365194309847112 0.1999999999999436 0  0.2894621222999649 0.1998691686390484 0  0.5215828265105155 0.1999999999999228 0  0.3127789816668748 0.1998657885438805 0  0.3274069683451451 0.2000000000000796 0  0.5066462220363641 0.199999999999908 0  0.3650630746574081 0.199866017807523 0  0.476773013087985 0.1999999999998713 0  0.3417402379596385 0.1998691686391011 0  0.3796850840047755 0.200000000000134 0  0.4618364086138087 0.1999999999998546 0  0.4917096175621762 0.1999999999998808 0  0.3946216884789568 0.2000000000001512 0  0.446899804139621 0.1999999999998389 0  0.4089549580935208 0.1998691686391595 0  0.4322718174608562 0.200127451265745 0  0.4201487168029707 0.1999966199048527 0  0.3528922713220932 0.2000185703532356 0  0.5633122436674589 0.1999814296467508 0  0.3006558810093873 0.1999966199048318 0  0.5815926498168407 0.1966545283159175 0  0.2677053789419034 0.1964246479135325 0  0.5290511287476175 0.1970915826863981 0  0.5439877332217911 0.197091582686394 0  0.2825131256993216 0.2035478995978015 0  0.3199386661080599 0.202908417313604 0  0.4842413153250809 0.1970915826863873 0  0.5141145242734466 0.1970915826863843 0  0.3722167817676917 0.2029084173136195 0  0.4693047108508938 0.1970915826863783 0  0.3348752705822316 0.202908417313609 0  0.3871533862418661 0.2029084173136212 0  0.4543681063767183 0.1970915826863795 0  0.4991779197992749 0.1970915826863902 0  0.4020059614928624 0.203547899597858 0  0.4394315019025246 0.1970915826863714 0  0.2550657455369551 0.2034088125358657 0  0.2548908499171161 0.1966940311614271 0  0.5946539510196798 0.2024302972968126 0  0.267698176732111 0.2039977513680092 0  0.4261685417851465 0.196409292431739 0  0.3590076176283495 0.196411355804271 0  0.5571672426447437 0.2036011176410121 0  0.3066757059912147 0.1964092924317024 0  0.594380730180568 0.1966558399668133 0  0.4842413153245942 0.2040749161535287 0  0.4693047108503577 0.2040749161535231 0  0.3871533862424271 0.1959250838464788 0  0.372246743208829 0.1959123236376545 0  0.5141145242731028 0.2040749161535395 0  0.4543681063761134 0.2040749161535186 0  0.4019979587101454 0.1959834479682427 0  0.4394608940728603 0.2040870543693135 0  0.5439623148931173 0.2040856076781014 0  0.5290511287473298 0.2040749161535501 0  0.4991779197988497 0.2040749161535382 0  0.3347912413592433 0.1959225448935183 0  0.3199680582793816 0.1959123018030061 0  0.2825051229162361 0.1959834479681729 0  0.3590471196690275 0.2036304442587945 0  0.5571594006495384 0.1963685282145804 0  0.3067669986803285 0.203627750582736 0  0.4262598344738712 0.2036568242185335 0  0.5814408164431408 0.2041285596160068 0  0.5688286748170428 0.1961819304477386 0  0.4145905603063645 0.2038180695522843 0  0.3473758401724931 0.2038180695522752 0  0.2950977245128307 0.2038180695522663 0  0.5688286748170693 0.203818069552238 0  0.2950977245127906 0.1961819304477774 0  0.3473758401723931 0.1961819304478349 0  0.4145905603061963 0.1961819304479011 0  0.2601812407614425 0.2056861609747042
[...]
<PointData  Vectors="f_46-0"> 
<DataArray  type="Float64"  Name="f_46-0"  NumberOfComponents="3" format="ascii">0.0000000000000000e+00 0.0000000000000000e+00 0.0000000000000000e+00  0.0000000000000000e+00 0.0000000000000000e+00 0.0000000000000000e+00  0.0000000000000000e+00 0.0000000000000000e+00 0.0000000000000000e+00  0.0000000000000000e+00 0.0000000000000000e+00 0.0000000000000000e+00  2.8589642960298199e-05 8.4848805636322973e-04 0.0000000000000000e+00  -3.4083625416948657e-05 8.4840176759840773e-04 0.0000000000000000e+00  0.0000000000000000e+00 0.0000000000000000e+00 0.0000000000000000e+00  0.0000000000000000e+00 0.0000000000000000e+00 0.0000000000000000e+00  0.0000000000000000e+00 0.0000000000000000e+00 0.0000000000000000e+00  0.0000000000000000e+00 0.0000000000000000e+00 0.0000000000000000e+00  -2.7221493401627637e-06 8.4843351159728483e-04 0.0000000000000000e+00  7.9591836734548407e-02 0.0000000000000000e+00 0.0000000000000000e+00  1.4693877550994527e-01 0.0000000000000000e+00 0.0000000000000000e+00  2.0204081632617479e-01 0.0000000000000000e+00 0.0000000000000000e+00  2.4489795918330073e-01 0.0000000000000000e+00 0.0000000000000000e+00  2.7551020408131754e-01 0.0000000000000000e+00 0.0000000000000000e+00  2.9387755102022350e-01 0.0000000000000000e+00 0.0000000000000000e+00  3.0000000000000004e-01 0.0000000000000000e+00 0.0000000000000000e+00  2.9387755102059482e-01 0.0000000000000000e+00 0.0000000000000000e+00  2.7551020408195548e-01 0.0000000000000000e+00 0.0000000000000000e+00  2.4489795918409071e-01 0.0000000000000000e+00 0.0000000000000000e+00  2.0204081632692525e-01 0.0000000000000000e+00 0.0000000000000000e+00  1.4693877551058568e-01 0.0000000000000000e+00 0.0000000000000000e+00  7.9591836734909230e-02 0.0000000000000000e+00 0.0000000000000000e+00  0.0000000000000000e+00 0.0000000000000000e+00 0.0000000000000000e+00  0.0000000000000000e+00 0.0000000000000000e+00 0.0000000000000000e+00  0.0000000000000000e+00 0.0000000000000000e+00 0.0000000000000000e+00  0.0000000000000000e+00 0.0000000000000000e+00 0.0000000000000000e+00  0.0000000000000000e+00 0.0000000000000000e+00 0.0000000000000000e+00  0.0000000000000000e+00 0.0000000000000000e+00 0.0000000000000000e+00  0.0000000000000000e+00 0.0000000000000000e+00 0.0000000000000000e+00  0.0000000000000000e+00 0.0000000000000000e+00 0.0000000000000000e+00  0.0000000000000000e+00 0.0000000000000000e+00 0.0000000000000000e+00  0.0000000000000000e+00 0.0000000000000000e+00 0.0000000000000000e+00  0.0000000000000000e+00 0.0000000000000000e+00 0.0000000000000000e+00  0.0000000000000000e+00 0.0000000000000000e+00 0.0000000000000000e+00  0.0000000000000000e+00 0.0000000000000000e+00 0.0000000000000000e+00  0.0000000000000000e+00 0.0000000000000000e+00 0.0000000000000000e+00  0.0000000000000000e+00 0.0000000000000000e+00 0.0000000000000000e+00  0.0000000000000000e+00 0.0000000000000000e+00 0.0000000000000000e+00  0.0000000000000000e+00 0.0000000000000000e+00 0.0000000000000000e+00  0.0000000000000000e+00 0.0000000000000000e+00 0.0000000000000000e+00  0.0000000000000000e+00 0.0000000000000000e+00 0.0000000000000000e+00  0.0000000000000000e+00 0.0000000000000000e+00 0.0000000000000000e+00  0.0000000000000000e+00 0.0000000000000000e+00 0.0000000000000000e+00  0.0000000000000000e+00 0.0000000000000000e+00 0.0000000000000000e+00  0.0000000000000000e+00 0.0000000000000000e+00 0.0000000000000000e+00  0.0000000000000000e+00 0.0000000000000000e+00 0.0000000000000000e+00  0.0000000000000000e+00 0.0000000000000000e+00 0.0000000000000000e+00  0.0000000000000000e+00 0.0000000000000000e+00 0.0000000000000000e+00  0.0000000000000000e+00 0.0000000000000000e+00 0.0000000000000000e+00  0.0000000000000000e+00 0.0000000000000000e+00 0.0000000000000000e+00  0.0000000000000000e+00 0.0000000000000000e+00 0.0000000000000000e+00  0.0000000000000000e+00 0.0000000000000000e+00 0.0000000000000000e+00  0.0000000000000000e+00 0.0000000000000000e+00 0.0000000000000000e+00  0.0000000000000000e+00 0.0000000000000000e+00 0.0000000000000000e+00  0.0000000000000000e+00 0.0000000000000000e+00 0.0000000000000000e+00  0.0000000000000000e+00 0.0000000000000000e+00 0.0000000000000000e+00  0.0000000000000000e+00 0.0000000000000000e+00 0.0000000000000000e+00  0.0000000000000000e+00 0.0000000000000000e+00 0.0000000000000000e+00  0.0000000000000000e+00 0.0000000000000000e+00 0.0000000000000000e+00  0.0000000000000000e+00 0.0000000000000000e+00 0.0000000000000000e+00  2.4585264814830995e-01 1.3761738352347961e-03 0.0000000000000000e+00  3.1092915765430756e-01 4.4548553773019212e-03 0.0000000000000000e+00  2.3915030891553779e-01 -4.4388696476579687e-03 0.0000000000000000e+00  0.0000000000000000e+00 0.0000000000000000e+00 0.0000000000000000e+00  0.0000000000000000e+00 0.0000000000000000e+00 0.0000000000000000e+00  0.0000000000000000e+00 0.0000000000000000e+00 0.0000000000000000e+00  0.0000000000000000e+00 0.0000000000000000e+00 0.0000000000000000e+00  0.0000000000000000e+00 0.0000000000000000e+00 0.0000000000000000e+00  0.0000000000000000e+00 0.0000000000000000e+00 0.0000000000000000e+00  0.0000000000000000e+00 0.0000000000000000e+00 0.0000000000000000e+00  0.0000000000000000e+00 0.0000000000000000e+00 0.0000000000000000e+00  0.0000000000000000e+00 0.0000000000000000e+00 0.0000000000000000e+00  0.0000000000000000e+00 0.0000000000000000e+00 0.0000000000000000e+00  0.0000000000000000e+00 0.0000000000000000e+00 0.0000000000000000e+00  0.0000000000000000e+00 0.0000000000000000e+00 0.0000000000000000e+00  0.0000000000000000e+00 0.0000000000000000e+00 0.0000000000000000e+00  0.0000000000000000e+00 0.0000000000000000e+00 0.0000000000000000e+00  0.0000000000000000e+00 0.0000000000000000e+00 0.0000000000000000e+00  0.0000000000000000e+00 0.0000000000000000e+00 0.0000000000000000e+00  0.0000000000000000e+00 0.0000000000000000e+00 0.0000000000000000e+00  0.0000000000000000e+00 0.0000000000000000e+00 0.0000000000000000e+00  0.0000000000000000e+00 0.0000000000000000e+00 0.0000000000000000e+00  0.0000000000000000e+00 0.0000000000000000e+00 0.0000000000000000e+00  0.0000000000000000e+00 0.0000000000000000e+00 0.0000000000000000e+00  0.0000000000000000e+00 0.0000000000000000e+00 0.0000000000000000e+00  0.0000000000000000e+00 0.0000000000000000e+00 0.0000000000000000e+00  0.0000000000000000e+00 0.0000000000000000e+00 0.0000000000000000e+00  0.0000000000000000e+00 0.0000000000000000e+00 0.0000000000000000e+00  0.0000000000000000e+00 0.0000000000000000e+00 0.0000000000000000e+00  0.0000000000000000e+00 0.0000000000000000e+00 0.0000000000000000e+00  0.0000000000000000e+00 0.0000000000000000e+00 0.0000000000000000e+00  0.0000000000000000e+00 0.0000000000000000e+00 0.0000000000000000e+00  0.0000000000000000e+00 0.0000000000000000e+00 0.0000000000000000e+00  0.0000000000000000e+00 0.0000000000000000e+00 0.0000000000000000e+00  0.0000000000000000e+00 0.0000000000000000e+00 0.0000000000000000e+00  0.0000000000000000e+00 0.0000000000000000e+00 0.0000000000000000e+00  0.0000000000000000e+00 0.0000000000000000e+00 0.0000000000000000e+00  0.0000000000000000e+00 0.0000000000000000e+00 0.0000000000000000e+00  0.0000000000000000e+00 0.0000000000000000e+00 0.0000000000000000e+00  0.0000000000000000e+00 0.0000000000000000e+00 0.0000000000000000e+00  0.0000000000000000e+00 0.0000000000000000e+00 0.0000000000000000e+00  0.0000000000000000e+00 0.0000000000000000e+00 0.0000000000000000e+00  0.0000000000000000e+00 0.0000000000000000e+00 0.0000000000000000e+00  -4.2837931151554500e-13 0.0000000000000000e+00 0.0000000000000000e+00  0.0000000000000000e+00 0.0000000000000000e+00 0.0000000000000000e+00  0.0000000000000000e+00 0.0000000000000000e+00 0.0000000000000000e+00  0.0000000000000000e+00 0.0000000000000000e+00 0.0000000000000000e+00  0.0000000000000000e+00 0.0000000000000000e+00 0.0000000000000000e+00  0.0000000000000000e+00 0.0000000000000000e+00 0.0000000000000000e+00  0.0000000000000000e+00 0.0000000000000000e+00 0.0000000000000000e+00  0.0000000000000000e+00 0.0000000000000000e+00 0.0000000000000000e+00  0.0000000000000000e+00 0.0000000000000000e+00 0.0000000000000000e+00  0.0000000000000000e+00 0.0000000000000000e+00 0.0000000000000000e+00  0.0000000000000000e+00 0.0000000000000000e+00 0.0000000000000000e+00  0.0000000000000000e+00 0.0000000000000000e+00 0.0000000000000000e+00  0.0000000000000000e+00 0.0000000000000000e+00 0.0000000000000000e+00  0.0000000000000000e+00 0.0000000000000000e+00 0.0000000000000000e+00  0.0000000000000000e+00 0.0000000000000000e+00 0.0000000000000000e+00  0.0000000000000000e+00 0.0000000000000000e+00 0.0000000000000000e+00  0.0000000000000000e+00 0.0000000000000000e+00 0.0000000000000000e+00  0.0000000000000000e+00 0.0000000000000000e+00 0.0000000000000000e+00  0.0000000000000000e+00 0.0000000000000000e+00 0.0000000000000000e+00  0.0000000000000000e+00 0.0000000000000000e+00 0.0000000000000000e+00  0.0000000000000000e+00 0.0000000000000000e+00 0.0000000000000000e+00  0.0000000000000000e+00 0.0000000000000000e+00 0.0000000000000000e+00  0.0000000000000000e+00 0.0000000000000000e+00 0.0000000000000000e+00  0.0000000000000000e+00 0.0000000000000000e+00 0.0000000000000000e+00  0.0000000000000000e+00 0.0000000000000000e+00 0.0000000000000000e+00  0.0000000000000000e+00 0.0000000000000000e+00 0.0000000000000000e+00  0.0000000000000000e+00 0.0000000000000000e+00 0.0000000000000000e+00  0.0000000000000000e+00 0.0000000000000000e+00 0.0000000000000000e+00  0.0000000000000000e+00 0.0000000000000000e+00 0.0000000000000000e+00  0.0000000000000000e+00 0.0000000000000000e+00 0.0000000000000000e+00  0.0000000000000000e+00 0.0000000000000000e+00 0.0000000000000000e+00  0.0000000000000000e+00 0.0000000000000000e+00 0.0000000000000000e+00  0.0000000000000000e+00 0.0000000000000000e+00 0.0000000000000000e+00  0.0000000000000000e+00 0.0000000000000000e+00 0.0000000000000000e+00  0.0000000000000000e+00 0.0000000000000000e+00 0.0000000000000000e+00  0.0000000000000000e+00 0.0000000000000000e+00 0.0000000000000000e+00  0.0000000000000000e+00 0.0000000000000000e+00 0.0000000000000000e+00  0.0000000000000000e+00 0.0000000000000000e+00 0.0000000000000000e+00  -1.9837542201060463e-06 1.6381792252817894e-06 0.0000000000000000e+00  -4.2058577207690786e-06 4.0498396449643631e-06 0.0000000000000000e+00  -6.1257661360293165e-06 7.9597855571325332e-06 0.0000000000000000e+00  -8.1793231561455714e-06 1.3441649554545207e-05 0.0000000000000000e+00  -9.8578850648919682e-06 2.0207118977626333e-05 0.0000000000000000e+00  -1.1747665577493938e-05 2.8368465140078489e-05 0.0000000000000000e+00  -1.3234293169237609e-05 3.7547090784244290e-05 0.0000000000000000e+00  -1.4655303416348617e-05 4.8049519139231644e-05 0.0000000000000000e+00  -1.6277531083227915e-05 5.9539150956755126e-05 0.0000000000000000e+00  -1.7480235562329485e-05 7.2043489245093305e-05 0.0000000000000000e+00  -1.8942248059701733e-05 8.5532495671597280e-05 0.0000000000000000e+00  -2.0009293500749984e-05 9.9911094177322299e-05 0.0000000000000000e+00  -2.1261478177551187e-05 1.1513907053594412e-04 0.0000000000000000e+00  -2.2230827247715183e-05 1.3104373731669046e-04 0.0000000000000000e+00  -2.3152217485438819e-05 1.4777427746747265e-04 0.0000000000000000e+00  -2.4186442234590970e-05 1.6511466554911105e-04 0.0000000000000000e+00  -2.4950277359417172e-05 1.8307545780129575e-04 0.0000000000000000e+00  -2.5854544124795189e-05 2.0162979528903292e-04 0.0000000000000000e+00  -2.6510690322706417e-05 2.2070417653594386e-04 0.0000000000000000e+00  -2.7272832724911347e-05 2.4025849088678454e-04 0.0000000000000000e+00  -2.7862752890693771e-05 2.6026640027874775e-04 0.0000000000000000e+00  -2.8500437071809824e-05 2.8070074807297931e-04 0.0000000000000000e+00  -2.8999041565359127e-05 3.0144123973646137e-04 0.0000000000000000e+00  -2.9463437834359980e-05 3.2257001460845610e-04 0.0000000000000000e+00  -2.9961407150253941e-05 3.4395278665535345e-04 0.0000000000000000e+00  -3.0363771971461016e-05 3.6562978244341254e-04 0.0000000000000000e+00  -3.0755379436338773e-05 3.8755241865214338e-04 0.0000000000000000e+00  -3.1092233886406173e-05 4.0967651073435855e-04 0.0000000000000000e+00  -3.1416684801777125e-05 4.3200303434441254e-04 0.0000000000000000e+00  -3.1696511020426329e-05 4.5448491839916884e-04 0.0000000000000000e+00  -3.1964315081836328e-05 4.7712451706585215e-04 0.0000000000000000e+00  -3.2195785487302818e-05 4.9988153062941354e-04 0.0000000000000000e+00  -3.2416217710517524e-05 5.2275806844564521e-04 0.0000000000000000e+00  -3.2607846825177982e-05 5.4572099732484388e-04 0.0000000000000000e+00  -3.2789547005984705e-05 5.6877227264668880e-04 0.0000000000000000e+00  -3.2948527954918489e-05 5.9188494402898615e-04 0.0000000000000000e+00  -3.3099009976025881e-05 6.1506105312043803e-04 0.0000000000000000e+00  -3.3231989811077842e-05 6.3827930486806315e-04 0.0000000000000000e+00  -3.3358038125881617e-05 6.6154184051064261e-04 0.0000000000000000e+00  -3.3470506412796988e-05 6.8483151543454249e-04 0.0000000000000000e+00  -3.3578168640787095e-05 7.0815298314932994e-04 0.0000000000000000e+00  -3.3673725772466947e-05 7.3148959974419722e-04 0.0000000000000000e+00  -3.3762104777587668e-05 7.5484696800030859e-04 0.0000000000000000e+00  -3.3849381376796606e-05 7.7821467161088903e-04 0.0000000000000000e+00  -3.3927219311388503e-05 8.0159309804896984e-04 0.0000000000000000e+00  -3.4003694705462006e-05 8.2498395486285973e-04 0.0000000000000000e+00  -1.8390739075541725e-05 8.4841330366932104e-04 0.0000000000000000e+00  1.2937035720712685e-05 8.4845712124237914e-04 0.0000000000000000e+00  2.8646329734175114e-05 8.2509132284767786e-04 0.0000000000000000e+00  2.8696901767287786e-05 8.0169751809146066e-04 0.0000000000000000e+00  2.8746788740514591e-05 7.7831153205660739e-04 0.0000000000000000e+00  2.8791947378640468e-05 7.5493870624533210e-04 0.0000000000000000e+00  2.8838312051196891e-05 7.3157748665649968e-04 0.0000000000000000e+00  2.8881497303953920e-05 7.0823703165324851e-04 0.0000000000000000e+00  2.8913917828738886e-05 6.8491549656399362e-04 0.0000000000000000e+00  2.8948929784918930e-05 6.6162162656988965e-04 0.0000000000000000e+00  2.8964066929218192e-05 6.3835899793232499e-04 0.0000000000000000e+00  2.8984229059573927e-05 6.1513839230385150e-04 0.0000000000000000e+00  2.8975229207405015e-05 5.9196280821353074e-04 0.0000000000000000e+00  2.8973446030020832e-05 5.6884825210288669e-04 0.0000000000000000e+00  2.8931061212120497e-05 5.4579787378476079e-04 0.0000000000000000e+00  2.8900062454734280e-05 5.2283321686992631e-04 0.0000000000000000e+00  2.8814775798175994e-05 4.9995774727606480e-04 0.0000000000000000e+00  2.8746819255998540e-05 4.7719881169514065e-04 0.0000000000000000e+00  2.8608252815571589e-05 4.5456035030453067e-04 0.0000000000000000e+00  2.8494889461384556e-05 4.3207596264484489e-04 0.0000000000000000e+00  2.8291763976700665e-05 4.0975018382512305e-04 0.0000000000000000e+00  2.8124088719133481e-05 3.8762266297472591e-04 0.0000000000000000e+00  2.7842256444140783e-05 3.6570086624697454e-04 0.0000000000000000e+00  2.7607748160620118e-05 3.4403152533027306e-04 0.0000000000000000e+00  2.7240343560030699e-05 3.2263003876170426e-04 0.0000000000000000e+00  2.6911840337097969e-05 3.0150453206573367e-04 0.0000000000000000e+00  2.6544690573892363e-05 2.8076590293531326e-04 0.0000000000000000e+00  2.6047625080355223e-05 2.6031779237253931e-04 0.0000000000000000e+00  2.5564064234507949e-05 2.4032566844789304e-04 0.0000000000000000e+00  2.4972350741525508e-05 2.2074398326425173e-04 0.0000000000000000e+00  2.4376278002352911e-05 2.0167783226254375e-04 0.0000000000000000e+00  2.3667656069661741e-05 1.8311408966291978e-04 0.0000000000000000e+00  2.2953953667376218e-05 1.6512593003427156e-04 0.0000000000000000e+00  2.2045188658491766e-05 1.4782001046445445e-04 0.0000000000000000e+00  2.1235808218291584e-05 1.3107591583129627e-04 0.0000000000000000e+00  2.0368824416911602e-05 1.1517829417290915e-04 0.0000000000000000e+00  1.9256888515546121e-05 9.9890979831264052e-05 0.0000000000000000e+00  1.8186349737483747e-05 8.5541257900972876e-05 0.0000000000000000e+00  1.6944071121853055e-05 7.2037944605311981e-05 0.0000000000000000e+00  1.5717694759491537e-05 5.9489245166407770e-05 0.0000000000000000e+00  1.4197175109107519e-05 4.8055465748435011e-05 0.0000000000000000e+00  1.2851316502939652e-05 3.7530803928525748e-05 0.0000000000000000e+00  1.1436440115954417e-05 2.8350443991161441e-05 0.0000000000000000e+00  9.6443879347812981e-06 2.0145590257247005e-05 0.0000000000000000e+00  7.9735423981122368e-06 1.3357641851092813e-05 0.0000000000000000e+00  5.9642912662256395e-06 7.9477015174880465e-06 0.0000000000000000e+00  4.1359070832248449e-06 4.0131148481905479e-06 0.0000000000000000e+00  1.9567861432849841e-06 1.5800985509845570e-06 0.0000000000000000e+00  -4.3599696197478825e-08 1.7258683293192091e-06 0.0000000000000000e+00  -3.0354069512166690e-06 8.1327967804453879e-04 0.0000000000000000e+00  -3.1602808634361269e-06 7.6858764164633268e-04 0.0000000000000000e+00  -2.6582009975216037e-06 6.9567918542996310e-04 0.0000000000000000e+00  -7.0496239709036290e-08 9.5669558427161254e-06 0.0000000000000000e+00  -2.1669481534154223e-06 6.4992026477263569e-04 0.0000000000000000e+00  1.0862942174661820e-09 2.2586377501067159e-05 0.0000000000000000e+00  -2.0200658811740866e-06 6.0346845396694652e-04 0.0000000000000000e+00  -3.5229524289965972e-08 5.3428115581328814e-05 0.0000000000000000e+00  -3.2408361085515959e-07 7.8075515771133146e-05 0.0000000000000000e+00  -1.8716809273202811e-06 5.5722415796378229e-04 0.0000000000000000e+00  -2.6787586088512111e-07 1.5667702110766307e-04 0.0000000000000000e+00  -1.5754138462162452e-06 4.6573256534703384e-04 0.0000000000000000e+00  -1.5248967137289777e-07 1.0564511752874286e-04 0.0000000000000000e+00  -6.9333875940849634e-07 1.9194549691389632e-04 0.0000000000000000e+00  -1.4296192358370772e-06 4.2073435423219449e-04 0.0000000000000000e+00  -1.7230933980346431e-06 5.1127504621043907e-04 0.0000000000000000e+00  -8.1613443972235637e-07 2.3014140205827128e-04 0.0000000000000000e+00  -1.2851531851812361e-06 3.7644696310601454e-04 0.0000000000000000e+00  -5.8257995763827794e-07 2.6854444511674783e-04 0.0000000000000000e+00  -1.5128089138649123e-06 3.3395228021948552e-04 0.0000000000000000e+00  -1.0296369566076825e-06 2.9959320628311073e-04 0.0000000000000000e+00  -5.3091406584407178e-07 1.2928437549785773e-04 0.0000000000000000e+00  -2.3615410596195459e-06 7.3356811593177414e-04 0.0000000000000000e+00  -1.7173799884351124e-07 3.6178086274314100e-05 0.0000000000000000e+00  7.8928975508791500e-06 7.9078832629989081e-04 0.0000000000000000e+00  1.7929559981774471e-06 4.9973049772274709e-06 0.0000000000000000e+00  6.9414781106912424e-06 6.2668882064110534e-04 0.0000000000000000e+00  6.8259312141651885e-06 6.7321738194379120e-04 0.0000000000000000e+00  -3.2254700568368758e-06 1.5825471966688027e-05 0.0000000000000000e+00  -5.1199616340650026e-06 6.5109387559530153e-05 0.0000000000000000e+00  7.1991127500103830e-06 4.8846739318865766e-04 0.0000000000000000e+00  7.0458614315812892e-06 5.8033282402122238e-04 0.0000000000000000e+00  -7.6008045975522915e-06 1.7369484482926718e-04 0.0000000000000000e+00  7.2360532555418220e-06 4.4318145966156853e-04 0.0000000000000000e+00  -5.8995211203516851e-06 9.2124464629465667e-05 0.0000000000000000e+00  -8.1414032201696327e-06 2.1083214555500250e-04 0.0000000000000000e+00  7.2384156550083244e-06 3.9851944203610706e-04 0.0000000000000000e+00  7.1336736797089165e-06 5.3422588687777265e-04 0.0000000000000000e+00  -1.0329706941249632e-05 2.4976859808293733e-04 0.0000000000000000e+00  7.2038442026009500e-06 3.5466318090565674e-04 0.0000000000000000e+00  -3.5523298364797084e-07 3.8463688992085978e-07 0.0000000000000000e+00  2.9667995354421107e-07 3.4004384145719983e-07 0.0000000000000000e+00  -1.0294448709478692e-05 8.3166913717315244e-04 0.0000000000000000e+00  -2.0971770788065639e-06 5.0172798092661371e-06 0.0000000000000000e+00  9.0622318500028760e-06 3.1657910144901081e-04 0.0000000000000000