<?xml version="1.0"?>
<VTKFile type="UnstructuredGrid"  version="0.1"  >
<UnstructuredGrid>
<Piece  NumberOfPoints="1419" NumberOfCells="2698">
<Points>
<DataArray  type="Float64"  NumberOfComponents="3"  format="ascii">0 0 0  0 0.41 0  2.5 0 0  2.5 0.41 0  0.6 0.19 0  0.6 0.21 0  0.25 0.2 0  0.15 0.2 0  0.2489897948556636 0.21 0  0.2489897948556636 0.19 0  0.6 0.2 0  0 0.3807142857143437 0  0 0.3514285714286952 0  0 0.3221428571430699 0  0 0.29285714285744 0  0 0.2635714285718054 0  0 0.2342857142861561 0  0 0.2050000000005308 0  0 0.175714285714732 0  0 0.1464285714289574 0  0 0.1171428571431897 0  0 0.08785714285737878 0  0 0.05857142857161107 0  0 0.02928571428580012 0  0.03015443760436003 0 0  0.06140001986583606 0 0  0.09377624077125973 0 0  0.1273239957535082 0 0  0.1620856860351972 0 0  0.1981052433264291 0 0  0.235428184091502 0 0  0.2741016576309132 0 0  0.3141745521465447 0 0  0.3556974926295285 0 0  0.3987229542472677 0 0  0.4433053055141081 0 0  0.4895008759286886 0 0  0.5373680609405097 0 0  0.5869673343216626 0 0  0.6383613676634521 0 0  0.6916151138468254 0 0  0.7467958595648856 0 0  0.8039733463919316 0 0  0.8632198139502143 0 0  0.9246101326867038 0 0  0.9882218810934433 0 0  1.054135445558498 0 0  1.122434100542598 0 0  1.193204177141305 0 0  1.266535089879536 0 0  1.342519516046404 0 0  1.421253448503939 0 0  1.502836389106271 0 0  1.587371439758838 0 0  1.674965418777374 0 0  1.765729001825544 0 0  1.859776908880082 0 0  1.957227977487062 0 0  2.058205329869943 0 0  2.162836591189951 0 0  2.271253957290865 0 0  2.383594446803425 0 0  2.5 0.1024999999997612 0  2.5 0.2049999999994743 0  2.5 0.3074999999997183 0  2.383594446803656 0.41 0  2.271253957291315 0.41 0  2.162836591190598 0.41 0  2.058205329870775 0.41 0  1.957227977488067 0.41 0  1.859776908881246 0.41 0  1.765729001826854 0.41 0  1.674965418778818 0.41 0  1.58737143976041 0.41 0  1.502836389107956 0.41 0  1.421253448505726 0.41 0  1.342519516048286 0.41 0  1.266535089881505 0.41 0  1.193204177143353 0.41 0  1.122434100544716 0.41 0  1.05413544556068 0.41 0  0.9882218810956305 0.41 0  0.9246101326886647 0.41 0  0.8632198139519631 0.41 0  0.8039733463934788 0.41 0  0.7467958595662458 0.41 0  0.6916151138480078 0.41 0  0.6383613676644679 0.41 0  0.5869673343225223 0.41 0  0.5373680609412221 0.41 0  0.4895008759292634 0.41 0  0.4433053055145528 0.41 0  0.3987229542475914 0.41 0  0.3556974926297398 0.41 0  0.3141745521466497 0.41 0  0.2741016576310038 0.41 0  0.2354281840915826 0.41 0  0.1981052433265003 0.41 0  0.1620856860352591 0.41 0  0.1273239957535623 0.41 0  0.09377624077128965 0.41 0  0.06140001986584975 0.41 0  0.03015443760436654 0.41 0  0.2497468076502589 0.2050254481002335 0  0.2497468076502614 0.1949745518997913 0  0.2469965252529372 0.1829317073451959 0  0.2439893735792749 0.1762316384219906 0  0.2400332147834255 0.1700443375285386 0  0.2352133972704371 0.1645032867342007 0  0.2296339016332438 0.1597280261969788 0  0.2234150974217223 0.1558215752574715 0  0.2166911463437691 0.1528682099456123 0  0.2096071079204251 0.1509316448471593 0  0.2023158100364996 0.1500536585536553 0  0.194974551899914 0.1502531923497262 0  0.1877417105387872 0.1515259415822739 0  0.1807733240461124 0.153844448527136 0  0.1742197252835808 0.15715869474974 0  0.1682222986673531 0.1613971801805478 0  0.162910430003803 0.1664684656256651 0  0.1583987151779087 0.1722631454351573 0  0.1547844879126891 0.178656207771761 0  0.1521457199348551 0.1855097315605723 0  0.1505393388476355 0.1926758619366523 0  0.1505393388476328 0.2073241380633295 0  0.1521457199348437 0.2144902684393899 0  0.1547844879126531 0.221343792228163 0  0.1583987151778488 0.2277368545647528 0  0.1629104300036858 0.2335315343742052 0  0.1682222986671726 0.2386028198193036 0  0.1742197252833576 0.2428413052501257 0  0.1807733240458683 0.2461555514727623 0  0.1877417105384929 0.2484740584176516 0  0.1949745518995776 0.2497468076502398 0  0.202315810036185 0.2499463414463592 0  0.2096071079201568 0.2490683551528932 0  0.2166911463435495 0.2471317900544655 0  0.2234150974215506 0.2441784247426195 0  0.2296339016331197 0.2402719738031125 0  0.2352133972703547 0.2354967132658811 0  0.2400332147833751 0.2299556624715287 0  0.2439893735792577 0.2237683615780412 0  0.246996525252926 0.2170682926548348 0  0.25645809709277 0.21 0  0.2639263993298655 0.21 0  0.271394701566961 0.21 0  0.2788630038040554 0.21 0  0.2863313060411479 0.21 0  0.2937996082782405 0.21 0  0.301267910515333 0.21 0  0.3087362127524279 0.21 0  0.3162045149895234 0.21 0  0.3236728172265972 0.21 0  0.3311411194636928 0.21 0  0.3386094217007701 0.21 0  0.3460777239378666 0.21 0  0.3535460261749672 0.21 0  0.3610143284120516 0.21 0  0.3684826306491596 0.21 0  0.3759509328862226 0.21 0  0.383419235123329 0.21 0  0.3908875373604028 0.21 0  0.3983558395975142 0.21 0  0.4058241418345938 0.21 0  0.4132924440716992 0.21 0  0.4207607463087888 0.21 0  0.4282290485459029 0.21 0  0.4356973507830418 0.21 0  0.4431656530201649 0.21 0  0.4506339552573136 0.21 0  0.4581022574944306 0.21 0  0.4655705597315852 0.21 0  0.4730388619686996 0.21 0  0.480507164205851 0.21 0  0.4879754664429498 0.21 0  0.4954437686800938 0.21 0  0.502912070917267 0.21 0  0.5103803731544119 0.21 0  0.5178486753915261 0.21 0  0.5253169776286404 0.21 0  0.5327852798657868 0.21 0  0.5402535821029386 0.21 0  0.54772188434007 0.21 0  0.5551901865771842 0.21 0  0.5626584888143201 0.21 0  0.5701267910514778 0.21 0  0.5775950932886138 0.21 0  0.5850633955257281 0.21 0  0.5925316977628483 0.21 0  0.6 0.2050000000000054 0  0.6 0.1950000000000217 0  0.5925316977628897 0.19 0  0.5850633955257988 0.19 0  0.5775950932887378 0.19 0  0.5701267910515998 0.19 0  0.5626584888145268 0.19 0  0.5551901865773963 0.19 0  0.547721884340339 0.19 0  0.5402535821032429 0.19 0  0.5327852798661811 0.19 0  0.5253169776290537 0.19 0  0.5178486753919799 0.19 0  0.5103803731549078 0.19 0  0.502912070917822 0.19 0  0.4954437686807294 0.19 0  0.4879754664436223 0.19 0  0.4805071642065402 0.19 0  0.4730388619694271 0.19 0  0.4655705597323621 0.19 0  0.4581022574952563 0.19 0  0.4506339552581777 0.19 0  0.4431656530210671 0.19 0  0.4356973507839815 0.19 0  0.4282290485468779 0.19 0  0.4207607463097617 0.19 0  0.4132924440726327 0.19 0  0.4058241418354857 0.19 0  0.3983558395983636 0.19 0  0.3908875373612097 0.19 0  0.3834192351240934 0.19 0  0.3759509328869369 0.19 0  0.3684826306498175 0.19 0  0.361014328412667 0.19 0  0.3535460261755617 0.19 0  0.3460777239384295 0.19 0  0.3386094217012945 0.19 0  0.3311411194641595 0.19 0  0.3236728172270245 0.19 0  0.3162045149898895 0.19 0  0.3087362127527544 0.19 0  0.3012679105156187 0.19 0  0.2937996082784807 0.19 0  0.2863313060413428 0.19 0  0.2788630038042048 0.19 0  0.2713947015670686 0.19 0  0.2639263993299336 0.19 0  0.2564580970927985 0.19 0  0.2607803159922026 0.2000727136295815 0  0.5887803774232762 0.2001272386983733 0  0.5745072403740523 0.2002044435018727 0  0.5511891430099709 0.2001122610077113 0  0.2751288526855082 0.20000000000002 0  0.5365194309847112 0.1999999999999436 0  0.2894621222999649 0.1998691686390484 0  0.5215828265105155 0.1999999999999228 0  0.3127789816668748 0.1998657885438805 0  0.3274069683451451 0.2000000000000796 0  0.5066462220363641 0.199999999999908 0  0.3650630746574081 0.199866017807523 0  0.476773013087985 0.1999999999998713 0  0.3417402379596385 0.1998691686391011 0  0.3796850840047755 0.200000000000134 0  0.4618364086138087 0.1999999999998546 0  0.4917096175621762 0.1999999999998808 0  0.3946216884789568 0.2000000000001512 0  0.446899804139621 0.1999999999998389 0  0.4089549580935208 0.1998691686391595 0  0.4322718174608562 0.200127451265745 0  0.4201487168029707 0.1999966199048527 0  0.3528922713220932 0.2000185703532356 0  0.5633122436674589 0.1999814296467508 0  0.3006558810093873 0.1999966199048318 0  0.5815926498168407 0.1966545283159175 0  0.2677053789419034 0.1964246479135325 0  0.5290511287476175 0.1970915826863981 0  0.5439877332217911 0.197091582686394 0  0.2825131256993216 0.2035478995978015 0  0.3199386661080599 0.202908417313604 0  0.4842413153250809 0.1970915826863873 0  0.5141145242734466 0.1970915826863843 0  0.3722167817676917 0.2029084173136195 0  0.4693047108508938 0.1970915826863783 0  0.3348752705822316 0.202908417313609 0  0.3871533862418661 0.2029084173136212 0  0.4543681063767183 0.1970915826863795 0  0.4991779197992749 0.1970915826863902 0  0.4020059614928624 0.203547899597858 0  0.4394315019025246 0.1970915826863714 0  0.2550657455369551 0.2034088125358657 0  0.2548908499171161 0.1966940311614271 0  0.5946539510196798 0.2024302972968126 0  0.267698176732111 0.2039977513680092 0  0.4261685417851465 0.196409292431739 0  0.3590076176283495 0.196411355804271 0  0.5571672426447437 0.2036011176410121 0  0.3066757059912147 0.1964092924317024 0  0.594380730180568 0.1966558399668133 0  0.4842413153245942 0.2040749161535287 0  0.4693047108503577 0.2040749161535231 0  0.3871533862424271 0.1959250838464788 0  0.372246743208829 0.1959123236376545 0  0.5141145242731028 0.2040749161535395 0  0.4543681063761134 0.2040749161535186 0  0.4019979587101454 0.1959834479682427 0  0.4394608940728603 0.2040870543693135 0  0.5439623148931173 0.2040856076781014 0  0.5290511287473298 0.2040749161535501 0  0.4991779197988497 0.2040749161535382 0  0.3347912413592433 0.1959225448935183 0  0.3199680582793816 0.1959123018030061 0  0.2825051229162361 0.1959834479681729 0  0.3590471196690275 0.2036304442587945 0  0.5571594006495384 0.1963685282145804 0  0.3067669986803285 0.203627750582736 0  0.4262598344738712 0.2036568242185335 0  0.5814408164431408 0.2041285596160068 0  0.5688286748170428 0.1961819304477386 0  0.4145905603063645 0.2038180695522843 0  0.3473758401724931 0.2038180695522752 0  0.2950977245128307 0.2038180695522663 0  0.5688286748170693 0.203818069552238 0  0.2950977245127906 0.1961819304477774 0  0.3473758401723931 0.1961819304478349 0  0.4145905603061963 0.1961819304479011 0  0.2601812407614425 0.2056861609747042
[...]
<PointData  Vectors="f_46-0"> 
<DataArray  type="Float64"  Name="f_46-0"  NumberOfComponents="3" format="ascii">0.0000000000000000e+00 0.0000000000000000e+00 0.0000000000000000e+00  0.0000000000000000e+00 0.0000000000000000e+00 0.0000000000000000e+00  0.0000000000000000e+00 0.0000000000000000e+00 0.0000000000000000e+00  0.0000000000000000e+00 0.0000000000000000e+00 0.0000000000000000e+00  3.8397150816491137e-05 1.1021307204721943e-03 0.0000000000000000e+00  -4.6314456321425237e-05 1.1021201883084960e-03 0.0000000000000000e+00  0.0000000000000000e+00 0.0000000000000000e+00 0.0000000000000000e+00  0.0000000000000000e+00 0.0000000000000000e+00 0.0000000000000000e+00  0.0000000000000000e+00 0.0000000000000000e+00 0.0000000000000000e+00  0.0000000000000000e+00 0.0000000000000000e+00 0.0000000000000000e+00  -3.9417422955712531e-06 1.1021155826319859e-03 0.0000000000000000e+00  7.9591836734548407e-02 0.0000000000000000e+00 0.0000000000000000e+00  1.4693877550994527e-01 0.0000000000000000e+00 0.0000000000000000e+00  2.0204081632617479e-01 0.0000000000000000e+00 0.0000000000000000e+00  2.4489795918330079e-01 0.0000000000000000e+00 0.0000000000000000e+00  2.7551020408131754e-01 0.0000000000000000e+00 0.0000000000000000e+00  2.9387755102022350e-01 0.0000000000000000e+00 0.0000000000000000e+00  3.0000000000000004e-01 0.0000000000000000e+00 0.0000000000000000e+00  2.9387755102059482e-01 0.0000000000000000e+00 0.0000000000000000e+00  2.7551020408195548e-01 0.0000000000000000e+00 0.0000000000000000e+00  2.4489795918409071e-01 0.0000000000000000e+00 0.0000000000000000e+00  2.0204081632692528e-01 0.0000000000000000e+00 0.0000000000000000e+00  1.4693877551058568e-01 0.0000000000000000e+00 0.0000000000000000e+00  7.9591836734909230e-02 0.0000000000000000e+00 0.0000000000000000e+00  0.0000000000000000e+00 0.0000000000000000e+00 0.0000000000000000e+00  0.0000000000000000e+00 0.0000000000000000e+00 0.0000000000000000e+00  0.0000000000000000e+00 0.0000000000000000e+00 0.0000000000000000e+00  0.0000000000000000e+00 0.0000000000000000e+00 0.0000000000000000e+00  0.0000000000000000e+00 0.0000000000000000e+00 0.0000000000000000e+00  0.0000000000000000e+00 0.0000000000000000e+00 0.0000000000000000e+00  0.0000000000000000e+00 0.0000000000000000e+00 0.0000000000000000e+00  0.0000000000000000e+00 0.0000000000000000e+00 0.0000000000000000e+00  0.0000000000000000e+00 0.0000000000000000e+00 0.0000000000000000e+00  0.0000000000000000e+00 0.0000000000000000e+00 0.0000000000000000e+00  0.0000000000000000e+00 0.0000000000000000e+00 0.0000000000000000e+00  0.0000000000000000e+00 0.0000000000000000e+00 0.0000000000000000e+00  0.0000000000000000e+00 0.0000000000000000e+00 0.0000000000000000e+00  0.0000000000000000e+00 0.0000000000000000e+00 0.0000000000000000e+00  0.0000000000000000e+00 0.0000000000000000e+00 0.0000000000000000e+00  0.0000000000000000e+00 0.0000000000000000e+00 0.0000000000000000e+00  0.0000000000000000e+00 0.0000000000000000e+00 0.0000000000000000e+00  0.0000000000000000e+00 0.0000000000000000e+00 0.0000000000000000e+00  0.0000000000000000e+00 0.0000000000000000e+00 0.0000000000000000e+00  0.0000000000000000e+00 0.0000000000000000e+00 0.0000000000000000e+00  0.0000000000000000e+00 0.0000000000000000e+00 0.0000000000000000e+00  0.0000000000000000e+00 0.0000000000000000e+00 0.0000000000000000e+00  0.0000000000000000e+00 0.0000000000000000e+00 0.0000000000000000e+00  0.0000000000000000e+00 0.0000000000000000e+00 0.0000000000000000e+00  0.0000000000000000e+00 0.0000000000000000e+00 0.0000000000000000e+00  0.0000000000000000e+00 0.0000000000000000e+00 0.0000000000000000e+00  0.0000000000000000e+00 0.0000000000000000e+00 0.0000000000000000e+00  0.0000000000000000e+00 0.0000000000000000e+00 0.0000000000000000e+00  0.0000000000000000e+00 0.0000000000000000e+00 0.0000000000000000e+00  0.0000000000000000e+00 0.0000000000000000e+00 0.0000000000000000e+00  0.0000000000000000e+00 0.0000000000000000e+00 0.0000000000000000e+00  0.0000000000000000e+00 0.0000000000000000e+00 0.0000000000000000e+00  0.0000000000000000e+00 0.0000000000000000e+00 0.0000000000000000e+00  0.0000000000000000e+00 0.0000000000000000e+00 0.0000000000000000e+00  0.0000000000000000e+00 0.0000000000000000e+00 0.0000000000000000e+00  0.0000000000000000e+00 0.0000000000000000e+00 0.0000000000000000e+00  0.0000000000000000e+00 0.0000000000000000e+00 0.0000000000000000e+00  0.0000000000000000e+00 0.0000000000000000e+00 0.0000000000000000e+00  2.4873319082100095e-01 1.3605577576439832e-03 0.0000000000000000e+00  3.0464508317381378e-01 4.4648078884443887e-03 0.0000000000000000e+00  2.4254689589237688e-01 -6.9592821168461680e-03 0.0000000000000000e+00  0.0000000000000000e+00 0.0000000000000000e+00 0.0000000000000000e+00  0.0000000000000000e+00 0.0000000000000000e+00 0.0000000000000000e+00  0.0000000000000000e+00 0.0000000000000000e+00 0.0000000000000000e+00  0.0000000000000000e+00 0.0000000000000000e+00 0.0000000000000000e+00  0.0000000000000000e+00 0.0000000000000000e+00 0.0000000000000000e+00  0.0000000000000000e+00 0.0000000000000000e+00 0.0000000000000000e+00  0.0000000000000000e+00 0.0000000000000000e+00 0.0000000000000000e+00  0.0000000000000000e+00 0.0000000000000000e+00 0.0000000000000000e+00  0.0000000000000000e+00 0.0000000000000000e+00 0.0000000000000000e+00  0.0000000000000000e+00 0.0000000000000000e+00 0.0000000000000000e+00  0.0000000000000000e+00 0.0000000000000000e+00 0.0000000000000000e+00  0.0000000000000000e+00 0.0000000000000000e+00 0.0000000000000000e+00  0.0000000000000000e+00 0.0000000000000000e+00 0.0000000000000000e+00  0.0000000000000000e+00 0.0000000000000000e+00 0.0000000000000000e+00  0.0000000000000000e+00 0.0000000000000000e+00 0.0000000000000000e+00  0.0000000000000000e+00 0.0000000000000000e+00 0.0000000000000000e+00  0.0000000000000000e+00 0.0000000000000000e+00 0.0000000000000000e+00  0.0000000000000000e+00 0.0000000000000000e+00 0.0000000000000000e+00  0.0000000000000000e+00 0.0000000000000000e+00 0.0000000000000000e+00  0.0000000000000000e+00 0.0000000000000000e+00 0.0000000000000000e+00  0.0000000000000000e+00 0.0000000000000000e+00 0.0000000000000000e+00  0.0000000000000000e+00 0.0000000000000000e+00 0.0000000000000000e+00  0.0000000000000000e+00 0.0000000000000000e+00 0.0000000000000000e+00  0.0000000000000000e+00 0.0000000000000000e+00 0.0000000000000000e+00  0.0000000000000000e+00 0.0000000000000000e+00 0.0000000000000000e+00  0.0000000000000000e+00 0.0000000000000000e+00 0.0000000000000000e+00  0.0000000000000000e+00 0.0000000000000000e+00 0.0000000000000000e+00  0.0000000000000000e+00 0.0000000000000000e+00 0.0000000000000000e+00  0.0000000000000000e+00 0.0000000000000000e+00 0.0000000000000000e+00  0.0000000000000000e+00 0.0000000000000000e+00 0.0000000000000000e+00  0.0000000000000000e+00 0.0000000000000000e+00 0.0000000000000000e+00  0.0000000000000000e+00 0.0000000000000000e+00 0.0000000000000000e+00  0.0000000000000000e+00 0.0000000000000000e+00 0.0000000000000000e+00  0.0000000000000000e+00 0.0000000000000000e+00 0.0000000000000000e+00  0.0000000000000000e+00 0.0000000000000000e+00 0.0000000000000000e+00  0.0000000000000000e+00 0.0000000000000000e+00 0.0000000000000000e+00  0.0000000000000000e+00 0.0000000000000000e+00 0.0000000000000000e+00  0.0000000000000000e+00 0.0000000000000000e+00 0.0000000000000000e+00  0.0000000000000000e+00 0.0000000000000000e+00 0.0000000000000000e+00  0.0000000000000000e+00 0.0000000000000000e+00 0.0000000000000000e+00  7.1776887769401347e-16 0.0000000000000000e+00 0.0000000000000000e+00  0.0000000000000000e+00 0.0000000000000000e+00 0.0000000000000000e+00  0.0000000000000000e+00 0.0000000000000000e+00 0.0000000000000000e+00  0.0000000000000000e+00 0.0000000000000000e+00 0.0000000000000000e+00  0.0000000000000000e+00 0.0000000000000000e+00 0.0000000000000000e+00  0.0000000000000000e+00 0.0000000000000000e+00 0.0000000000000000e+00  0.0000000000000000e+00 0.0000000000000000e+00 0.0000000000000000e+00  0.0000000000000000e+00 0.0000000000000000e+00 0.0000000000000000e+00  0.0000000000000000e+00 0.0000000000000000e+00 0.0000000000000000e+00  0.0000000000000000e+00 0.0000000000000000e+00 0.0000000000000000e+00  0.0000000000000000e+00 0.0000000000000000e+00 0.0000000000000000e+00  0.0000000000000000e+00 0.0000000000000000e+00 0.0000000000000000e+00  0.0000000000000000e+00 0.0000000000000000e+00 0.0000000000000000e+00  0.0000000000000000e+00 0.0000000000000000e+00 0.0000000000000000e+00  0.0000000000000000e+00 0.0000000000000000e+00 0.0000000000000000e+00  0.0000000000000000e+00 0.0000000000000000e+00 0.0000000000000000e+00  0.0000000000000000e+00 0.0000000000000000e+00 0.0000000000000000e+00  0.0000000000000000e+00 0.0000000000000000e+00 0.0000000000000000e+00  0.0000000000000000e+00 0.0000000000000000e+00 0.0000000000000000e+00  0.0000000000000000e+00 0.0000000000000000e+00 0.0000000000000000e+00  0.0000000000000000e+00 0.0000000000000000e+00 0.0000000000000000e+00  0.0000000000000000e+00 0.0000000000000000e+00 0.0000000000000000e+00  0.0000000000000000e+00 0.0000000000000000e+00 0.0000000000000000e+00  0.0000000000000000e+00 0.0000000000000000e+00 0.0000000000000000e+00  0.0000000000000000e+00 0.0000000000000000e+00 0.0000000000000000e+00  0.0000000000000000e+00 0.0000000000000000e+00 0.0000000000000000e+00  0.0000000000000000e+00 0.0000000000000000e+00 0.0000000000000000e+00  0.0000000000000000e+00 0.0000000000000000e+00 0.0000000000000000e+00  0.0000000000000000e+00 0.0000000000000000e+00 0.0000000000000000e+00  0.0000000000000000e+00 0.0000000000000000e+00 0.0000000000000000e+00  0.0000000000000000e+00 0.0000000000000000e+00 0.0000000000000000e+00  0.0000000000000000e+00 0.0000000000000000e+00 0.0000000000000000e+00  0.0000000000000000e+00 0.0000000000000000e+00 0.0000000000000000e+00  0.0000000000000000e+00 0.0000000000000000e+00 0.0000000000000000e+00  0.0000000000000000e+00 0.0000000000000000e+00 0.0000000000000000e+00  0.0000000000000000e+00 0.0000000000000000e+00 0.0000000000000000e+00  0.0000000000000000e+00 0.0000000000000000e+00 0.0000000000000000e+00  0.0000000000000000e+00 0.0000000000000000e+00 0.0000000000000000e+00  -2.3287832727549646e-06 1.9057227932673615e-06 0.0000000000000000e+00  -4.9601818675313412e-06 4.6580234755033737e-06 0.0000000000000000e+00  -7.2661219742440404e-06 9.1646497821151336e-06 0.0000000000000000e+00  -9.7547842352383236e-06 1.5518062265598848e-05 0.0000000000000000e+00  -1.1818743690311279e-05 2.3411967547552409e-05 0.0000000000000000e+00  -1.4162932622825988e-05 3.2988373741862494e-05 0.0000000000000000e+00  -1.6034987615981332e-05 4.3809453551231660e-05 0.0000000000000000e+00  -1.7846433710765739e-05 5.6267700551185965e-05 0.0000000000000000e+00  -1.9931248678794905e-05 6.9963219643900785e-05 0.0000000000000000e+00  -2.1508359728646527e-05 8.4951804267887539e-05 0.0000000000000000e+00  -2.3442292141593553e-05 1.0120619316790358e-04 0.0000000000000000e+00  -2.4883062297904606e-05 1.1863291092463544e-04 0.0000000000000000e+00  -2.6594573567780348e-05 1.3719036887314300e-04 0.0000000000000000e+00  -2.7944941333604095e-05 1.5666656886394423e-04 0.0000000000000000e+00  -2.9250064147197970e-05 1.7728321530376495e-04 0.0000000000000000e+00  -3.0735242674644204e-05 1.9875845989377264e-04 0.0000000000000000e+00  -3.1858368731598103e-05 2.2112789835947036e-04 0.0000000000000000e+00  -3.3208627023350875e-05 2.4436263787520993e-04 0.0000000000000000e+00  -3.4211190948288128e-05 2.6838387790021088e-04 0.0000000000000000e+00  -3.5395871640558433e-05 2.9313482518240880e-04 0.0000000000000000e+00  -3.6333259230876198e-05 3.1860359511540139e-04 0.0000000000000000e+00  -3.7368758142906946e-05 3.4475577736083681e-04 0.0000000000000000e+00  -3.8192053811609787e-05 3.7141491406880023e-04 0.0000000000000000e+00  -3.8973933518518835e-05 3.9872894246350431e-04 0.0000000000000000e+00  -3.9826998067514670e-05 4.2648271691552890e-04 0.0000000000000000e+00  -4.0528902953390608e-05 4.5475953102455219e-04 0.0000000000000000e+00  -4.1222496122506473e-05 4.8348049708223383e-04 0.0000000000000000e+00  -4.1825157747540088e-05 5.1258137280249972e-04 0.0000000000000000e+00  -4.2412328274176295e-05 5.4206553115873244e-04 0.0000000000000000e+00  -4.2918730336425930e-05 5.7185497092754572e-04 0.0000000000000000e+00  -4.3405680410969350e-05 6.0195696863745709e-04 0.0000000000000000e+00  -4.3821177241934921e-05 6.3229731903459007e-04 0.0000000000000000e+00  -4.4214406778248754e-05 6.6288430437848041e-04 0.0000000000000000e+00  -4.4546393398872848e-05 6.9365011591787521e-04 0.0000000000000000e+00  -4.4854296040223878e-05 7.2460387504554057e-04 0.0000000000000000e+00  -4.5110256726784457e-05 7.5568474822196091e-04 0.0000000000000000e+00  -4.5342884219541696e-05 7.8690249589067468e-04 0.0000000000000000e+00  -4.5533215742157523e-05 8.1820497087798445e-04 0.0000000000000000e+00  -4.5701864174655536e-05 8.4960175053468460e-04 0.0000000000000000e+00  -4.5837117358152630e-05 8.8104977865309422e-04 0.0000000000000000e+00  -4.5954974582180529e-05 9.1256068377350470e-04 0.0000000000000000e+00  -4.6045803077233691e-05 9.4409766263389347e-04 0.0000000000000000e+00  -4.6118544263391416e-05 9.7566990971670916e-04 0.0000000000000000e+00  -4.6185262545121303e-05 1.0072585899818464e-03 0.0000000000000000e+00  -4.6234082799842949e-05 1.0388620132026625e-03 0.0000000000000000e+00  -4.6275179795018263e-05 1.0704802538045364e-03 0.0000000000000000e+00  -2.5117915486215946e-05 1.1021150214542788e-03 0.0000000000000000e+00  1.7228187656086022e-05 1.1021199544102717e-03 0.0000000000000000e+00  3.8411717871558803e-05 1.0704997231312931e-03 0.0000000000000000e+00  3.8421338366958676e-05 1.0388748516416257e-03 0.0000000000000000e+00  3.8431828289045111e-05 1.0072580760823557e-03 0.0000000000000000e+00  3.8434278053057580e-05 9.7565786900007936e-04 0.0000000000000000e+00  3.8438252386469946e-05 9.4407410150039190e-04 0.0000000000000000e+00  3.8436724527840971e-05 9.1252335345969450e-04 0.0000000000000000e+00  3.8414253373591234e-05 8.8100580165976290e-04 0.0000000000000000e+00  3.8398227742047281e-05 8.4953967385752117e-04 0.0000000000000000e+00  3.8342818704837878e-05 8.1813675055235433e-04 0.0000000000000000e+00  3.8300299792703096e-05 7.8681777515621784e-04 0.0000000000000000e+00  3.8199810144612824e-05 7.5559530973277303e-04 0.0000000000000000e+00  3.8119158931225804e-05 7.2449890192642402e-04 0.0000000000000000e+00  3.7958934948033718e-05 6.9354214300563002e-04 0.0000000000000000e+00  3.7828734074705411e-05 6.6276303300371166e-04 0.0000000000000000e+00  3.7594398845037671e-05 6.3217497348924158e-04 0.0000000000000000e+00  3.7403980481127746e-05 6.0182372178944150e-04 0.0000000000000000e+00  3.7082795919704494e-05 5.7172270184141581e-04 0.0000000000000000e+00  3.6821840580956368e-05 5.4192500356337265e-04 0.0000000000000000e+00  3.6400954484955771e-05 5.1244318117380329e-04 0.0000000000000000e+00  3.6059947947432629e-05 4.8333616010517213e-04 0.0000000000000000e+00  3.5524521152792505e-05 4.5461946730460540e-04 0.0000000000000000e+00  3.5089941151811475e-05 4.2635856297240616e-04 0.0000000000000000e+00  3.4441447696635099e-05 3.9857751337401209e-04 0.0000000000000000e+00  3.3876910970641619e-05 3.7127453193604274e-04 0.0000000000000000e+00  3.3266269350708820e-05 3.4462426156385057e-04 0.0000000000000000e+00  3.2460489314797351e-05 3.1845721789326232e-04 0.0000000000000000e+00  3.1701479006493602e-05 2.9302000736368546e-04 0.0000000000000000e+00  3.0795832350097408e-05 2.6823529115807662e-04 0.0000000000000000e+00  2.9907538729248386e-05 2.4423332518249541e-04 0.0000000000000000e+00  2.8875523617742221e-05 2.2099403104354303e-04 0.0000000000000000e+00  2.7860398612121664e-05 1.9859258340708250e-04 0.0000000000000000e+00  2.6596534630370002e-05 1.7717474512503133e-04 0.0000000000000000e+00  2.5494590110689233e-05 1.5654551630647586e-04 0.0000000000000000e+00  2.4338344559426438e-05 1.3708458826061819e-04 0.0000000000000000e+00  2.2872380740820809e-05 1.1845551764163164e-04 0.0000000000000000e+00  2.1492807580736168e-05 1.0107224731398323e-04 0.0000000000000000e+00  1.9914902356487843e-05 8.4807083083895168e-05 0.0000000000000000e+00  1.8384330724631121e-05 6.9766527485073235e-05 0.0000000000000000e+00  1.6512122392983949e-05 5.6147709355753346e-05 0.0000000000000000e+00  1.4881853757099892e-05 4.3665169020441736e-05 0.0000000000000000e+00  1.3191585843217777e-05 3.2845406109504764e-05 0.0000000000000000e+00  1.1062965731772153e-05 2.3220385673971622e-05 0.0000000000000000e+00  9.1105162494434482e-06 1.5302402958967152e-05 0.0000000000000000e+00  6.7800739713564410e-06 9.0359892260974368e-06 0.0000000000000000e+00  4.6866714276416818e-06 4.5031299302371219e-06 0.0000000000000000e+00  2.2045604692553077e-06 1.7351767497462445e-06 0.0000000000000000e+00  -1.1602883115786890e-07 1.9242755477553241e-06 0.0000000000000000e+00  -4.4489908054236051e-06 1.0545976014890192e-03 0.0000000000000000e+00  -4.7222723131005999e-06 9.9417773630310329e-04 0.0000000000000000e+00  -4.1993338687202535e-06 8.9561937231561525e-04 0.0000000000000000e+00  -2.5809692285939425e-07 1.0939309272867165e-05 0.0000000000000000e+00  -3.6150808150542786e-06 8.3381011806868421e-04 0.0000000000000000e+00  -2.7363739241524903e-07 2.6103209532022623e-05 0.0000000000000000e+00  -3.4792979434723548e-06 7.7116001272601144e-04 0.0000000000000000e+00  -4.6064846704697934e-07 6.2554043976101648e-05 0.0000000000000000e+00  -8.8840636878509923e-07 9.2083428500938758e-05 0.0000000000000000e+00  -3.3218669820581117e-06 7.0894751474041915e-04 0.0000000000000000e+00  -9.9052127958940373e-07 1.8812901532250665e-04 0.0000000000000000e+00  -2.9523937446544482e-06 5.8662238044207831e-04 0.0000000000000000e+00  -7.5121110807213477e-07 1.2546386155638778e-04 0.0000000000000000e+00  -1.5768926743355555e-06 2.3204643228120724e-04 0.0000000000000000e+00  -2.7479403634936508e-06 5.2698307113178261e-04 0.0000000000000000e+00  -3.1450958206607177e-06 6.4736101063890734e-04 0.0000000000000000e+00  -1.7852454933960748e-06 2.8012810146533612e-04 0.0000000000000000e+00  -2.5336904094627847e-06 4.6872192308370828e-04 0.0000000000000000e+00  -1.5319514694250529e-06 3.2898400587970600e-04 0.0000000000000000e+00  -2.7964030512784822e-06 4.1328989575193417e-04 0.0000000000000000e+00  -2.1374707571643354e-06 3.6886064722922122e-04 0.0000000000000000e+00  -1.2644188738197696e-06 1.5437573979375466e-04 0.0000000000000000e+00  -3.7200996823898318e-06 9.4683277635318561e-04 0.0000000000000000e+00  -5.4934028880321657e-07 4.2100409218536952e-05 0.0000000000000000e+00  1.0271167955320506e-05 1.0241692306403277e-03 0.0000000000000000e+00  1.9612896695373364e-06 5.6505292535592718e-06 0.0000000000000000e+00  8.6277887147738562e-06 8.0243871910137029e-04 0.0000000000000000e+00  8.5639056116885747e-06 8.6524855355840722e-04 0.0000000000000000e+00  -4.0057179392901355e-06 1.8232732079857263e-05 0.0000000000000000e+00  -6.6078521449451862e-06 7.6536919500876726e-05 0.0000000000000000e+00  8.7407235733140255e-06 6.1687495402729011e-04 0.0000000000000000e+00  8.6841029298316757e-06 7.3998696814756557e-04 0.0000000000000000e+00  -1.0158356216211367e-05 2.0929798405181776e-04 0.0000000000000000e+00  8.7220763499203254e-06 5.5665749331625482e-04 0.0000000000000000e+00  -7.6909638690935614e-06 1.0907942949695584e-04 0.0000000000000000e+00  -1.0986102890571645e-05 2.5579514145115934e-04 0.0000000000000000e+00  8.6599590819605271e-06 4.9767594673127155e-04 0.0000000000000000e+00  8.7248966143961352e-06 6.7806368516648433e-04 0.0000000000000000e+00  -1.3917234017649194e-05 3.0508629369377767e-04 0.0000000000000000e+00  8.5531162208727517e-06 4.4022141615558501e-04 0.0000000000000000e+00  -4.3599747423131478e-07 4.2603272856744236e-07 0.0000000000000000e+00  3.1861933796299769e-07 3.5073634868473467e-07 0.0000000000000000e+00  -1.4217790498972209e-05 1.0794707320044682e-03 0.0000000000000000e+00  -2.5560629869457620e-06 5.7190131959174759e-06 0.0000000000000000e+00  1.0901931480410455e-05 3.9074666056432479e-04 0.0000000000000000