<?xml version="1.0"?>
<VTKFile type="UnstructuredGrid"  version="0.1"  >
<UnstructuredGrid>
<Piece  NumberOfPoints="1419" NumberOfCells="2698">
<Points>
<DataArray  type="Float64"  NumberOfComponents="3"  format="ascii">0 0 0  0 0.41 0  2.5 0 0  2.5 0.41 0  0.6 0.19 0  0.6 0.21 0  0.25 0.2 0  0.15 0.2 0  0.2489897948556636 0.21 0  0.2489897948556636 0.19 0  0.6 0.2 0  0 0.3807142857143437 0  0 0.3514285714286952 0  0 0.3221428571430699 0  0 0.29285714285744 0  0 0.2635714285718054 0  0 0.2342857142861561 0  0 0.2050000000005308 0  0 0.175714285714732 0  0 0.1464285714289574 0  0 0.1171428571431897 0  0 0.08785714285737878 0  0 0.05857142857161107 0  0 0.02928571428580012 0  0.03015443760436003 0 0  0.06140001986583606 0 0  0.09377624077125973 0 0  0.1273239957535082 0 0  0.1620856860351972 0 0  0.1981052433264291 0 0  0.235428184091502 0 0  0.2741016576309132 0 0  0.3141745521465447 0 0  0.3556974926295285 0 0  0.3987229542472677 0 0  0.4433053055141081 0 0  0.4895008759286886 0 0  0.5373680609405097 0 0  0.5869673343216626 0 0  0.6383613676634521 0 0  0.6916151138468254 0 0  0.7467958595648856 0 0  0.8039733463919316 0 0  0.8632198139502143 0 0  0.9246101326867038 0 0  0.9882218810934433 0 0  1.054135445558498 0 0  1.122434100542598 0 0  1.193204177141305 0 0  1.266535089879536 0 0  1.342519516046404 0 0  1.421253448503939 0 0  1.502836389106271 0 0  1.587371439758838 0 0  1.674965418777374 0 0  1.765729001825544 0 0  1.859776908880082 0 0  1.957227977487062 0 0  2.058205329869943 0 0  2.162836591189951 0 0  2.271253957290865 0 0  2.383594446803425 0 0  2.5 0.1024999999997612 0  2.5 0.2049999999994743 0  2.5 0.3074999999997183 0  2.383594446803656 0.41 0  2.271253957291315 0.41 0  2.162836591190598 0.41 0  2.058205329870775 0.41 0  1.957227977488067 0.41 0  1.859776908881246 0.41 0  1.765729001826854 0.41 0  1.674965418778818 0.41 0  1.58737143976041 0.41 0  1.502836389107956 0.41 0  1.421253448505726 0.41 0  1.342519516048286 0.41 0  1.266535089881505 0.41 0  1.193204177143353 0.41 0  1.122434100544716 0.41 0  1.05413544556068 0.41 0  0.9882218810956305 0.41 0  0.9246101326886647 0.41 0  0.8632198139519631 0.41 0  0.8039733463934788 0.41 0  0.7467958595662458 0.41 0  0.6916151138480078 0.41 0  0.6383613676644679 0.41 0  0.5869673343225223 0.41 0  0.5373680609412221 0.41 0  0.4895008759292634 0.41 0  0.4433053055145528 0.41 0  0.3987229542475914 0.41 0  0.3556974926297398 0.41 0  0.3141745521466497 0.41 0  0.2741016576310038 0.41 0  0.2354281840915826 0.41 0  0.1981052433265003 0.41 0  0.1620856860352591 0.41 0  0.1273239957535623 0.41 0  0.09377624077128965 0.41 0  0.06140001986584975 0.41 0  0.03015443760436654 0.41 0  0.2497468076502589 0.2050254481002335 0  0.2497468076502614 0.1949745518997913 0  0.2469965252529372 0.1829317073451959 0  0.2439893735792749 0.1762316384219906 0  0.2400332147834255 0.1700443375285386 0  0.2352133972704371 0.1645032867342007 0  0.2296339016332438 0.1597280261969788 0  0.2234150974217223 0.1558215752574715 0  0.2166911463437691 0.1528682099456123 0  0.2096071079204251 0.1509316448471593 0  0.2023158100364996 0.1500536585536553 0  0.194974551899914 0.1502531923497262 0  0.1877417105387872 0.1515259415822739 0  0.1807733240461124 0.153844448527136 0  0.1742197252835808 0.15715869474974 0  0.1682222986673531 0.1613971801805478 0  0.162910430003803 0.1664684656256651 0  0.1583987151779087 0.1722631454351573 0  0.1547844879126891 0.178656207771761 0  0.1521457199348551 0.1855097315605723 0  0.1505393388476355 0.1926758619366523 0  0.1505393388476328 0.2073241380633295 0  0.1521457199348437 0.2144902684393899 0  0.1547844879126531 0.221343792228163 0  0.1583987151778488 0.2277368545647528 0  0.1629104300036858 0.2335315343742052 0  0.1682222986671726 0.2386028198193036 0  0.1742197252833576 0.2428413052501257 0  0.1807733240458683 0.2461555514727623 0  0.1877417105384929 0.2484740584176516 0  0.1949745518995776 0.2497468076502398 0  0.202315810036185 0.2499463414463592 0  0.2096071079201568 0.2490683551528932 0  0.2166911463435495 0.2471317900544655 0  0.2234150974215506 0.2441784247426195 0  0.2296339016331197 0.2402719738031125 0  0.2352133972703547 0.2354967132658811 0  0.2400332147833751 0.2299556624715287 0  0.2439893735792577 0.2237683615780412 0  0.246996525252926 0.2170682926548348 0  0.25645809709277 0.21 0  0.2639263993298655 0.21 0  0.271394701566961 0.21 0  0.2788630038040554 0.21 0  0.2863313060411479 0.21 0  0.2937996082782405 0.21 0  0.301267910515333 0.21 0  0.3087362127524279 0.21 0  0.3162045149895234 0.21 0  0.3236728172265972 0.21 0  0.3311411194636928 0.21 0  0.3386094217007701 0.21 0  0.3460777239378666 0.21 0  0.3535460261749672 0.21 0  0.3610143284120516 0.21 0  0.3684826306491596 0.21 0  0.3759509328862226 0.21 0  0.383419235123329 0.21 0  0.3908875373604028 0.21 0  0.3983558395975142 0.21 0  0.4058241418345938 0.21 0  0.4132924440716992 0.21 0  0.4207607463087888 0.21 0  0.4282290485459029 0.21 0  0.4356973507830418 0.21 0  0.4431656530201649 0.21 0  0.4506339552573136 0.21 0  0.4581022574944306 0.21 0  0.4655705597315852 0.21 0  0.4730388619686996 0.21 0  0.480507164205851 0.21 0  0.4879754664429498 0.21 0  0.4954437686800938 0.21 0  0.502912070917267 0.21 0  0.5103803731544119 0.21 0  0.5178486753915261 0.21 0  0.5253169776286404 0.21 0  0.5327852798657868 0.21 0  0.5402535821029386 0.21 0  0.54772188434007 0.21 0  0.5551901865771842 0.21 0  0.5626584888143201 0.21 0  0.5701267910514778 0.21 0  0.5775950932886138 0.21 0  0.5850633955257281 0.21 0  0.5925316977628483 0.21 0  0.6 0.2050000000000054 0  0.6 0.1950000000000217 0  0.5925316977628897 0.19 0  0.5850633955257988 0.19 0  0.5775950932887378 0.19 0  0.5701267910515998 0.19 0  0.5626584888145268 0.19 0  0.5551901865773963 0.19 0  0.547721884340339 0.19 0  0.5402535821032429 0.19 0  0.5327852798661811 0.19 0  0.5253169776290537 0.19 0  0.5178486753919799 0.19 0  0.5103803731549078 0.19 0  0.502912070917822 0.19 0  0.4954437686807294 0.19 0  0.4879754664436223 0.19 0  0.4805071642065402 0.19 0  0.4730388619694271 0.19 0  0.4655705597323621 0.19 0  0.4581022574952563 0.19 0  0.4506339552581777 0.19 0  0.4431656530210671 0.19 0  0.4356973507839815 0.19 0  0.4282290485468779 0.19 0  0.4207607463097617 0.19 0  0.4132924440726327 0.19 0  0.4058241418354857 0.19 0  0.3983558395983636 0.19 0  0.3908875373612097 0.19 0  0.3834192351240934 0.19 0  0.3759509328869369 0.19 0  0.3684826306498175 0.19 0  0.361014328412667 0.19 0  0.3535460261755617 0.19 0  0.3460777239384295 0.19 0  0.3386094217012945 0.19 0  0.3311411194641595 0.19 0  0.3236728172270245 0.19 0  0.3162045149898895 0.19 0  0.3087362127527544 0.19 0  0.3012679105156187 0.19 0  0.2937996082784807 0.19 0  0.2863313060413428 0.19 0  0.2788630038042048 0.19 0  0.2713947015670686 0.19 0  0.2639263993299336 0.19 0  0.2564580970927985 0.19 0  0.2607803159922026 0.2000727136295815 0  0.5887803774232762 0.2001272386983733 0  0.5745072403740523 0.2002044435018727 0  0.5511891430099709 0.2001122610077113 0  0.2751288526855082 0.20000000000002 0  0.5365194309847112 0.1999999999999436 0  0.2894621222999649 0.1998691686390484 0  0.5215828265105155 0.1999999999999228 0  0.3127789816668748 0.1998657885438805 0  0.3274069683451451 0.2000000000000796 0  0.5066462220363641 0.199999999999908 0  0.3650630746574081 0.199866017807523 0  0.476773013087985 0.1999999999998713 0  0.3417402379596385 0.1998691686391011 0  0.3796850840047755 0.200000000000134 0  0.4618364086138087 0.1999999999998546 0  0.4917096175621762 0.1999999999998808 0  0.3946216884789568 0.2000000000001512 0  0.446899804139621 0.1999999999998389 0  0.4089549580935208 0.1998691686391595 0  0.4322718174608562 0.200127451265745 0  0.4201487168029707 0.1999966199048527 0  0.3528922713220932 0.2000185703532356 0  0.5633122436674589 0.1999814296467508 0  0.3006558810093873 0.1999966199048318 0  0.5815926498168407 0.1966545283159175 0  0.2677053789419034 0.1964246479135325 0  0.5290511287476175 0.1970915826863981 0  0.5439877332217911 0.197091582686394 0  0.2825131256993216 0.2035478995978015 0  0.3199386661080599 0.202908417313604 0  0.4842413153250809 0.1970915826863873 0  0.5141145242734466 0.1970915826863843 0  0.3722167817676917 0.2029084173136195 0  0.4693047108508938 0.1970915826863783 0  0.3348752705822316 0.202908417313609 0  0.3871533862418661 0.2029084173136212 0  0.4543681063767183 0.1970915826863795 0  0.4991779197992749 0.1970915826863902 0  0.4020059614928624 0.203547899597858 0  0.4394315019025246 0.1970915826863714 0  0.2550657455369551 0.2034088125358657 0  0.2548908499171161 0.1966940311614271 0  0.5946539510196798 0.2024302972968126 0  0.267698176732111 0.2039977513680092 0  0.4261685417851465 0.196409292431739 0  0.3590076176283495 0.196411355804271 0  0.5571672426447437 0.2036011176410121 0  0.3066757059912147 0.1964092924317024 0  0.594380730180568 0.1966558399668133 0  0.4842413153245942 0.2040749161535287 0  0.4693047108503577 0.2040749161535231 0  0.3871533862424271 0.1959250838464788 0  0.372246743208829 0.1959123236376545 0  0.5141145242731028 0.2040749161535395 0  0.4543681063761134 0.2040749161535186 0  0.4019979587101454 0.1959834479682427 0  0.4394608940728603 0.2040870543693135 0  0.5439623148931173 0.2040856076781014 0  0.5290511287473298 0.2040749161535501 0  0.4991779197988497 0.2040749161535382 0  0.3347912413592433 0.1959225448935183 0  0.3199680582793816 0.1959123018030061 0  0.2825051229162361 0.1959834479681729 0  0.3590471196690275 0.2036304442587945 0  0.5571594006495384 0.1963685282145804 0  0.3067669986803285 0.203627750582736 0  0.4262598344738712 0.2036568242185335 0  0.5814408164431408 0.2041285596160068 0  0.5688286748170428 0.1961819304477386 0  0.4145905603063645 0.2038180695522843 0  0.3473758401724931 0.2038180695522752 0  0.2950977245128307 0.2038180695522663 0  0.5688286748170693 0.203818069552238 0  0.2950977245127906 0.1961819304477774 0  0.3473758401723931 0.1961819304478349 0  0.4145905603061963 0.1961819304479011 0  0.2601812407614425 0.2056861609747042
[...]
<PointData  Vectors="f_46-0"> 
<DataArray  type="Float64"  Name="f_46-0"  NumberOfComponents="3" format="ascii">0.0000000000000000e+00 0.0000000000000000e+00 0.0000000000000000e+00  0.0000000000000000e+00 0.0000000000000000e+00 0.0000000000000000e+00  0.0000000000000000e+00 0.0000000000000000e+00 0.0000000000000000e+00  0.0000000000000000e+00 0.0000000000000000e+00 0.0000000000000000e+00  3.7167240709266116e-05 1.0708074884759606e-03 0.0000000000000000e+00  -4.4338400609797737e-05 1.0707548268645460e-03 0.0000000000000000e+00  0.0000000000000000e+00 0.0000000000000000e+00 0.0000000000000000e+00  0.0000000000000000e+00 0.0000000000000000e+00 0.0000000000000000e+00  0.0000000000000000e+00 0.0000000000000000e+00 0.0000000000000000e+00  0.0000000000000000e+00 0.0000000000000000e+00 0.0000000000000000e+00  -3.5584276344008009e-06 1.0707688778304075e-03 0.0000000000000000e+00  7.9591836734548407e-02 0.0000000000000000e+00 0.0000000000000000e+00  1.4693877550994527e-01 0.0000000000000000e+00 0.0000000000000000e+00  2.0204081632617479e-01 0.0000000000000000e+00 0.0000000000000000e+00  2.4489795918330073e-01 0.0000000000000000e+00 0.0000000000000000e+00  2.7551020408131754e-01 0.0000000000000000e+00 0.0000000000000000e+00  2.9387755102022350e-01 0.0000000000000000e+00 0.0000000000000000e+00  3.0000000000000004e-01 0.0000000000000000e+00 0.0000000000000000e+00  2.9387755102059482e-01 0.0000000000000000e+00 0.0000000000000000e+00  2.7551020408195548e-01 0.0000000000000000e+00 0.0000000000000000e+00  2.4489795918409071e-01 0.0000000000000000e+00 0.0000000000000000e+00  2.0204081632692525e-01 0.0000000000000000e+00 0.0000000000000000e+00  1.4693877551058568e-01 0.0000000000000000e+00 0.0000000000000000e+00  7.9591836734909216e-02 0.0000000000000000e+00 0.0000000000000000e+00  0.0000000000000000e+00 0.0000000000000000e+00 0.0000000000000000e+00  0.0000000000000000e+00 0.0000000000000000e+00 0.0000000000000000e+00  0.0000000000000000e+00 0.0000000000000000e+00 0.0000000000000000e+00  0.0000000000000000e+00 0.0000000000000000e+00 0.0000000000000000e+00  0.0000000000000000e+00 0.0000000000000000e+00 0.0000000000000000e+00  0.0000000000000000e+00 0.0000000000000000e+00 0.0000000000000000e+00  0.0000000000000000e+00 0.0000000000000000e+00 0.0000000000000000e+00  0.0000000000000000e+00 0.0000000000000000e+00 0.0000000000000000e+00  0.0000000000000000e+00 0.0000000000000000e+00 0.0000000000000000e+00  0.0000000000000000e+00 0.0000000000000000e+00 0.0000000000000000e+00  0.0000000000000000e+00 0.0000000000000000e+00 0.0000000000000000e+00  0.0000000000000000e+00 0.0000000000000000e+00 0.0000000000000000e+00  0.0000000000000000e+00 0.0000000000000000e+00 0.0000000000000000e+00  0.0000000000000000e+00 0.0000000000000000e+00 0.0000000000000000e+00  0.0000000000000000e+00 0.0000000000000000e+00 0.0000000000000000e+00  0.0000000000000000e+00 0.0000000000000000e+00 0.0000000000000000e+00  0.0000000000000000e+00 0.0000000000000000e+00 0.0000000000000000e+00  0.0000000000000000e+00 0.0000000000000000e+00 0.0000000000000000e+00  0.0000000000000000e+00 0.0000000000000000e+00 0.0000000000000000e+00  0.0000000000000000e+00 0.0000000000000000e+00 0.0000000000000000e+00  0.0000000000000000e+00 0.0000000000000000e+00 0.0000000000000000e+00  0.0000000000000000e+00 0.0000000000000000e+00 0.0000000000000000e+00  0.0000000000000000e+00 0.0000000000000000e+00 0.0000000000000000e+00  0.0000000000000000e+00 0.0000000000000000e+00 0.0000000000000000e+00  0.0000000000000000e+00 0.0000000000000000e+00 0.0000000000000000e+00  0.0000000000000000e+00 0.0000000000000000e+00 0.0000000000000000e+00  0.0000000000000000e+00 0.0000000000000000e+00 0.0000000000000000e+00  0.0000000000000000e+00 0.0000000000000000e+00 0.0000000000000000e+00  0.0000000000000000e+00 0.0000000000000000e+00 0.0000000000000000e+00  0.0000000000000000e+00 0.0000000000000000e+00 0.0000000000000000e+00  0.0000000000000000e+00 0.0000000000000000e+00 0.0000000000000000e+00  0.0000000000000000e+00 0.0000000000000000e+00 0.0000000000000000e+00  0.0000000000000000e+00 0.0000000000000000e+00 0.0000000000000000e+00  0.0000000000000000e+00 0.0000000000000000e+00 0.0000000000000000e+00  0.0000000000000000e+00 0.0000000000000000e+00 0.0000000000000000e+00  0.0000000000000000e+00 0.0000000000000000e+00 0.0000000000000000e+00  0.0000000000000000e+00 0.0000000000000000e+00 0.0000000000000000e+00  0.0000000000000000e+00 0.0000000000000000e+00 0.0000000000000000e+00  2.4721414954841028e-01 1.2702609699447936e-03 0.0000000000000000e+00  3.0782932154844983e-01 4.2086966196793396e-03 0.0000000000000000e+00  2.4088605981860398e-01 -5.8391136703333955e-03 0.0000000000000000e+00  0.0000000000000000e+00 0.0000000000000000e+00 0.0000000000000000e+00  0.0000000000000000e+00 0.0000000000000000e+00 0.0000000000000000e+00  0.0000000000000000e+00 0.0000000000000000e+00 0.0000000000000000e+00  0.0000000000000000e+00 0.0000000000000000e+00 0.0000000000000000e+00  0.0000000000000000e+00 0.0000000000000000e+00 0.0000000000000000e+00  0.0000000000000000e+00 0.0000000000000000e+00 0.0000000000000000e+00  0.0000000000000000e+00 0.0000000000000000e+00 0.0000000000000000e+00  0.0000000000000000e+00 0.0000000000000000e+00 0.0000000000000000e+00  0.0000000000000000e+00 0.0000000000000000e+00 0.0000000000000000e+00  0.0000000000000000e+00 0.0000000000000000e+00 0.0000000000000000e+00  0.0000000000000000e+00 0.0000000000000000e+00 0.0000000000000000e+00  0.0000000000000000e+00 0.0000000000000000e+00 0.0000000000000000e+00  0.0000000000000000e+00 0.0000000000000000e+00 0.0000000000000000e+00  0.0000000000000000e+00 0.0000000000000000e+00 0.0000000000000000e+00  0.0000000000000000e+00 0.0000000000000000e+00 0.0000000000000000e+00  0.0000000000000000e+00 0.0000000000000000e+00 0.0000000000000000e+00  0.0000000000000000e+00 0.0000000000000000e+00 0.0000000000000000e+00  0.0000000000000000e+00 0.0000000000000000e+00 0.0000000000000000e+00  0.0000000000000000e+00 0.0000000000000000e+00 0.0000000000000000e+00  0.0000000000000000e+00 0.0000000000000000e+00 0.0000000000000000e+00  0.0000000000000000e+00 0.0000000000000000e+00 0.0000000000000000e+00  0.0000000000000000e+00 0.0000000000000000e+00 0.0000000000000000e+00  0.0000000000000000e+00 0.0000000000000000e+00 0.0000000000000000e+00  0.0000000000000000e+00 0.0000000000000000e+00 0.0000000000000000e+00  0.0000000000000000e+00 0.0000000000000000e+00 0.0000000000000000e+00  0.0000000000000000e+00 0.0000000000000000e+00 0.0000000000000000e+00  0.0000000000000000e+00 0.0000000000000000e+00 0.0000000000000000e+00  0.0000000000000000e+00 0.0000000000000000e+00 0.0000000000000000e+00  0.0000000000000000e+00 0.0000000000000000e+00 0.0000000000000000e+00  0.0000000000000000e+00 0.0000000000000000e+00 0.0000000000000000e+00  0.0000000000000000e+00 0.0000000000000000e+00 0.0000000000000000e+00  0.0000000000000000e+00 0.0000000000000000e+00 0.0000000000000000e+00  0.0000000000000000e+00 0.0000000000000000e+00 0.0000000000000000e+00  0.0000000000000000e+00 0.0000000000000000e+00 0.0000000000000000e+00  0.0000000000000000e+00 0.0000000000000000e+00 0.0000000000000000e+00  0.0000000000000000e+00 0.0000000000000000e+00 0.0000000000000000e+00  0.0000000000000000e+00 0.0000000000000000e+00 0.0000000000000000e+00  0.0000000000000000e+00 0.0000000000000000e+00 0.0000000000000000e+00  0.0000000000000000e+00 0.0000000000000000e+00 0.0000000000000000e+00  0.0000000000000000e+00 0.0000000000000000e+00 0.0000000000000000e+00  -1.7050336929759584e-13 0.0000000000000000e+00 0.0000000000000000e+00  0.0000000000000000e+00 0.0000000000000000e+00 0.0000000000000000e+00  0.0000000000000000e+00 0.0000000000000000e+00 0.0000000000000000e+00  0.0000000000000000e+00 0.0000000000000000e+00 0.0000000000000000e+00  0.0000000000000000e+00 0.0000000000000000e+00 0.0000000000000000e+00  0.0000000000000000e+00 0.0000000000000000e+00 0.0000000000000000e+00  0.0000000000000000e+00 0.0000000000000000e+00 0.0000000000000000e+00  0.0000000000000000e+00 0.0000000000000000e+00 0.0000000000000000e+00  0.0000000000000000e+00 0.0000000000000000e+00 0.0000000000000000e+00  0.0000000000000000e+00 0.0000000000000000e+00 0.0000000000000000e+00  0.0000000000000000e+00 0.0000000000000000e+00 0.0000000000000000e+00  0.0000000000000000e+00 0.0000000000000000e+00 0.0000000000000000e+00  0.0000000000000000e+00 0.0000000000000000e+00 0.0000000000000000e+00  0.0000000000000000e+00 0.0000000000000000e+00 0.0000000000000000e+00  0.0000000000000000e+00 0.0000000000000000e+00 0.0000000000000000e+00  0.0000000000000000e+00 0.0000000000000000e+00 0.0000000000000000e+00  0.0000000000000000e+00 0.0000000000000000e+00 0.0000000000000000e+00  0.0000000000000000e+00 0.0000000000000000e+00 0.0000000000000000e+00  0.0000000000000000e+00 0.0000000000000000e+00 0.0000000000000000e+00  0.0000000000000000e+00 0.0000000000000000e+00 0.0000000000000000e+00  0.0000000000000000e+00 0.0000000000000000e+00 0.0000000000000000e+00  0.0000000000000000e+00 0.0000000000000000e+00 0.0000000000000000e+00  0.0000000000000000e+00 0.0000000000000000e+00 0.0000000000000000e+00  0.0000000000000000e+00 0.0000000000000000e+00 0.0000000000000000e+00  0.0000000000000000e+00 0.0000000000000000e+00 0.0000000000000000e+00  0.0000000000000000e+00 0.0000000000000000e+00 0.0000000000000000e+00  0.0000000000000000e+00 0.0000000000000000e+00 0.0000000000000000e+00  0.0000000000000000e+00 0.0000000000000000e+00 0.0000000000000000e+00  0.0000000000000000e+00 0.0000000000000000e+00 0.0000000000000000e+00  0.0000000000000000e+00 0.0000000000000000e+00 0.0000000000000000e+00  0.0000000000000000e+00 0.0000000000000000e+00 0.0000000000000000e+00  0.0000000000000000e+00 0.0000000000000000e+00 0.0000000000000000e+00  0.0000000000000000e+00 0.0000000000000000e+00 0.0000000000000000e+00  0.0000000000000000e+00 0.0000000000000000e+00 0.0000000000000000e+00  0.0000000000000000e+00 0.0000000000000000e+00 0.0000000000000000e+00  0.0000000000000000e+00 0.0000000000000000e+00 0.0000000000000000e+00  0.0000000000000000e+00 0.0000000000000000e+00 0.0000000000000000e+00  0.0000000000000000e+00 0.0000000000000000e+00 0.0000000000000000e+00  -2.3283659577919950e-06 1.9077391587255086e-06 0.0000000000000000e+00  -4.9521611144149885e-06 4.6974710761980524e-06 0.0000000000000000e+00  -7.2384294566013885e-06 9.2512845245124355e-06 0.0000000000000000e+00  -9.6991552289183015e-06 1.5659501440150362e-05 0.0000000000000000e+00  -1.1728003770685214e-05 2.3603135598598326e-05 0.0000000000000000e+00  -1.4027173189854102e-05 3.3221018510587471e-05 0.0000000000000000e+00  -1.5851867474457648e-05 4.4071268684244984e-05 0.0000000000000000e+00  -1.7610013879867252e-05 5.6536366608010133e-05 0.0000000000000000e+00  -1.9629550526957779e-05 7.0216232108135128e-05 0.0000000000000000e+00  -2.1144539853897679e-05 8.5158394158303110e-05 0.0000000000000000e+00  -2.2999085122277694e-05 1.0133248787536389e-04 0.0000000000000000e+00  -2.4368799704602375e-05 1.1863784330666476e-04 0.0000000000000000e+00  -2.5991018668692107e-05 1.3703052334833169e-04 0.0000000000000000e+00  -2.7260931297495677e-05 1.5630091155419514e-04 0.0000000000000000e+00  -2.8481284679856457e-05 1.7665455720197653e-04 0.0000000000000000e+00  -2.9865192090586072e-05 1.9781858927394132e-04 0.0000000000000000e+00  -3.0901650339803102e-05 2.1982033655076666e-04 0.0000000000000000e+00  -3.2143778782473507e-05 2.4262989915997153e-04 0.0000000000000000e+00  -3.3057448521852199e-05 2.6616568272895200e-04 0.0000000000000000e+00  -3.4133698212960437e-05 2.9037411057969702e-04 0.0000000000000000e+00  -3.4978491265613668e-05 3.1523719133545465e-04 0.0000000000000000e+00  -3.5907940613622073e-05 3.4072150755476768e-04 0.0000000000000000e+00  -3.6642736245722888e-05 3.6666306380036764e-04 0.0000000000000000e+00  -3.7337736740630605e-05 3.9319314057278493e-04 0.0000000000000000e+00  -3.8094989048492531e-05 4.2011604966562627e-04 0.0000000000000000e+00  -3.8716053135593466e-05 4.4750536255164724e-04 0.0000000000000000e+00  -3.9330028017727743e-05 4.7528857561961066e-04 0.0000000000000000e+00  -3.9864090424871655e-05 5.0340901704765909e-04 0.0000000000000000e+00  -4.0386096491442016e-05 5.3186795753440257e-04 0.0000000000000000e+00  -4.0839112389093562e-05 5.6059883598620261e-04 0.0000000000000000e+00  -4.1277792792865479e-05 5.8960575919662114e-04 0.0000000000000000e+00  -4.1656661413468708e-05 6.1882721589997288e-04 0.0000000000000000e+00  -4.2019636977400600e-05 6.4826761558485534e-04 0.0000000000000000e+00  -4.2332009561532048e-05 6.7787199213258467e-04 0.0000000000000000e+00  -4.2627346959604151e-05 7.0764510810374592e-04 0.0000000000000000e+00  -4.2879712307390772e-05 7.3753799570085155e-04 0.0000000000000000e+00  -4.3115272919241212e-05 7.6755614804051395e-04 0.0000000000000000e+00  -4.3315461129354327e-05 7.9765727095501343e-04 0.0000000000000000e+00  -4.3499830129338314e-05 8.2784713994563054e-04 0.0000000000000000e+00  -4.3655372259183272e-05 8.5808954735354663e-04 0.0000000000000000e+00  -4.3798009716897829e-05 8.8839398815055391e-04 0.0000000000000000e+00  -4.3915535666548670e-05 9.1872637266496261e-04 0.0000000000000000e+00  -4.4016968731356634e-05 9.4909556490479412e-04 0.0000000000000000e+00  -4.4113768423892418e-05 9.7948236030834506e-04 0.0000000000000000e+00  -4.4192491930026675e-05 1.0098854299643862e-03 0.0000000000000000e+00  -4.4265123839137442e-05 1.0403054250869538e-03 0.0000000000000000e+00  -2.3934321618214941e-05 1.0707578393362796e-03 0.0000000000000000e+00  1.6807334891433805e-05 1.0707844461540555e-03 0.0000000000000000e+00  3.7211290374900808e-05 1.0403777789901082e-03 0.0000000000000000e+00  3.7247909405935760e-05 1.0099514252534434e-03 0.0000000000000000e+00  3.7284178139699000e-05 9.7953512962331156e-04 0.0000000000000000e+00  3.7311497804226499e-05 9.4913808050639602e-04 0.0000000000000000e+00  3.7339992945571031e-05 9.1875982987960102e-04 0.0000000000000000e+00  3.7362018509870637e-05 8.8841745993978240e-04 0.0000000000000000e+00  3.7362863839079403e-05 8.5811018796567474e-04 0.0000000000000000e+00  3.7368892457021348e-05 8.2785584199590882e-04 0.0000000000000000e+00  3.7336514085926176e-05 7.9766345892094356e-04 0.0000000000000000e+00  3.7315526746158706e-05 7.6755355420661791e-04 0.0000000000000000e+00  3.7239742256137590e-05 7.3753440193259807e-04 0.0000000000000000e+00  3.7181214682478936e-05 7.0763425808603589e-04 0.0000000000000000e+00  3.7049026500775008e-05 6.7786144509344060e-04 0.0000000000000000e+00  3.6943163624775853e-05 6.4825148208727534e-04 0.0000000000000000e+00  3.6742601124812831e-05 6.1881245524343577e-04 0.0000000000000000e+00  3.6580234196544968e-05 5.8958658526127273e-04 0.0000000000000000e+00  3.6299876944620605e-05 5.6058197078210389e-04 0.0000000000000000e+00  3.6071729446012708e-05 5.3184747579096631e-04 0.0000000000000000e+00  3.5699721369935491e-05 5.0339094039390927e-04 0.0000000000000000e+00  3.5396853023735982e-05 4.7526693412828006e-04 0.0000000000000000e+00  3.4918540799475670e-05 4.4748681061265358e-04 0.0000000000000000e+00  3.4527452468174469e-05 4.2011203660537871e-04 0.0000000000000000e+00  3.3941394234098064e-05 3.9316303622001741e-04 0.0000000000000000e+00  3.3427435115787378e-05 3.6664112507393137e-04 0.0000000000000000e+00  3.2867942744247375e-05 3.4070543483509606e-04 0.0000000000000000e+00  3.2127921160715332e-05 3.1520464968004205e-04 0.0000000000000000e+00  3.1424493542503113e-05 2.9036745086537496e-04 0.0000000000000000e+00  3.0581160145331855e-05 2.6612434255601590e-04 0.0000000000000000e+00  2.9747527979505302e-05 2.4260294649262911e-04 0.0000000000000000e+00  2.8774012384026041e-05 2.1978504616957140e-04 0.0000000000000000e+00  2.7809367937640798e-05 1.9774950685989425e-04 0.0000000000000000e+00  2.6602138115207426e-05 1.7663553660957426e-04 0.0000000000000000e+00  2.5541072453558813e-05 1.5626665046054357e-04 0.0000000000000000e+00  2.4420563688556759e-05 1.3700787203516725e-04 0.0000000000000000e+00  2.2996875178619972e-05 1.1854273150750721e-04 0.0000000000000000e+00  2.1646042273123498e-05 1.0127652494675528e-04 0.0000000000000000e+00  2.0094589358618787e-05 8.5088579320334118e-05 0.0000000000000000e+00  1.8580048248751909e-05 7.0093439776165145e-05 0.0000000000000000e+00  1.6720742341637701e-05 5.6485960077386385e-05 0.0000000000000000e+00  1.5090982748032727e-05 4.3995378895410938e-05 0.0000000000000000e+00  1.3393166621823356e-05 3.3144927744039415e-05 0.0000000000000000e+00  1.1253320276776392e-05 2.3477040738154470e-05 0.0000000000000000e+00  9.2781820158508252e-06 1.5508434935698884e-05 0.0000000000000000e+00  6.9167107292952008e-06 9.1867205918347047e-06 0.0000000000000000e+00  4.7848296918729612e-06 4.6052047323967843e-06 0.0000000000000000e+00  2.2554144446068342e-06 1.7946706320866624e-06 0.0000000000000000e+00  -8.0282849800951456e-08 1.9667009202176689e-06 0.0000000000000000e+00  -4.0057246651276983e-06 1.0250495414089228e-03 0.0000000000000000e+00  -4.2157587062190083e-06 9.6692331385165979e-04 0.0000000000000000e+00  -3.6285081658365331e-06 8.7212988103228307e-04 0.0000000000000000e+00  -1.6086155054723978e-07 1.1084566911076906e-05 0.0000000000000000e+00  -3.0216492182102573e-06 8.1269733673031499e-04 0.0000000000000000e+00  -1.2008747311282739e-07 2.6353661860931699e-05 0.0000000000000000e+00  -2.8543677070209437e-06 7.5246137769552444e-04 0.0000000000000000e+00  -2.2403889269014076e-07 6.2872069256250058e-05 0.0000000000000000e+00  -6.0257867101198084e-07 9.2315884759776496e-05 0.0000000000000000e+00  -2.6774211690087431e-06 6.9263792257224393e-04 0.0000000000000000e+00  -5.9685500055091010e-07 1.8742122672284469e-04 0.0000000000000000e+00  -2.3060362393545899e-06 5.7489994299854841e-04 0.0000000000000000e+00  -4.2335626857904704e-07 1.2547692077612721e-04 0.0000000000000000e+00  -1.1359825462739574e-06 2.3062067804573293e-04 0.0000000000000000e+00  -2.1172812505724113e-06 5.1738864447207513e-04 0.0000000000000000e+00  -2.4936788329707335e-06 6.3338798731633471e-04 0.0000000000000000e+00  -1.3034030107485243e-06 2.7773844423994087e-04 0.0000000000000000e+00  -1.9276295185017858e-06 4.6109618592075419e-04 0.0000000000000000e+00  -1.0239817656152643e-06 3.2544270380716587e-04 0.0000000000000000e+00  -2.2061991754262327e-06 4.0740562374275109e-04 0.0000000000000000e+00  -1.5903789098086514e-06 3.6425607129468302e-04 0.0000000000000000e+00  -8.9981119128804720e-07 1.5409650071256055e-04 0.0000000000000000e+00  -3.2103941641696220e-06 9.2138387069088821e-04 0.0000000000000000e+00  -3.5523106335734857e-07 4.2403399631718397e-05 0.0000000000000000e+00  1.0181090738460555e-05 9.9578500572951507e-04 0.0000000000000000e+00  2.0447354006508794e-06 5.7523770013325003e-06 0.0000000000000000e+00  8.7707334025651721e-06 7.8254554342573361e-04 0.0000000000000000e+00  8.6677688819356406e-06 8.4293543980978544e-04 0.0000000000000000e+00  -3.8974963288065733e-06 1.8422598212118358e-05 0.0000000000000000e+00  -6.3243656258737493e-06 7.6814797669002519e-05 0.0000000000000000e+00  8.9577979703640015e-06 6.0405387342631935e-04 0.0000000000000000e+00  8.8587419523159214e-06 7.2249953896478712e-04 0.0000000000000000e+00  -9.5934525476089460e-06 2.0824689096555406e-04 0.0000000000000000e+00  8.9524803208318990e-06 5.4603061780440516e-04 0.0000000000000000e+00  -7.3324945315889787e-06 1.0920107190249279e-04 0.0000000000000000e+00  -1.0336225474736693e-05 2.5389691963311237e-04 0.0000000000000000e+00  8.9005575064445684e-06 4.8910181474242362e-04 0.0000000000000000e+00  8.9238638927412641e-06 6.6294394136449464e-04 0.0000000000000000e+00  -1.3131272024023588e-05 3.0210487857258196e-04 0.0000000000000000e+00  8.8014256791151827e-06 4.3352320188584507e-04 0.0000000000000000e+00  -4.2596761069361268e-07 4.3341674378096974e-07 0.0000000000000000e+00  3.3523908050501732e-07 3.7123412535445418e-07 0.0000000000000000e+00  -1.3425425816166938e-05 1.0489746079582678e-03 0.0000000000000000e+00  -2.5083475060580624e-06 5.7957022078121965e-06 0.0000000000000000e+00  1.1084997121076180e-05 3.8554442801441594e-04 0.000000000000000