<?xml version="1.0"?>
<VTKFile type="UnstructuredGrid"  version="0.1"  >
<UnstructuredGrid>
<Piece  NumberOfPoints="1419" NumberOfCells="2698">
<Points>
<DataArray  type="Float64"  NumberOfComponents="3"  format="ascii">0 0 0  0 0.41 0  2.5 0 0  2.5 0.41 0  0.6 0.19 0  0.6 0.21 0  0.25 0.2 0  0.15 0.2 0  0.2489897948556636 0.21 0  0.2489897948556636 0.19 0  0.6 0.2 0  0 0.3807142857143437 0  0 0.3514285714286952 0  0 0.3221428571430699 0  0 0.29285714285744 0  0 0.2635714285718054 0  0 0.2342857142861561 0  0 0.2050000000005308 0  0 0.175714285714732 0  0 0.1464285714289574 0  0 0.1171428571431897 0  0 0.08785714285737878 0  0 0.05857142857161107 0  0 0.02928571428580012 0  0.03015443760436003 0 0  0.06140001986583606 0 0  0.09377624077125973 0 0  0.1273239957535082 0 0  0.1620856860351972 0 0  0.1981052433264291 0 0  0.235428184091502 0 0  0.2741016576309132 0 0  0.3141745521465447 0 0  0.3556974926295285 0 0  0.3987229542472677 0 0  0.4433053055141081 0 0  0.4895008759286886 0 0  0.5373680609405097 0 0  0.5869673343216626 0 0  0.6383613676634521 0 0  0.6916151138468254 0 0  0.7467958595648856 0 0  0.8039733463919316 0 0  0.8632198139502143 0 0  0.9246101326867038 0 0  0.9882218810934433 0 0  1.054135445558498 0 0  1.122434100542598 0 0  1.193204177141305 0 0  1.266535089879536 0 0  1.342519516046404 0 0  1.421253448503939 0 0  1.502836389106271 0 0  1.587371439758838 0 0  1.674965418777374 0 0  1.765729001825544 0 0  1.859776908880082 0 0  1.957227977487062 0 0  2.058205329869943 0 0  2.162836591189951 0 0  2.271253957290865 0 0  2.383594446803425 0 0  2.5 0.1024999999997612 0  2.5 0.2049999999994743 0  2.5 0.3074999999997183 0  2.383594446803656 0.41 0  2.271253957291315 0.41 0  2.162836591190598 0.41 0  2.058205329870775 0.41 0  1.957227977488067 0.41 0  1.859776908881246 0.41 0  1.765729001826854 0.41 0  1.674965418778818 0.41 0  1.58737143976041 0.41 0  1.502836389107956 0.41 0  1.421253448505726 0.41 0  1.342519516048286 0.41 0  1.266535089881505 0.41 0  1.193204177143353 0.41 0  1.122434100544716 0.41 0  1.05413544556068 0.41 0  0.9882218810956305 0.41 0  0.9246101326886647 0.41 0  0.8632198139519631 0.41 0  0.8039733463934788 0.41 0  0.7467958595662458 0.41 0  0.6916151138480078 0.41 0  0.6383613676644679 0.41 0  0.5869673343225223 0.41 0  0.5373680609412221 0.41 0  0.4895008759292634 0.41 0  0.4433053055145528 0.41 0  0.3987229542475914 0.41 0  0.3556974926297398 0.41 0  0.3141745521466497 0.41 0  0.2741016576310038 0.41 0  0.2354281840915826 0.41 0  0.1981052433265003 0.41 0  0.1620856860352591 0.41 0  0.1273239957535623 0.41 0  0.09377624077128965 0.41 0  0.06140001986584975 0.41 0  0.03015443760436654 0.41 0  0.2497468076502589 0.2050254481002335 0  0.2497468076502614 0.1949745518997913 0  0.2469965252529372 0.1829317073451959 0  0.2439893735792749 0.1762316384219906 0  0.2400332147834255 0.1700443375285386 0  0.2352133972704371 0.1645032867342007 0  0.2296339016332438 0.1597280261969788 0  0.2234150974217223 0.1558215752574715 0  0.2166911463437691 0.1528682099456123 0  0.2096071079204251 0.1509316448471593 0  0.2023158100364996 0.1500536585536553 0  0.194974551899914 0.1502531923497262 0  0.1877417105387872 0.1515259415822739 0  0.1807733240461124 0.153844448527136 0  0.1742197252835808 0.15715869474974 0  0.1682222986673531 0.1613971801805478 0  0.162910430003803 0.1664684656256651 0  0.1583987151779087 0.1722631454351573 0  0.1547844879126891 0.178656207771761 0  0.1521457199348551 0.1855097315605723 0  0.1505393388476355 0.1926758619366523 0  0.1505393388476328 0.2073241380633295 0  0.1521457199348437 0.2144902684393899 0  0.1547844879126531 0.221343792228163 0  0.1583987151778488 0.2277368545647528 0  0.1629104300036858 0.2335315343742052 0  0.1682222986671726 0.2386028198193036 0  0.1742197252833576 0.2428413052501257 0  0.1807733240458683 0.2461555514727623 0  0.1877417105384929 0.2484740584176516 0  0.1949745518995776 0.2497468076502398 0  0.202315810036185 0.2499463414463592 0  0.2096071079201568 0.2490683551528932 0  0.2166911463435495 0.2471317900544655 0  0.2234150974215506 0.2441784247426195 0  0.2296339016331197 0.2402719738031125 0  0.2352133972703547 0.2354967132658811 0  0.2400332147833751 0.2299556624715287 0  0.2439893735792577 0.2237683615780412 0  0.246996525252926 0.2170682926548348 0  0.25645809709277 0.21 0  0.2639263993298655 0.21 0  0.271394701566961 0.21 0  0.2788630038040554 0.21 0  0.2863313060411479 0.21 0  0.2937996082782405 0.21 0  0.301267910515333 0.21 0  0.3087362127524279 0.21 0  0.3162045149895234 0.21 0  0.3236728172265972 0.21 0  0.3311411194636928 0.21 0  0.3386094217007701 0.21 0  0.3460777239378666 0.21 0  0.3535460261749672 0.21 0  0.3610143284120516 0.21 0  0.3684826306491596 0.21 0  0.3759509328862226 0.21 0  0.383419235123329 0.21 0  0.3908875373604028 0.21 0  0.3983558395975142 0.21 0  0.4058241418345938 0.21 0  0.4132924440716992 0.21 0  0.4207607463087888 0.21 0  0.4282290485459029 0.21 0  0.4356973507830418 0.21 0  0.4431656530201649 0.21 0  0.4506339552573136 0.21 0  0.4581022574944306 0.21 0  0.4655705597315852 0.21 0  0.4730388619686996 0.21 0  0.480507164205851 0.21 0  0.4879754664429498 0.21 0  0.4954437686800938 0.21 0  0.502912070917267 0.21 0  0.5103803731544119 0.21 0  0.5178486753915261 0.21 0  0.5253169776286404 0.21 0  0.5327852798657868 0.21 0  0.5402535821029386 0.21 0  0.54772188434007 0.21 0  0.5551901865771842 0.21 0  0.5626584888143201 0.21 0  0.5701267910514778 0.21 0  0.5775950932886138 0.21 0  0.5850633955257281 0.21 0  0.5925316977628483 0.21 0  0.6 0.2050000000000054 0  0.6 0.1950000000000217 0  0.5925316977628897 0.19 0  0.5850633955257988 0.19 0  0.5775950932887378 0.19 0  0.5701267910515998 0.19 0  0.5626584888145268 0.19 0  0.5551901865773963 0.19 0  0.547721884340339 0.19 0  0.5402535821032429 0.19 0  0.5327852798661811 0.19 0  0.5253169776290537 0.19 0  0.5178486753919799 0.19 0  0.5103803731549078 0.19 0  0.502912070917822 0.19 0  0.4954437686807294 0.19 0  0.4879754664436223 0.19 0  0.4805071642065402 0.19 0  0.4730388619694271 0.19 0  0.4655705597323621 0.19 0  0.4581022574952563 0.19 0  0.4506339552581777 0.19 0  0.4431656530210671 0.19 0  0.4356973507839815 0.19 0  0.4282290485468779 0.19 0  0.4207607463097617 0.19 0  0.4132924440726327 0.19 0  0.4058241418354857 0.19 0  0.3983558395983636 0.19 0  0.3908875373612097 0.19 0  0.3834192351240934 0.19 0  0.3759509328869369 0.19 0  0.3684826306498175 0.19 0  0.361014328412667 0.19 0  0.3535460261755617 0.19 0  0.3460777239384295 0.19 0  0.3386094217012945 0.19 0  0.3311411194641595 0.19 0  0.3236728172270245 0.19 0  0.3162045149898895 0.19 0  0.3087362127527544 0.19 0  0.3012679105156187 0.19 0  0.2937996082784807 0.19 0  0.2863313060413428 0.19 0  0.2788630038042048 0.19 0  0.2713947015670686 0.19 0  0.2639263993299336 0.19 0  0.2564580970927985 0.19 0  0.2607803159922026 0.2000727136295815 0  0.5887803774232762 0.2001272386983733 0  0.5745072403740523 0.2002044435018727 0  0.5511891430099709 0.2001122610077113 0  0.2751288526855082 0.20000000000002 0  0.5365194309847112 0.1999999999999436 0  0.2894621222999649 0.1998691686390484 0  0.5215828265105155 0.1999999999999228 0  0.3127789816668748 0.1998657885438805 0  0.3274069683451451 0.2000000000000796 0  0.5066462220363641 0.199999999999908 0  0.3650630746574081 0.199866017807523 0  0.476773013087985 0.1999999999998713 0  0.3417402379596385 0.1998691686391011 0  0.3796850840047755 0.200000000000134 0  0.4618364086138087 0.1999999999998546 0  0.4917096175621762 0.1999999999998808 0  0.3946216884789568 0.2000000000001512 0  0.446899804139621 0.1999999999998389 0  0.4089549580935208 0.1998691686391595 0  0.4322718174608562 0.200127451265745 0  0.4201487168029707 0.1999966199048527 0  0.3528922713220932 0.2000185703532356 0  0.5633122436674589 0.1999814296467508 0  0.3006558810093873 0.1999966199048318 0  0.5815926498168407 0.1966545283159175 0  0.2677053789419034 0.1964246479135325 0  0.5290511287476175 0.1970915826863981 0  0.5439877332217911 0.197091582686394 0  0.2825131256993216 0.2035478995978015 0  0.3199386661080599 0.202908417313604 0  0.4842413153250809 0.1970915826863873 0  0.5141145242734466 0.1970915826863843 0  0.3722167817676917 0.2029084173136195 0  0.4693047108508938 0.1970915826863783 0  0.3348752705822316 0.202908417313609 0  0.3871533862418661 0.2029084173136212 0  0.4543681063767183 0.1970915826863795 0  0.4991779197992749 0.1970915826863902 0  0.4020059614928624 0.203547899597858 0  0.4394315019025246 0.1970915826863714 0  0.2550657455369551 0.2034088125358657 0  0.2548908499171161 0.1966940311614271 0  0.5946539510196798 0.2024302972968126 0  0.267698176732111 0.2039977513680092 0  0.4261685417851465 0.196409292431739 0  0.3590076176283495 0.196411355804271 0  0.5571672426447437 0.2036011176410121 0  0.3066757059912147 0.1964092924317024 0  0.594380730180568 0.1966558399668133 0  0.4842413153245942 0.2040749161535287 0  0.4693047108503577 0.2040749161535231 0  0.3871533862424271 0.1959250838464788 0  0.372246743208829 0.1959123236376545 0  0.5141145242731028 0.2040749161535395 0  0.4543681063761134 0.2040749161535186 0  0.4019979587101454 0.1959834479682427 0  0.4394608940728603 0.2040870543693135 0  0.5439623148931173 0.2040856076781014 0  0.5290511287473298 0.2040749161535501 0  0.4991779197988497 0.2040749161535382 0  0.3347912413592433 0.1959225448935183 0  0.3199680582793816 0.1959123018030061 0  0.2825051229162361 0.1959834479681729 0  0.3590471196690275 0.2036304442587945 0  0.5571594006495384 0.1963685282145804 0  0.3067669986803285 0.203627750582736 0  0.4262598344738712 0.2036568242185335 0  0.5814408164431408 0.2041285596160068 0  0.5688286748170428 0.1961819304477386 0  0.4145905603063645 0.2038180695522843 0  0.3473758401724931 0.2038180695522752 0  0.2950977245128307 0.2038180695522663 0  0.5688286748170693 0.203818069552238 0  0.2950977245127906 0.1961819304477774 0  0.3473758401723931 0.1961819304478349 0  0.4145905603061963 0.1961819304479011 0  0.2601812407614425 0.2056861609747042
[...]
<PointData  Vectors="f_46-0"> 
<DataArray  type="Float64"  Name="f_46-0"  NumberOfComponents="3" format="ascii">0.0000000000000000e+00 0.0000000000000000e+00 0.0000000000000000e+00  0.0000000000000000e+00 0.0000000000000000e+00 0.0000000000000000e+00  0.0000000000000000e+00 0.0000000000000000e+00 0.0000000000000000e+00  0.0000000000000000e+00 0.0000000000000000e+00 0.0000000000000000e+00  3.6472217963454922e-05 1.0635913693305668e-03 0.0000000000000000e+00  -4.4673144017255191e-05 1.0636030697278264e-03 0.0000000000000000e+00  0.0000000000000000e+00 0.0000000000000000e+00 0.0000000000000000e+00  0.0000000000000000e+00 0.0000000000000000e+00 0.0000000000000000e+00  0.0000000000000000e+00 0.0000000000000000e+00 0.0000000000000000e+00  0.0000000000000000e+00 0.0000000000000000e+00 0.0000000000000000e+00  -4.0910841889503815e-06 1.0635897589303615e-03 0.0000000000000000e+00  7.9591836734548407e-02 0.0000000000000000e+00 0.0000000000000000e+00  1.4693877550994530e-01 0.0000000000000000e+00 0.0000000000000000e+00  2.0204081632617479e-01 0.0000000000000000e+00 0.0000000000000000e+00  2.4489795918330073e-01 0.0000000000000000e+00 0.0000000000000000e+00  2.7551020408131754e-01 0.0000000000000000e+00 0.0000000000000000e+00  2.9387755102022350e-01 0.0000000000000000e+00 0.0000000000000000e+00  3.0000000000000004e-01 0.0000000000000000e+00 0.0000000000000000e+00  2.9387755102059482e-01 0.0000000000000000e+00 0.0000000000000000e+00  2.7551020408195548e-01 0.0000000000000000e+00 0.0000000000000000e+00  2.4489795918409071e-01 0.0000000000000000e+00 0.0000000000000000e+00  2.0204081632692522e-01 0.0000000000000000e+00 0.0000000000000000e+00  1.4693877551058568e-01 0.0000000000000000e+00 0.0000000000000000e+00  7.9591836734909244e-02 0.0000000000000000e+00 0.0000000000000000e+00  0.0000000000000000e+00 0.0000000000000000e+00 0.0000000000000000e+00  0.0000000000000000e+00 0.0000000000000000e+00 0.0000000000000000e+00  0.0000000000000000e+00 0.0000000000000000e+00 0.0000000000000000e+00  0.0000000000000000e+00 0.0000000000000000e+00 0.0000000000000000e+00  0.0000000000000000e+00 0.0000000000000000e+00 0.0000000000000000e+00  0.0000000000000000e+00 0.0000000000000000e+00 0.0000000000000000e+00  0.0000000000000000e+00 0.0000000000000000e+00 0.0000000000000000e+00  0.0000000000000000e+00 0.0000000000000000e+00 0.0000000000000000e+00  0.0000000000000000e+00 0.0000000000000000e+00 0.0000000000000000e+00  0.0000000000000000e+00 0.0000000000000000e+00 0.0000000000000000e+00  0.0000000000000000e+00 0.0000000000000000e+00 0.0000000000000000e+00  0.0000000000000000e+00 0.0000000000000000e+00 0.0000000000000000e+00  0.0000000000000000e+00 0.0000000000000000e+00 0.0000000000000000e+00  0.0000000000000000e+00 0.0000000000000000e+00 0.0000000000000000e+00  0.0000000000000000e+00 0.0000000000000000e+00 0.0000000000000000e+00  0.0000000000000000e+00 0.0000000000000000e+00 0.0000000000000000e+00  0.0000000000000000e+00 0.0000000000000000e+00 0.0000000000000000e+00  0.0000000000000000e+00 0.0000000000000000e+00 0.0000000000000000e+00  0.0000000000000000e+00 0.0000000000000000e+00 0.0000000000000000e+00  0.0000000000000000e+00 0.0000000000000000e+00 0.0000000000000000e+00  0.0000000000000000e+00 0.0000000000000000e+00 0.0000000000000000e+00  0.0000000000000000e+00 0.0000000000000000e+00 0.0000000000000000e+00  0.0000000000000000e+00 0.0000000000000000e+00 0.0000000000000000e+00  0.0000000000000000e+00 0.0000000000000000e+00 0.0000000000000000e+00  0.0000000000000000e+00 0.0000000000000000e+00 0.0000000000000000e+00  0.0000000000000000e+00 0.0000000000000000e+00 0.0000000000000000e+00  0.0000000000000000e+00 0.0000000000000000e+00 0.0000000000000000e+00  0.0000000000000000e+00 0.0000000000000000e+00 0.0000000000000000e+00  0.0000000000000000e+00 0.0000000000000000e+00 0.0000000000000000e+00  0.0000000000000000e+00 0.0000000000000000e+00 0.0000000000000000e+00  0.0000000000000000e+00 0.0000000000000000e+00 0.0000000000000000e+00  0.0000000000000000e+00 0.0000000000000000e+00 0.0000000000000000e+00  0.0000000000000000e+00 0.0000000000000000e+00 0.0000000000000000e+00  0.0000000000000000e+00 0.0000000000000000e+00 0.0000000000000000e+00  0.0000000000000000e+00 0.0000000000000000e+00 0.0000000000000000e+00  0.0000000000000000e+00 0.0000000000000000e+00 0.0000000000000000e+00  0.0000000000000000e+00 0.0000000000000000e+00 0.0000000000000000e+00  0.0000000000000000e+00 0.0000000000000000e+00 0.0000000000000000e+00  2.4969148425078916e-01 1.5445407637848481e-03 0.0000000000000000e+00  3.0254121017138752e-01 4.9087947362644871e-03 0.0000000000000000e+00  2.4369003068771564e-01 -7.5246616152613213e-03 0.0000000000000000e+00  0.0000000000000000e+00 0.0000000000000000e+00 0.0000000000000000e+00  0.0000000000000000e+00 0.0000000000000000e+00 0.0000000000000000e+00  0.0000000000000000e+00 0.0000000000000000e+00 0.0000000000000000e+00  0.0000000000000000e+00 0.0000000000000000e+00 0.0000000000000000e+00  0.0000000000000000e+00 0.0000000000000000e+00 0.0000000000000000e+00  0.0000000000000000e+00 0.0000000000000000e+00 0.0000000000000000e+00  0.0000000000000000e+00 0.0000000000000000e+00 0.0000000000000000e+00  0.0000000000000000e+00 0.0000000000000000e+00 0.0000000000000000e+00  0.0000000000000000e+00 0.0000000000000000e+00 0.0000000000000000e+00  0.0000000000000000e+00 0.0000000000000000e+00 0.0000000000000000e+00  0.0000000000000000e+00 0.0000000000000000e+00 0.0000000000000000e+00  0.0000000000000000e+00 0.0000000000000000e+00 0.0000000000000000e+00  0.0000000000000000e+00 0.0000000000000000e+00 0.0000000000000000e+00  0.0000000000000000e+00 0.0000000000000000e+00 0.0000000000000000e+00  0.0000000000000000e+00 0.0000000000000000e+00 0.0000000000000000e+00  0.0000000000000000e+00 0.0000000000000000e+00 0.0000000000000000e+00  0.0000000000000000e+00 0.0000000000000000e+00 0.0000000000000000e+00  0.0000000000000000e+00 0.0000000000000000e+00 0.0000000000000000e+00  0.0000000000000000e+00 0.0000000000000000e+00 0.0000000000000000e+00  0.0000000000000000e+00 0.0000000000000000e+00 0.0000000000000000e+00  0.0000000000000000e+00 0.0000000000000000e+00 0.0000000000000000e+00  0.0000000000000000e+00 0.0000000000000000e+00 0.0000000000000000e+00  0.0000000000000000e+00 0.0000000000000000e+00 0.0000000000000000e+00  0.0000000000000000e+00 0.0000000000000000e+00 0.0000000000000000e+00  0.0000000000000000e+00 0.0000000000000000e+00 0.0000000000000000e+00  0.0000000000000000e+00 0.0000000000000000e+00 0.0000000000000000e+00  0.0000000000000000e+00 0.0000000000000000e+00 0.0000000000000000e+00  0.0000000000000000e+00 0.0000000000000000e+00 0.0000000000000000e+00  0.0000000000000000e+00 0.0000000000000000e+00 0.0000000000000000e+00  0.0000000000000000e+00 0.0000000000000000e+00 0.0000000000000000e+00  0.0000000000000000e+00 0.0000000000000000e+00 0.0000000000000000e+00  0.0000000000000000e+00 0.0000000000000000e+00 0.0000000000000000e+00  0.0000000000000000e+00 0.0000000000000000e+00 0.0000000000000000e+00  0.0000000000000000e+00 0.0000000000000000e+00 0.0000000000000000e+00  0.0000000000000000e+00 0.0000000000000000e+00 0.0000000000000000e+00  0.0000000000000000e+00 0.0000000000000000e+00 0.0000000000000000e+00  0.0000000000000000e+00 0.0000000000000000e+00 0.0000000000000000e+00  0.0000000000000000e+00 0.0000000000000000e+00 0.0000000000000000e+00  0.0000000000000000e+00 0.0000000000000000e+00 0.0000000000000000e+00  0.0000000000000000e+00 0.0000000000000000e+00 0.0000000000000000e+00  9.3643609262164216e-17 0.0000000000000000e+00 0.0000000000000000e+00  0.0000000000000000e+00 0.0000000000000000e+00 0.0000000000000000e+00  0.0000000000000000e+00 0.0000000000000000e+00 0.0000000000000000e+00  0.0000000000000000e+00 0.0000000000000000e+00 0.0000000000000000e+00  0.0000000000000000e+00 0.0000000000000000e+00 0.0000000000000000e+00  0.0000000000000000e+00 0.0000000000000000e+00 0.0000000000000000e+00  0.0000000000000000e+00 0.0000000000000000e+00 0.0000000000000000e+00  0.0000000000000000e+00 0.0000000000000000e+00 0.0000000000000000e+00  0.0000000000000000e+00 0.0000000000000000e+00 0.0000000000000000e+00  0.0000000000000000e+00 0.0000000000000000e+00 0.0000000000000000e+00  0.0000000000000000e+00 0.0000000000000000e+00 0.0000000000000000e+00  0.0000000000000000e+00 0.0000000000000000e+00 0.0000000000000000e+00  0.0000000000000000e+00 0.0000000000000000e+00 0.0000000000000000e+00  0.0000000000000000e+00 0.0000000000000000e+00 0.0000000000000000e+00  0.0000000000000000e+00 0.0000000000000000e+00 0.0000000000000000e+00  0.0000000000000000e+00 0.0000000000000000e+00 0.0000000000000000e+00  0.0000000000000000e+00 0.0000000000000000e+00 0.0000000000000000e+00  0.0000000000000000e+00 0.0000000000000000e+00 0.0000000000000000e+00  0.0000000000000000e+00 0.0000000000000000e+00 0.0000000000000000e+00  0.0000000000000000e+00 0.0000000000000000e+00 0.0000000000000000e+00  0.0000000000000000e+00 0.0000000000000000e+00 0.0000000000000000e+00  0.0000000000000000e+00 0.0000000000000000e+00 0.0000000000000000e+00  0.0000000000000000e+00 0.0000000000000000e+00 0.0000000000000000e+00  0.0000000000000000e+00 0.0000000000000000e+00 0.0000000000000000e+00  0.0000000000000000e+00 0.0000000000000000e+00 0.0000000000000000e+00  0.0000000000000000e+00 0.0000000000000000e+00 0.0000000000000000e+00  0.0000000000000000e+00 0.0000000000000000e+00 0.0000000000000000e+00  0.0000000000000000e+00 0.0000000000000000e+00 0.0000000000000000e+00  0.0000000000000000e+00 0.0000000000000000e+00 0.0000000000000000e+00  0.0000000000000000e+00 0.0000000000000000e+00 0.0000000000000000e+00  0.0000000000000000e+00 0.0000000000000000e+00 0.0000000000000000e+00  0.0000000000000000e+00 0.0000000000000000e+00 0.0000000000000000e+00  0.0000000000000000e+00 0.0000000000000000e+00 0.0000000000000000e+00  0.0000000000000000e+00 0.0000000000000000e+00 0.0000000000000000e+00  0.0000000000000000e+00 0.0000000000000000e+00 0.0000000000000000e+00  0.0000000000000000e+00 0.0000000000000000e+00 0.0000000000000000e+00  0.0000000000000000e+00 0.0000000000000000e+00 0.0000000000000000e+00  0.0000000000000000e+00 0.0000000000000000e+00 0.0000000000000000e+00  -2.2875619111585645e-06 1.8793046788385804e-06 0.0000000000000000e+00  -4.8699800223124354e-06 4.5651098390711765e-06 0.0000000000000000e+00  -7.1353362338153867e-06 8.9577947525576751e-06 0.0000000000000000e+00  -9.5774509382613765e-06 1.5147995170558025e-05 0.0000000000000000e+00  -1.1605228626425720e-05 2.2836395913898853e-05 0.0000000000000000e+00  -1.3903729278642235e-05 3.2161071343684161e-05 0.0000000000000000e+00  -1.5742204749516291e-05 4.2695101113994819e-05 0.0000000000000000e+00  -1.7520463813335796e-05 5.4819269971158952e-05 0.0000000000000000e+00  -1.9562809663548084e-05 6.8144617031407824e-05 0.0000000000000000e+00  -2.1111402616255946e-05 8.2724299335387900e-05 0.0000000000000000e+00  -2.3004698840376896e-05 9.8531557036541875e-05 0.0000000000000000e+00  -2.4419030467035912e-05 1.1547458556722225e-04 0.0000000000000000e+00  -2.6094318420543538e-05 1.3351272865560064e-04 0.0000000000000000e+00  -2.7419060003168053e-05 1.5243966030289736e-04 0.0000000000000000e+00  -2.8698912979774432e-05 1.7246920581475054e-04 0.0000000000000000e+00  -3.0151173004570698e-05 1.9332805786556563e-04 0.0000000000000000e+00  -3.1252541484150770e-05 2.1504905871511644e-04 0.0000000000000000e+00  -3.2570767300448041e-05 2.3760384599842696e-04 0.0000000000000000e+00  -3.3552334703291253e-05 2.6091381344743299e-04 0.0000000000000000e+00  -3.4706119143119459e-05 2.8492465167107901e-04 0.0000000000000000e+00  -3.5620064737270186e-05 3.0962111563930878e-04 0.0000000000000000e+00  -3.6623744619270192e-05 3.3496968525710715e-04 0.0000000000000000e+00  -3.7422056598715483e-05 3.6079950279406238e-04 0.0000000000000000e+00  -3.8177149711962381e-05 3.8724873381672817e-04 0.0000000000000000e+00  -3.8995104696574085e-05 4.1411247819997713e-04 0.0000000000000000e+00  -3.9665263004700863e-05 4.4146403442370193e-04 0.0000000000000000e+00  -4.0321882458762147e-05 4.6923058186582744e-04 0.0000000000000000e+00  -4.0888522028994981e-05 4.9734435864616272e-04 0.0000000000000000e+00  -4.1434685878506026e-05 5.2581131819488076e-04 0.0000000000000000e+00  -4.1901055410243848e-05 5.5455123789812874e-04 0.0000000000000000e+00  -4.2343524642287084e-05 5.8357396896702044e-04 0.0000000000000000e+00  -4.2716030941511549e-05 6.1280404639724086e-04 0.0000000000000000e+00  -4.3062739083745426e-05 6.4225249815064308e-04 0.0000000000000000e+00  -4.3350202194907366e-05 6.7185138953143456e-04 0.0000000000000000e+00  -4.3611224667020834e-05 7.0161257012660836e-04 0.0000000000000000e+00  -4.3823426012737786e-05 7.3147669674708342e-04 0.0000000000000000e+00  -4.4011303373383146e-05 7.6145555019225587e-04 0.0000000000000000e+00  -4.4160595259534058e-05 7.9149996608235255e-04 0.0000000000000000e+00  -4.4288194072553723e-05 8.2162093630297310e-04 0.0000000000000000e+00  -4.4386667915341522e-05 8.5177981400947592e-04 0.0000000000000000e+00  -4.4468499991312277e-05 8.8198762060349219e-04 0.0000000000000000e+00  -4.4528250266072647e-05 9.1221422843692102e-04 0.0000000000000000e+00  -4.4572799947593646e-05 9.4246758400158581e-04 0.0000000000000000e+00  -4.4612088025024843e-05 9.7273337405552249e-04 0.0000000000000000e+00  -4.4637603855962934e-05 1.0030104562870274e-03 0.0000000000000000e+00  -4.4656486836684539e-05 1.0332990721255389e-03 0.0000000000000000e+00  -2.4375264065877251e-05 1.0635943929002459e-03 0.0000000000000000e+00  1.6189654108844187e-05 1.0635880156342600e-03 0.0000000000000000e+00  3.6469773267770012e-05 1.0332900937971782e-03 0.0000000000000000e+00  3.6464506375762043e-05 1.0029961328063403e-03 0.0000000000000000e+00  3.6460887971484509e-05 9.7270803723154985e-04 0.0000000000000000e+00  3.6451973334356053e-05 9.4243207148753041e-04 0.0000000000000000e+00  3.6445046817550624e-05 9.1216775974884573e-04 0.0000000000000000e+00  3.6435122322089042e-05 8.8192739494666003e-04 0.0000000000000000e+00  3.6409694846997611e-05 8.5171128863112747e-04 0.0000000000000000e+00  3.6390781750246164e-05 8.2153318015489062e-04 0.0000000000000000e+00  3.6341236008605898e-05 7.9140430357734133e-04 0.0000000000000000e+00  3.6302964759537110e-05 7.6134014239879620e-04 0.0000000000000000e+00  3.6217494720246772e-05 7.3135407493355364e-04 0.0000000000000000e+00  3.6149258293583837e-05 7.0146977278682696e-04 0.0000000000000000e+00  3.6013957244799752e-05 6.7170267875471589e-04 0.0000000000000000e+00  3.5904387116934381e-05 6.4208501983691209e-04 0.0000000000000000e+00  3.5703925298806489e-05 6.1263256566323001e-04 0.0000000000000000e+00  3.5541543912075323e-05 5.8338599091364070e-04 0.0000000000000000e+00  3.5261967849174177e-05 5.5436159394495221e-04 0.0000000000000000e+00  3.5035448850439278e-05 5.2560824584086091e-04 0.0000000000000000e+00  3.4662420632311901e-05 4.9714169941581356e-04 0.0000000000000000e+00  3.4360874144986894e-05 4.6901766759249952e-04 0.0000000000000000e+00  3.3878095999570350e-05 4.4125436332639276e-04 0.0000000000000000e+00  3.3487185113775057e-05 4.1391473643514923e-04 0.0000000000000000e+00  3.2894233964927117e-05 3.8702503734612233e-04 0.0000000000000000e+00  3.2378008825811020e-05 3.6058572930675156e-04 0.0000000000000000e+00  3.1816412441941380e-05 3.3476449115674671e-04 0.0000000000000000e+00  3.1067609161370861e-05 3.0940272767826098e-04 0.0000000000000000e+00  3.0361083297226070e-05 2.8473749216582331e-04 0.0000000000000000e+00  2.9512549056563867e-05 2.6069620320733571e-04 0.0000000000000000e+00  2.8678749704488277e-05 2.3740680913416628e-04 0.0000000000000000e+00  2.7705010703022154e-05 2.1484991519657231e-04 0.0000000000000000e+00  2.6745863263501487e-05 1.9310071198432843e-04 0.0000000000000000e+00  2.5545062185459788e-05 1.7229987665023431e-04 0.0000000000000000e+00  2.4499461182738283e-05 1.5226089351517863e-04 0.0000000000000000e+00  2.3400156342327888e-05 1.3335116532315548e-04 0.0000000000000000e+00  2.2000314155723387e-05 1.1524631148501236e-04 0.0000000000000000e+00  2.0682878266133566e-05 9.8347740109373566e-05 0.0000000000000000e+00  1.9172349280518644e-05 8.2531967870427846e-05 0.0000000000000000e+00  1.7706934150429841e-05 6.7903770210159530e-05 0.0000000000000000e+00  1.5909094653684718e-05 5.4654528972030948e-05 0.0000000000000000e+00  1.4345538781268409e-05 4.2508070812314000e-05 0.0000000000000000e+00  1.2723135964814028e-05 3.1976337756161730e-05 0.0000000000000000e+00  1.0674129554501204e-05 2.2605309149836544e-05 0.0000000000000000e+00  8.7956203644687776e-06 1.4893709723813129e-05 0.0000000000000000e+00  6.5482120635657330e-06 8.7883080290747062e-06 0.0000000000000000e+00  4.5302205759115108e-06 4.3709845472652188e-06 0.0000000000000000e+00  2.1312724467227330e-06 1.6732141465478687e-06 0.0000000000000000e+00  -1.3774115821813336e-07 1.8792358348637281e-06 0.0000000000000000e+00  -4.6003004194384325e-06 1.0180726558856182e-03 0.0000000000000000e+00  -4.8939153774141119e-06 9.6019196342560242e-04 0.0000000000000000e+00  -4.4482133006301751e-06 8.6574182089427351e-04 0.0000000000000000e+00  -3.1855611992749834e-07 1.0666345023698040e-05 0.0000000000000000e+00  -3.9202453507843412e-06 8.0646645726847378e-04 0.0000000000000000e+00  -3.7274575625306338e-07 2.5436122355239769e-05 0.0000000000000000e+00  -3.8184426065155275e-06 7.4633255770220445e-04 0.0000000000000000e+00  -6.1562402706283714e-07 6.0913649168044357e-05 0.0000000000000000e+00  -1.0684873880875512e-06 8.9636448888925617e-05 0.0000000000000000e+00  -3.6889256784885493e-06 6.8655205766789238e-04 0.0000000000000000e+00  -1.2605388215339397e-06 1.8297531853814003e-04 0.0000000000000000e+00  -3.3505207319811334e-06 5.6877399665965754e-04 0.0000000000000000e+00  -9.7058166899758084e-07 1.2208908865750384e-04 0.0000000000000000e+00  -1.8654000045184756e-06 2.2561842000528158e-04 0.0000000000000000e+00  -3.1477913225108263e-06 5.1122947038215411e-04 0.0000000000000000e+00  -3.5321789045128056e-06 6.2729613261006557e-04 0.0000000000000000e+00  -2.1029332647344379e-06 2.7227647324977168e-04 0.0000000000000000e+00  -2.9265766120575211e-06 4.5493848597564514e-04 0.0000000000000000e+00  -1.8898635113013303e-06 3.1965223653031261e-04 0.0000000000000000e+00  -3.1596514597221085e-06 4.0131603434829681e-04 0.0000000000000000e+00  -2.4991521164250103e-06 3.5829237497404267e-04 0.0000000000000000e+00  -1.4967825477856924e-06 1.5018571536880502e-04 0.0000000000000000e+00  -3.9602487079596210e-06 9.1482661295828795e-04 0.0000000000000000e+00  -6.7068422056241413e-07 4.1009704857231934e-05 0.0000000000000000e+00  9.4872258921791372e-06 9.8891903334899826e-04 0.0000000000000000e+00  1.8648601627351632e-06 5.5037604632923881e-06 0.0000000000000000e+00  7.8179514757215753e-06 7.7635661507628913e-04 0.0000000000000000e+00  7.7777699782466573e-06 8.3661641884011297e-04 0.0000000000000000e+00  -3.9880918199674218e-06 1.7779101803146459e-05 0.0000000000000000e+00  -6.6123561481024488e-06 7.4523542735885129e-05 0.0000000000000000e+00  7.9165758040929759e-06 5.9792308331533335e-04 0.0000000000000000e+00  7.8590727113870793e-06 7.1638000937265312e-04 0.0000000000000000e+00  -1.0178723588638585e-05 2.0354244576946477e-04 0.0000000000000000e+00  7.9145563727513937e-06 5.3986059196811187e-04 0.0000000000000000e+00  -7.6999384508013339e-06 1.0616968069786116e-04 0.0000000000000000e+00  -1.1012672288294864e-05 2.4867754933145634e-04 0.0000000000000000e+00  7.8789762499662867e-06 4.8291064376076483e-04 0.0000000000000000e+00  7.8948789670072371e-06 6.5683847421697892e-04 0.0000000000000000e+00  -1.3882739604082158e-05 2.9649563325380483e-04 0.0000000000000000e+00  7.8066579844900977e-06 4.2736332904996701e-04 0.0000000000000000e+00  -4.3433120696797631e-07 4.2197243449377616e-07 0.0000000000000000e+00  3.0139862538943200e-07 3.3893493614949246e-07 0.0000000000000000e+00  -1.3946153040901363e-05 1.0419016777338478e-03 0.0000000000000000e+00  -2.5360683139570463e-06 5.5878257894663005e-06 0.0000000000000000e+00  1.0112793866166165e-05 3.7947528433481502e-04 0.0000000000000000