<?xml version="1.0"?>
<VTKFile type="UnstructuredGrid"  version="0.1"  >
<UnstructuredGrid>
<Piece  NumberOfPoints="1419" NumberOfCells="2698">
<Points>
<DataArray  type="Float64"  NumberOfComponents="3"  format="ascii">0 0 0  0 0.41 0  2.5 0 0  2.5 0.41 0  0.6 0.19 0  0.6 0.21 0  0.25 0.2 0  0.15 0.2 0  0.2489897948556636 0.21 0  0.2489897948556636 0.19 0  0.6 0.2 0  0 0.3807142857143437 0  0 0.3514285714286952 0  0 0.3221428571430699 0  0 0.29285714285744 0  0 0.2635714285718054 0  0 0.2342857142861561 0  0 0.2050000000005308 0  0 0.175714285714732 0  0 0.1464285714289574 0  0 0.1171428571431897 0  0 0.08785714285737878 0  0 0.05857142857161107 0  0 0.02928571428580012 0  0.03015443760436003 0 0  0.06140001986583606 0 0  0.09377624077125973 0 0  0.1273239957535082 0 0  0.1620856860351972 0 0  0.1981052433264291 0 0  0.235428184091502 0 0  0.2741016576309132 0 0  0.3141745521465447 0 0  0.3556974926295285 0 0  0.3987229542472677 0 0  0.4433053055141081 0 0  0.4895008759286886 0 0  0.5373680609405097 0 0  0.5869673343216626 0 0  0.6383613676634521 0 0  0.6916151138468254 0 0  0.7467958595648856 0 0  0.8039733463919316 0 0  0.8632198139502143 0 0  0.9246101326867038 0 0  0.9882218810934433 0 0  1.054135445558498 0 0  1.122434100542598 0 0  1.193204177141305 0 0  1.266535089879536 0 0  1.342519516046404 0 0  1.421253448503939 0 0  1.502836389106271 0 0  1.587371439758838 0 0  1.674965418777374 0 0  1.765729001825544 0 0  1.859776908880082 0 0  1.957227977487062 0 0  2.058205329869943 0 0  2.162836591189951 0 0  2.271253957290865 0 0  2.383594446803425 0 0  2.5 0.1024999999997612 0  2.5 0.2049999999994743 0  2.5 0.3074999999997183 0  2.383594446803656 0.41 0  2.271253957291315 0.41 0  2.162836591190598 0.41 0  2.058205329870775 0.41 0  1.957227977488067 0.41 0  1.859776908881246 0.41 0  1.765729001826854 0.41 0  1.674965418778818 0.41 0  1.58737143976041 0.41 0  1.502836389107956 0.41 0  1.421253448505726 0.41 0  1.342519516048286 0.41 0  1.266535089881505 0.41 0  1.193204177143353 0.41 0  1.122434100544716 0.41 0  1.05413544556068 0.41 0  0.9882218810956305 0.41 0  0.9246101326886647 0.41 0  0.8632198139519631 0.41 0  0.8039733463934788 0.41 0  0.7467958595662458 0.41 0  0.6916151138480078 0.41 0  0.6383613676644679 0.41 0  0.5869673343225223 0.41 0  0.5373680609412221 0.41 0  0.4895008759292634 0.41 0  0.4433053055145528 0.41 0  0.3987229542475914 0.41 0  0.3556974926297398 0.41 0  0.3141745521466497 0.41 0  0.2741016576310038 0.41 0  0.2354281840915826 0.41 0  0.1981052433265003 0.41 0  0.1620856860352591 0.41 0  0.1273239957535623 0.41 0  0.09377624077128965 0.41 0  0.06140001986584975 0.41 0  0.03015443760436654 0.41 0  0.2497468076502589 0.2050254481002335 0  0.2497468076502614 0.1949745518997913 0  0.2469965252529372 0.1829317073451959 0  0.2439893735792749 0.1762316384219906 0  0.2400332147834255 0.1700443375285386 0  0.2352133972704371 0.1645032867342007 0  0.2296339016332438 0.1597280261969788 0  0.2234150974217223 0.1558215752574715 0  0.2166911463437691 0.1528682099456123 0  0.2096071079204251 0.1509316448471593 0  0.2023158100364996 0.1500536585536553 0  0.194974551899914 0.1502531923497262 0  0.1877417105387872 0.1515259415822739 0  0.1807733240461124 0.153844448527136 0  0.1742197252835808 0.15715869474974 0  0.1682222986673531 0.1613971801805478 0  0.162910430003803 0.1664684656256651 0  0.1583987151779087 0.1722631454351573 0  0.1547844879126891 0.178656207771761 0  0.1521457199348551 0.1855097315605723 0  0.1505393388476355 0.1926758619366523 0  0.1505393388476328 0.2073241380633295 0  0.1521457199348437 0.2144902684393899 0  0.1547844879126531 0.221343792228163 0  0.1583987151778488 0.2277368545647528 0  0.1629104300036858 0.2335315343742052 0  0.1682222986671726 0.2386028198193036 0  0.1742197252833576 0.2428413052501257 0  0.1807733240458683 0.2461555514727623 0  0.1877417105384929 0.2484740584176516 0  0.1949745518995776 0.2497468076502398 0  0.202315810036185 0.2499463414463592 0  0.2096071079201568 0.2490683551528932 0  0.2166911463435495 0.2471317900544655 0  0.2234150974215506 0.2441784247426195 0  0.2296339016331197 0.2402719738031125 0  0.2352133972703547 0.2354967132658811 0  0.2400332147833751 0.2299556624715287 0  0.2439893735792577 0.2237683615780412 0  0.246996525252926 0.2170682926548348 0  0.25645809709277 0.21 0  0.2639263993298655 0.21 0  0.271394701566961 0.21 0  0.2788630038040554 0.21 0  0.2863313060411479 0.21 0  0.2937996082782405 0.21 0  0.301267910515333 0.21 0  0.3087362127524279 0.21 0  0.3162045149895234 0.21 0  0.3236728172265972 0.21 0  0.3311411194636928 0.21 0  0.3386094217007701 0.21 0  0.3460777239378666 0.21 0  0.3535460261749672 0.21 0  0.3610143284120516 0.21 0  0.3684826306491596 0.21 0  0.3759509328862226 0.21 0  0.383419235123329 0.21 0  0.3908875373604028 0.21 0  0.3983558395975142 0.21 0  0.4058241418345938 0.21 0  0.4132924440716992 0.21 0  0.4207607463087888 0.21 0  0.4282290485459029 0.21 0  0.4356973507830418 0.21 0  0.4431656530201649 0.21 0  0.4506339552573136 0.21 0  0.4581022574944306 0.21 0  0.4655705597315852 0.21 0  0.4730388619686996 0.21 0  0.480507164205851 0.21 0  0.4879754664429498 0.21 0  0.4954437686800938 0.21 0  0.502912070917267 0.21 0  0.5103803731544119 0.21 0  0.5178486753915261 0.21 0  0.5253169776286404 0.21 0  0.5327852798657868 0.21 0  0.5402535821029386 0.21 0  0.54772188434007 0.21 0  0.5551901865771842 0.21 0  0.5626584888143201 0.21 0  0.5701267910514778 0.21 0  0.5775950932886138 0.21 0  0.5850633955257281 0.21 0  0.5925316977628483 0.21 0  0.6 0.2050000000000054 0  0.6 0.1950000000000217 0  0.5925316977628897 0.19 0  0.5850633955257988 0.19 0  0.5775950932887378 0.19 0  0.5701267910515998 0.19 0  0.5626584888145268 0.19 0  0.5551901865773963 0.19 0  0.547721884340339 0.19 0  0.5402535821032429 0.19 0  0.5327852798661811 0.19 0  0.5253169776290537 0.19 0  0.5178486753919799 0.19 0  0.5103803731549078 0.19 0  0.502912070917822 0.19 0  0.4954437686807294 0.19 0  0.4879754664436223 0.19 0  0.4805071642065402 0.19 0  0.4730388619694271 0.19 0  0.4655705597323621 0.19 0  0.4581022574952563 0.19 0  0.4506339552581777 0.19 0  0.4431656530210671 0.19 0  0.4356973507839815 0.19 0  0.4282290485468779 0.19 0  0.4207607463097617 0.19 0  0.4132924440726327 0.19 0  0.4058241418354857 0.19 0  0.3983558395983636 0.19 0  0.3908875373612097 0.19 0  0.3834192351240934 0.19 0  0.3759509328869369 0.19 0  0.3684826306498175 0.19 0  0.361014328412667 0.19 0  0.3535460261755617 0.19 0  0.3460777239384295 0.19 0  0.3386094217012945 0.19 0  0.3311411194641595 0.19 0  0.3236728172270245 0.19 0  0.3162045149898895 0.19 0  0.3087362127527544 0.19 0  0.3012679105156187 0.19 0  0.2937996082784807 0.19 0  0.2863313060413428 0.19 0  0.2788630038042048 0.19 0  0.2713947015670686 0.19 0  0.2639263993299336 0.19 0  0.2564580970927985 0.19 0  0.2607803159922026 0.2000727136295815 0  0.5887803774232762 0.2001272386983733 0  0.5745072403740523 0.2002044435018727 0  0.5511891430099709 0.2001122610077113 0  0.2751288526855082 0.20000000000002 0  0.5365194309847112 0.1999999999999436 0  0.2894621222999649 0.1998691686390484 0  0.5215828265105155 0.1999999999999228 0  0.3127789816668748 0.1998657885438805 0  0.3274069683451451 0.2000000000000796 0  0.5066462220363641 0.199999999999908 0  0.3650630746574081 0.199866017807523 0  0.476773013087985 0.1999999999998713 0  0.3417402379596385 0.1998691686391011 0  0.3796850840047755 0.200000000000134 0  0.4618364086138087 0.1999999999998546 0  0.4917096175621762 0.1999999999998808 0  0.3946216884789568 0.2000000000001512 0  0.446899804139621 0.1999999999998389 0  0.4089549580935208 0.1998691686391595 0  0.4322718174608562 0.200127451265745 0  0.4201487168029707 0.1999966199048527 0  0.3528922713220932 0.2000185703532356 0  0.5633122436674589 0.1999814296467508 0  0.3006558810093873 0.1999966199048318 0  0.5815926498168407 0.1966545283159175 0  0.2677053789419034 0.1964246479135325 0  0.5290511287476175 0.1970915826863981 0  0.5439877332217911 0.197091582686394 0  0.2825131256993216 0.2035478995978015 0  0.3199386661080599 0.202908417313604 0  0.4842413153250809 0.1970915826863873 0  0.5141145242734466 0.1970915826863843 0  0.3722167817676917 0.2029084173136195 0  0.4693047108508938 0.1970915826863783 0  0.3348752705822316 0.202908417313609 0  0.3871533862418661 0.2029084173136212 0  0.4543681063767183 0.1970915826863795 0  0.4991779197992749 0.1970915826863902 0  0.4020059614928624 0.203547899597858 0  0.4394315019025246 0.1970915826863714 0  0.2550657455369551 0.2034088125358657 0  0.2548908499171161 0.1966940311614271 0  0.5946539510196798 0.2024302972968126 0  0.267698176732111 0.2039977513680092 0  0.4261685417851465 0.196409292431739 0  0.3590076176283495 0.196411355804271 0  0.5571672426447437 0.2036011176410121 0  0.3066757059912147 0.1964092924317024 0  0.594380730180568 0.1966558399668133 0  0.4842413153245942 0.2040749161535287 0  0.4693047108503577 0.2040749161535231 0  0.3871533862424271 0.1959250838464788 0  0.372246743208829 0.1959123236376545 0  0.5141145242731028 0.2040749161535395 0  0.4543681063761134 0.2040749161535186 0  0.4019979587101454 0.1959834479682427 0  0.4394608940728603 0.2040870543693135 0  0.5439623148931173 0.2040856076781014 0  0.5290511287473298 0.2040749161535501 0  0.4991779197988497 0.2040749161535382 0  0.3347912413592433 0.1959225448935183 0  0.3199680582793816 0.1959123018030061 0  0.2825051229162361 0.1959834479681729 0  0.3590471196690275 0.2036304442587945 0  0.5571594006495384 0.1963685282145804 0  0.3067669986803285 0.203627750582736 0  0.4262598344738712 0.2036568242185335 0  0.5814408164431408 0.2041285596160068 0  0.5688286748170428 0.1961819304477386 0  0.4145905603063645 0.2038180695522843 0  0.3473758401724931 0.2038180695522752 0  0.2950977245128307 0.2038180695522663 0  0.5688286748170693 0.203818069552238 0  0.2950977245127906 0.1961819304477774 0  0.3473758401723931 0.1961819304478349 0  0.4145905603061963 0.1961819304479011 0  0.2601812407614425 0.2056861609747042
[...]
<PointData  Vectors="f_46-0"> 
<DataArray  type="Float64"  Name="f_46-0"  NumberOfComponents="3" format="ascii">0.0000000000000000e+00 0.0000000000000000e+00 0.0000000000000000e+00  0.0000000000000000e+00 0.0000000000000000e+00 0.0000000000000000e+00  0.0000000000000000e+00 0.0000000000000000e+00 0.0000000000000000e+00  0.0000000000000000e+00 0.0000000000000000e+00 0.0000000000000000e+00  3.1912616833670298e-05 9.6889431892903768e-04 0.0000000000000000e+00  -4.0570300311236680e-05 9.6893068431744679e-04 0.0000000000000000e+00  0.0000000000000000e+00 0.0000000000000000e+00 0.0000000000000000e+00  0.0000000000000000e+00 0.0000000000000000e+00 0.0000000000000000e+00  0.0000000000000000e+00 0.0000000000000000e+00 0.0000000000000000e+00  0.0000000000000000e+00 0.0000000000000000e+00 0.0000000000000000e+00  -4.3270632900043335e-06 9.6890829580131236e-04 0.0000000000000000e+00  7.9591836734548407e-02 0.0000000000000000e+00 0.0000000000000000e+00  1.4693877550994525e-01 0.0000000000000000e+00 0.0000000000000000e+00  2.0204081632617479e-01 0.0000000000000000e+00 0.0000000000000000e+00  2.4489795918330076e-01 0.0000000000000000e+00 0.0000000000000000e+00  2.7551020408131754e-01 0.0000000000000000e+00 0.0000000000000000e+00  2.9387755102022350e-01 0.0000000000000000e+00 0.0000000000000000e+00  3.0000000000000004e-01 0.0000000000000000e+00 0.0000000000000000e+00  2.9387755102059482e-01 0.0000000000000000e+00 0.0000000000000000e+00  2.7551020408195548e-01 0.0000000000000000e+00 0.0000000000000000e+00  2.4489795918409071e-01 0.0000000000000000e+00 0.0000000000000000e+00  2.0204081632692522e-01 0.0000000000000000e+00 0.0000000000000000e+00  1.4693877551058568e-01 0.0000000000000000e+00 0.0000000000000000e+00  7.9591836734909230e-02 0.0000000000000000e+00 0.0000000000000000e+00  0.0000000000000000e+00 0.0000000000000000e+00 0.0000000000000000e+00  0.0000000000000000e+00 0.0000000000000000e+00 0.0000000000000000e+00  0.0000000000000000e+00 0.0000000000000000e+00 0.0000000000000000e+00  0.0000000000000000e+00 0.0000000000000000e+00 0.0000000000000000e+00  0.0000000000000000e+00 0.0000000000000000e+00 0.0000000000000000e+00  0.0000000000000000e+00 0.0000000000000000e+00 0.0000000000000000e+00  0.0000000000000000e+00 0.0000000000000000e+00 0.0000000000000000e+00  0.0000000000000000e+00 0.0000000000000000e+00 0.0000000000000000e+00  0.0000000000000000e+00 0.0000000000000000e+00 0.0000000000000000e+00  0.0000000000000000e+00 0.0000000000000000e+00 0.0000000000000000e+00  0.0000000000000000e+00 0.0000000000000000e+00 0.0000000000000000e+00  0.0000000000000000e+00 0.0000000000000000e+00 0.0000000000000000e+00  0.0000000000000000e+00 0.0000000000000000e+00 0.0000000000000000e+00  0.0000000000000000e+00 0.0000000000000000e+00 0.0000000000000000e+00  0.0000000000000000e+00 0.0000000000000000e+00 0.0000000000000000e+00  0.0000000000000000e+00 0.0000000000000000e+00 0.0000000000000000e+00  0.0000000000000000e+00 0.0000000000000000e+00 0.0000000000000000e+00  0.0000000000000000e+00 0.0000000000000000e+00 0.0000000000000000e+00  0.0000000000000000e+00 0.0000000000000000e+00 0.0000000000000000e+00  0.0000000000000000e+00 0.0000000000000000e+00 0.0000000000000000e+00  0.0000000000000000e+00 0.0000000000000000e+00 0.0000000000000000e+00  0.0000000000000000e+00 0.0000000000000000e+00 0.0000000000000000e+00  0.0000000000000000e+00 0.0000000000000000e+00 0.0000000000000000e+00  0.0000000000000000e+00 0.0000000000000000e+00 0.0000000000000000e+00  0.0000000000000000e+00 0.0000000000000000e+00 0.0000000000000000e+00  0.0000000000000000e+00 0.0000000000000000e+00 0.0000000000000000e+00  0.0000000000000000e+00 0.0000000000000000e+00 0.0000000000000000e+00  0.0000000000000000e+00 0.0000000000000000e+00 0.0000000000000000e+00  0.0000000000000000e+00 0.0000000000000000e+00 0.0000000000000000e+00  0.0000000000000000e+00 0.0000000000000000e+00 0.0000000000000000e+00  0.0000000000000000e+00 0.0000000000000000e+00 0.0000000000000000e+00  0.0000000000000000e+00 0.0000000000000000e+00 0.0000000000000000e+00  0.0000000000000000e+00 0.0000000000000000e+00 0.0000000000000000e+00  0.0000000000000000e+00 0.0000000000000000e+00 0.0000000000000000e+00  0.0000000000000000e+00 0.0000000000000000e+00 0.0000000000000000e+00  0.0000000000000000e+00 0.0000000000000000e+00 0.0000000000000000e+00  0.0000000000000000e+00 0.0000000000000000e+00 0.0000000000000000e+00  0.0000000000000000e+00 0.0000000000000000e+00 0.0000000000000000e+00  2.5100597030481642e-01 1.9416434821929248e-03 0.0000000000000000e+00  2.9938900067261098e-01 5.8221833851779398e-03 0.0000000000000000e+00  2.4552513673221338e-01 -8.1722600907002448e-03 0.0000000000000000e+00  0.0000000000000000e+00 0.0000000000000000e+00 0.0000000000000000e+00  0.0000000000000000e+00 0.0000000000000000e+00 0.0000000000000000e+00  0.0000000000000000e+00 0.0000000000000000e+00 0.0000000000000000e+00  0.0000000000000000e+00 0.0000000000000000e+00 0.0000000000000000e+00  0.0000000000000000e+00 0.0000000000000000e+00 0.0000000000000000e+00  0.0000000000000000e+00 0.0000000000000000e+00 0.0000000000000000e+00  0.0000000000000000e+00 0.0000000000000000e+00 0.0000000000000000e+00  0.0000000000000000e+00 0.0000000000000000e+00 0.0000000000000000e+00  0.0000000000000000e+00 0.0000000000000000e+00 0.0000000000000000e+00  0.0000000000000000e+00 0.0000000000000000e+00 0.0000000000000000e+00  0.0000000000000000e+00 0.0000000000000000e+00 0.0000000000000000e+00  0.0000000000000000e+00 0.0000000000000000e+00 0.0000000000000000e+00  0.0000000000000000e+00 0.0000000000000000e+00 0.0000000000000000e+00  0.0000000000000000e+00 0.0000000000000000e+00 0.0000000000000000e+00  0.0000000000000000e+00 0.0000000000000000e+00 0.0000000000000000e+00  0.0000000000000000e+00 0.0000000000000000e+00 0.0000000000000000e+00  0.0000000000000000e+00 0.0000000000000000e+00 0.0000000000000000e+00  0.0000000000000000e+00 0.0000000000000000e+00 0.0000000000000000e+00  0.0000000000000000e+00 0.0000000000000000e+00 0.0000000000000000e+00  0.0000000000000000e+00 0.0000000000000000e+00 0.0000000000000000e+00  0.0000000000000000e+00 0.0000000000000000e+00 0.0000000000000000e+00  0.0000000000000000e+00 0.0000000000000000e+00 0.0000000000000000e+00  0.0000000000000000e+00 0.0000000000000000e+00 0.0000000000000000e+00  0.0000000000000000e+00 0.0000000000000000e+00 0.0000000000000000e+00  0.0000000000000000e+00 0.0000000000000000e+00 0.0000000000000000e+00  0.0000000000000000e+00 0.0000000000000000e+00 0.0000000000000000e+00  0.0000000000000000e+00 0.0000000000000000e+00 0.0000000000000000e+00  0.0000000000000000e+00 0.0000000000000000e+00 0.0000000000000000e+00  0.0000000000000000e+00 0.0000000000000000e+00 0.0000000000000000e+00  0.0000000000000000e+00 0.0000000000000000e+00 0.0000000000000000e+00  0.0000000000000000e+00 0.0000000000000000e+00 0.0000000000000000e+00  0.0000000000000000e+00 0.0000000000000000e+00 0.0000000000000000e+00  0.0000000000000000e+00 0.0000000000000000e+00 0.0000000000000000e+00  0.0000000000000000e+00 0.0000000000000000e+00 0.0000000000000000e+00  0.0000000000000000e+00 0.0000000000000000e+00 0.0000000000000000e+00  0.0000000000000000e+00 0.0000000000000000e+00 0.0000000000000000e+00  0.0000000000000000e+00 0.0000000000000000e+00 0.0000000000000000e+00  0.0000000000000000e+00 0.0000000000000000e+00 0.0000000000000000e+00  0.0000000000000000e+00 0.0000000000000000e+00 0.0000000000000000e+00  0.0000000000000000e+00 0.0000000000000000e+00 0.0000000000000000e+00  -3.6184505347587533e-16 0.0000000000000000e+00 0.0000000000000000e+00  0.0000000000000000e+00 0.0000000000000000e+00 0.0000000000000000e+00  0.0000000000000000e+00 0.0000000000000000e+00 0.0000000000000000e+00  0.0000000000000000e+00 0.0000000000000000e+00 0.0000000000000000e+00  0.0000000000000000e+00 0.0000000000000000e+00 0.0000000000000000e+00  0.0000000000000000e+00 0.0000000000000000e+00 0.0000000000000000e+00  0.0000000000000000e+00 0.0000000000000000e+00 0.0000000000000000e+00  0.0000000000000000e+00 0.0000000000000000e+00 0.0000000000000000e+00  0.0000000000000000e+00 0.0000000000000000e+00 0.0000000000000000e+00  0.0000000000000000e+00 0.0000000000000000e+00 0.0000000000000000e+00  0.0000000000000000e+00 0.0000000000000000e+00 0.0000000000000000e+00  0.0000000000000000e+00 0.0000000000000000e+00 0.0000000000000000e+00  0.0000000000000000e+00 0.0000000000000000e+00 0.0000000000000000e+00  0.0000000000000000e+00 0.0000000000000000e+00 0.0000000000000000e+00  0.0000000000000000e+00 0.0000000000000000e+00 0.0000000000000000e+00  0.0000000000000000e+00 0.0000000000000000e+00 0.0000000000000000e+00  0.0000000000000000e+00 0.0000000000000000e+00 0.0000000000000000e+00  0.0000000000000000e+00 0.0000000000000000e+00 0.0000000000000000e+00  0.0000000000000000e+00 0.0000000000000000e+00 0.0000000000000000e+00  0.0000000000000000e+00 0.0000000000000000e+00 0.0000000000000000e+00  0.0000000000000000e+00 0.0000000000000000e+00 0.0000000000000000e+00  0.0000000000000000e+00 0.0000000000000000e+00 0.0000000000000000e+00  0.0000000000000000e+00 0.0000000000000000e+00 0.0000000000000000e+00  0.0000000000000000e+00 0.0000000000000000e+00 0.0000000000000000e+00  0.0000000000000000e+00 0.0000000000000000e+00 0.0000000000000000e+00  0.0000000000000000e+00 0.0000000000000000e+00 0.0000000000000000e+00  0.0000000000000000e+00 0.0000000000000000e+00 0.0000000000000000e+00  0.0000000000000000e+00 0.0000000000000000e+00 0.0000000000000000e+00  0.0000000000000000e+00 0.0000000000000000e+00 0.0000000000000000e+00  0.0000000000000000e+00 0.0000000000000000e+00 0.0000000000000000e+00  0.0000000000000000e+00 0.0000000000000000e+00 0.0000000000000000e+00  0.0000000000000000e+00 0.0000000000000000e+00 0.0000000000000000e+00  0.0000000000000000e+00 0.0000000000000000e+00 0.0000000000000000e+00  0.0000000000000000e+00 0.0000000000000000e+00 0.0000000000000000e+00  0.0000000000000000e+00 0.0000000000000000e+00 0.0000000000000000e+00  0.0000000000000000e+00 0.0000000000000000e+00 0.0000000000000000e+00  0.0000000000000000e+00 0.0000000000000000e+00 0.0000000000000000e+00  3.7217020356752061e-13 -2.9725209554876237e-13 0.0000000000000000e+00  -2.1936399546336678e-06 1.8182138229143182e-06 0.0000000000000000e+00  -4.6625689073956610e-06 4.3699577561081104e-06 0.0000000000000000e+00  -6.8288087446024227e-06 8.5279731219862086e-06 0.0000000000000000e+00  -9.1561284003259383e-06 1.4377970369612020e-05 0.0000000000000000e+00  -1.1089720502185514e-05 2.1631837834303451e-05 0.0000000000000000e+00  -1.3270219489556840e-05 3.0417732460796087e-05 0.0000000000000000e+00  -1.5016720323272772e-05 4.0331474031761622e-05 0.0000000000000000e+00  -1.6702261672417089e-05 5.1724613637410086e-05 0.0000000000000000e+00  -1.8627638906106927e-05 6.4231970593659727e-05 0.0000000000000000e+00  -2.0091146043987469e-05 7.7897985687512436e-05 0.0000000000000000e+00  -2.1866827441040666e-05 9.2695653947082581e-05 0.0000000000000000e+00  -2.3197621497995749e-05 1.0853405060499609e-04 0.0000000000000000e+00  -2.4761192586884031e-05 1.2537342825519619e-04 0.0000000000000000e+00  -2.6000411945529851e-05 1.4302057308687859e-04 0.0000000000000000e+00  -2.7193633712942512e-05 1.6166564804441071e-04 0.0000000000000000e+00  -2.8535819248616771e-05 1.8105727047578168e-04 0.0000000000000000e+00  -2.9556570965488190e-05 2.0121852542733795e-04 0.0000000000000000e+00  -3.0762800445756275e-05 2.2212225538888216e-04 0.0000000000000000e+00  -3.1663459615957982e-05 2.4368825076059557e-04 0.0000000000000000e+00  -3.2706560343778703e-05 2.6586972191947967e-04 0.0000000000000000e+00  -3.3531902304017698e-05 2.8864091145005936e-04 0.0000000000000000e+00  -3.4423152099664249e-05 3.1197156972832894e-04 0.0000000000000000e+00  -3.5130928386387200e-05 3.3570801248186997e-04 0.0000000000000000e+00  -3.5792242524252788e-05 3.5996115350183690e-04 0.0000000000000000e+00  -3.6495635122381759e-05 3.8455643451182971e-04 0.0000000000000000e+00  -3.7064927478948680e-05 4.0954315864744160e-04 0.0000000000000000e+00  -3.7611300225475092e-05 4.3486445347430767e-04 0.0000000000000000e+00  -3.8075095959721747e-05 4.6044984533618385e-04 0.0000000000000000e+00  -3.8510962368097839e-05 4.8631004344613129e-04 0.0000000000000000e+00  -3.8875256976060897e-05 5.1236724158555365e-04 0.0000000000000000e+00  -3.9210394471498325e-05 5.3863499746357123e-04 0.0000000000000000e+00  -3.9484780410212429e-05 5.6504290466163410e-04 0.0000000000000000e+00  -3.9730785917112504e-05 5.9160536344155987e-04 0.0000000000000000e+00  -3.9926943173500716e-05 6.1826165185288921e-04 0.0000000000000000e+00  -4.0096768067923414e-05 6.4502642684244695e-04 0.0000000000000000e+00  -4.0228304090299242e-05 6.7184981946069361e-04 0.0000000000000000e+00  -4.0337643752104117e-05 6.9874485187490141e-04 0.0000000000000000e+00  -4.0418631857411585e-05 7.2567309873754844e-04 0.0000000000000000e+00  -4.0481253297891689e-05 7.5264586489655252e-04 0.0000000000000000e+00  -4.0524534889935980e-05 7.7963572848010977e-04 0.0000000000000000e+00  -4.0554999554827076e-05 8.0665140347665229e-04 0.0000000000000000e+00  -4.0572586863823661e-05 8.3367526352106118e-04 0.0000000000000000e+00  -4.0580890163636752e-05 8.6071285428485100e-04 0.0000000000000000e+00  -4.0585938901126278e-05 8.8775702069978041e-04 0.0000000000000000e+00  -4.0583964333037679e-05 9.1480758831807092e-04 0.0000000000000000e+00  -4.0578019777758116e-05 9.4186511459547065e-04 0.0000000000000000e+00  -2.2445592178677218e-05 9.6891847637719901e-04 0.0000000000000000e+00  1.3790793806992369e-05 9.6889981534730568e-04 0.0000000000000000e+00  3.1893365459808975e-05 9.4182672448050227e-04 0.0000000000000000e+00  3.1873390972230649e-05 9.1476638256321864e-04 0.0000000000000000e+00  3.1855473842675931e-05 8.8770920728819288e-04 0.0000000000000000e+00  3.1835983585833131e-05 8.6065813959732831e-04 0.0000000000000000e+00  3.1818845831699297e-05 8.3361220595714691e-04 0.0000000000000000e+00  3.1802044343665795e-05 8.0657697756795425e-04 0.0000000000000000e+00  3.1778365739981235e-05 7.7955257039456056e-04 0.0000000000000000e+00  3.1760613881137581e-05 7.5254517437569083e-04 0.0000000000000000e+00  3.1727166987430593e-05 7.2556359374808285e-04 0.0000000000000000e+00  3.1701771900635119e-05 6.9861432697224319e-04 0.0000000000000000e+00  3.1649050880583433e-05 6.7170973998003074e-04 0.0000000000000000e+00  3.1608434494904776e-05 6.4486234169041105e-04 0.0000000000000000e+00  3.1525702128809412e-05 6.1808799556600921e-04 0.0000000000000000e+00  3.1460352322383867e-05 5.9140668006280039e-04 0.0000000000000000e+00  3.1332884519610568e-05 5.6483563604157040e-04 0.0000000000000000e+00  3.1231494017354517e-05 5.3840338622895042e-04 0.0000000000000000e+00  3.1044742964858848e-05 5.1212882832852723e-04 0.0000000000000000e+00  3.0895553933313391e-05 4.8604929466136552e-04 0.0000000000000000e+00  3.0633979227351925e-05 4.6018456716375084e-04 0.0000000000000000e+00  3.0424548164872738e-05 4.3458020541745914e-04 0.0000000000000000e+00  3.0069632961995554e-05 4.0925804922825712e-04 0.0000000000000000e+00  2.9784354585623777e-05 3.8427231814946154e-04 0.0000000000000000e+00  2.9330876711235458e-05 3.5965215976715330e-04 0.0000000000000000e+00  2.8935539095961018e-05 3.3540291080512956e-04 0.0000000000000000e+00  2.8497983444654558e-05 3.1167087737432473e-04 0.0000000000000000e+00  2.7897000992176489e-05 2.8832755278479115e-04 0.0000000000000000e+00  2.7325730566237673e-05 2.6558171517148158e-04 0.0000000000000000e+00  2.6625971120080530e-05 2.4337478673160248e-04 0.0000000000000000e+00  2.5932852823264277e-05 2.2182761373422047e-04 0.0000000000000000e+00  2.5110016817321788e-05 2.0092406705337357e-04 0.0000000000000000e+00  2.4293824195694379e-05 1.8074019906274386e-04 0.0000000000000000e+00  2.3253926700027078e-05 1.6140373274104155e-04 0.0000000000000000e+00  2.2348335007518027e-05 1.4275394567199782e-04 0.0000000000000000e+00  2.1388107512032974e-05 1.2512600852131306e-04 0.0000000000000000e+00  2.0149702782473201e-05 1.0822969439802551e-04 0.0000000000000000e+00  1.8979350141367949e-05 9.2436037361675637e-05 0.0000000000000000e+00  1.7626142551843478e-05 7.7633430183227697e-05 0.0000000000000000e+00  1.6308815051899467e-05 6.3926156473099246e-05 0.0000000000000000e+00  1.4677611507647692e-05 5.1492037351147106e-05 0.0000000000000000e+00  1.3259094783192965e-05 4.0080774309205691e-05 0.0000000000000000e+00  1.1780896512572318e-05 3.0171125930866632e-05 0.0000000000000000e+00  9.9002864823305815e-06 2.1343424196978290e-05 0.0000000000000000e+00  8.1734157366038251e-06 1.4068203094412281e-05 0.0000000000000000e+00  6.0945656320639526e-06 8.2980057766427487e-06 0.0000000000000000e+00  4.2258200107787577e-06 4.1182763074715599e-06 0.0000000000000000e+00  1.9903491860797030e-06 1.5603047232349746e-06 0.0000000000000000e+00  -1.6909641363815185e-07 1.7941412217899156e-06 0.0000000000000000e+00  -4.8076301078144378e-06 9.2825069135774496e-04 0.0000000000000000e+00  -5.1061287742316776e-06 8.7654372157794467e-04 0.0000000000000000e+00  -4.7748679019903655e-06 7.9212345762685139e-04 0.0000000000000000e+00  -4.0720287431088062e-07 1.0114725311295902e-05 0.0000000000000000e+00  -4.3446740193415304e-06 7.3908055874757092e-04 0.0000000000000000e+00  -5.2148744227206527e-07 2.4054278274001126e-05 0.0000000000000000e+00  -4.2934702913795796e-06 6.8518553489730239e-04 0.0000000000000000e+00  -8.5259856025616475e-07 5.7417966900739686e-05 0.0000000000000000e+00  -1.3419560105289394e-06 8.4340761892594718e-05 0.0000000000000000e+00  -4.2105395903951430e-06 6.3149110517078623e-04 0.0000000000000000e+00  -1.6940906641772491e-06 1.7140229077278741e-04 0.0000000000000000e+00  -3.9392608927587837e-06 5.2524294696065527e-04 0.0000000000000000e+00  -1.3154311423765379e-06 1.1468002226464192e-04 0.0000000000000000e+00  -2.3223777728554163e-06 2.1098404254053774e-04 0.0000000000000000e+00  -3.7515059331765960e-06 4.7306080527950668e-04 0.0000000000000000e+00  -4.0927382963912841e-06 5.7812176487356988e-04 0.0000000000000000e+00  -2.6076717942102920e-06 2.5415715751530784e-04 0.0000000000000000e+00  -3.5312074646693573e-06 4.2182151641794564e-04 0.0000000000000000e+00  -2.4703401028693797e-06 2.9784937900613267e-04 0.0000000000000000e+00  -3.7122872896313652e-06 3.7282551742624754e-04 0.0000000000000000e+00  -3.0694109866540772e-06 3.3337224386384862e-04 0.0000000000000000e+00  -1.8574020908847369e-06 1.4088282611698170e-04 0.0000000000000000e+00  -4.3034393640759842e-06 8.3600425365329401e-04 0.0000000000000000e+00  -8.5107369277560558e-07 3.8715488389618831e-05 0.0000000000000000e+00  7.7617688592286715e-06 9.0220252017305465e-04 0.0000000000000000e+00  1.6889982845661288e-06 5.2163727916343953e-06 0.0000000000000000e+00  6.1594600758896406e-06 7.1210120535480101e-04 0.0000000000000000e+00  6.1488613041014406e-06 7.6606379151728367e-04 0.0000000000000000e+00  -3.8984090337827608e-06 1.6844258897643734e-05 0.0000000000000000e+00  -6.5017019374589856e-06 7.0194339535543411e-05 0.0000000000000000e+00  6.2470301631223843e-06 5.5159173619128646e-04 0.0000000000000000e+00  6.1815248023826590e-06 6.5829121446240332e-04 0.0000000000000000e+00  -1.0001333540417385e-05 1.9052092089625821e-04 0.0000000000000000e+00  6.2767390222143407e-06 4.9903361573474234e-04 0.0000000000000000e+00  -7.5718840590124109e-06 9.9818543037048351e-05 0.0000000000000000e+00  -1.0816368040824485e-05 2.3235153989378658e-04 0.0000000000000000e+00  6.2925744017149571e-06 4.4729145885890671e-04 0.0000000000000000e+00  6.2126878687615625e-06 6.0473963286518221e-04 0.0000000000000000e+00  -1.3498857455631505e-05 2.7652788585855382e-04 0.0000000000000000e+00  6.2890223798301908e-06 3.9662989819117645e-04 0.0000000000000000e+00  -4.2561713606479136e-07 4.1449682794793648e-07 0.0000000000000000e+00  2.7074704270064795e-07 3.2053019268877657e-07 0.0000000000000000e+00  -1.3142878116167566e-05 9.4953920953783630e-04 0.0000000000000000e+00  -2.4681136631420545e-06 5.3231913235016655e-06 0.0000000000000000e+00  8.4695809792433584e-06 3.5279004623459164e-04 0.00000000000000