<?xml version="1.0"?>
<VTKFile type="UnstructuredGrid"  version="0.1"  >
<UnstructuredGrid>
<Piece  NumberOfPoints="1419" NumberOfCells="2698">
<Points>
<DataArray  type="Float64"  NumberOfComponents="3"  format="ascii">0 0 0  0 0.41 0  2.5 0 0  2.5 0.41 0  0.6 0.19 0  0.6 0.21 0  0.25 0.2 0  0.15 0.2 0  0.2489897948556636 0.21 0  0.2489897948556636 0.19 0  0.6 0.2 0  0 0.3807142857143437 0  0 0.3514285714286952 0  0 0.3221428571430699 0  0 0.29285714285744 0  0 0.2635714285718054 0  0 0.2342857142861561 0  0 0.2050000000005308 0  0 0.175714285714732 0  0 0.1464285714289574 0  0 0.1171428571431897 0  0 0.08785714285737878 0  0 0.05857142857161107 0  0 0.02928571428580012 0  0.03015443760436003 0 0  0.06140001986583606 0 0  0.09377624077125973 0 0  0.1273239957535082 0 0  0.1620856860351972 0 0  0.1981052433264291 0 0  0.235428184091502 0 0  0.2741016576309132 0 0  0.3141745521465447 0 0  0.3556974926295285 0 0  0.3987229542472677 0 0  0.4433053055141081 0 0  0.4895008759286886 0 0  0.5373680609405097 0 0  0.5869673343216626 0 0  0.6383613676634521 0 0  0.6916151138468254 0 0  0.7467958595648856 0 0  0.8039733463919316 0 0  0.8632198139502143 0 0  0.9246101326867038 0 0  0.9882218810934433 0 0  1.054135445558498 0 0  1.122434100542598 0 0  1.193204177141305 0 0  1.266535089879536 0 0  1.342519516046404 0 0  1.421253448503939 0 0  1.502836389106271 0 0  1.587371439758838 0 0  1.674965418777374 0 0  1.765729001825544 0 0  1.859776908880082 0 0  1.957227977487062 0 0  2.058205329869943 0 0  2.162836591189951 0 0  2.271253957290865 0 0  2.383594446803425 0 0  2.5 0.1024999999997612 0  2.5 0.2049999999994743 0  2.5 0.3074999999997183 0  2.383594446803656 0.41 0  2.271253957291315 0.41 0  2.162836591190598 0.41 0  2.058205329870775 0.41 0  1.957227977488067 0.41 0  1.859776908881246 0.41 0  1.765729001826854 0.41 0  1.674965418778818 0.41 0  1.58737143976041 0.41 0  1.502836389107956 0.41 0  1.421253448505726 0.41 0  1.342519516048286 0.41 0  1.266535089881505 0.41 0  1.193204177143353 0.41 0  1.122434100544716 0.41 0  1.05413544556068 0.41 0  0.9882218810956305 0.41 0  0.9246101326886647 0.41 0  0.8632198139519631 0.41 0  0.8039733463934788 0.41 0  0.7467958595662458 0.41 0  0.6916151138480078 0.41 0  0.6383613676644679 0.41 0  0.5869673343225223 0.41 0  0.5373680609412221 0.41 0  0.4895008759292634 0.41 0  0.4433053055145528 0.41 0  0.3987229542475914 0.41 0  0.3556974926297398 0.41 0  0.3141745521466497 0.41 0  0.2741016576310038 0.41 0  0.2354281840915826 0.41 0  0.1981052433265003 0.41 0  0.1620856860352591 0.41 0  0.1273239957535623 0.41 0  0.09377624077128965 0.41 0  0.06140001986584975 0.41 0  0.03015443760436654 0.41 0  0.2497468076502589 0.2050254481002335 0  0.2497468076502614 0.1949745518997913 0  0.2469965252529372 0.1829317073451959 0  0.2439893735792749 0.1762316384219906 0  0.2400332147834255 0.1700443375285386 0  0.2352133972704371 0.1645032867342007 0  0.2296339016332438 0.1597280261969788 0  0.2234150974217223 0.1558215752574715 0  0.2166911463437691 0.1528682099456123 0  0.2096071079204251 0.1509316448471593 0  0.2023158100364996 0.1500536585536553 0  0.194974551899914 0.1502531923497262 0  0.1877417105387872 0.1515259415822739 0  0.1807733240461124 0.153844448527136 0  0.1742197252835808 0.15715869474974 0  0.1682222986673531 0.1613971801805478 0  0.162910430003803 0.1664684656256651 0  0.1583987151779087 0.1722631454351573 0  0.1547844879126891 0.178656207771761 0  0.1521457199348551 0.1855097315605723 0  0.1505393388476355 0.1926758619366523 0  0.1505393388476328 0.2073241380633295 0  0.1521457199348437 0.2144902684393899 0  0.1547844879126531 0.221343792228163 0  0.1583987151778488 0.2277368545647528 0  0.1629104300036858 0.2335315343742052 0  0.1682222986671726 0.2386028198193036 0  0.1742197252833576 0.2428413052501257 0  0.1807733240458683 0.2461555514727623 0  0.1877417105384929 0.2484740584176516 0  0.1949745518995776 0.2497468076502398 0  0.202315810036185 0.2499463414463592 0  0.2096071079201568 0.2490683551528932 0  0.2166911463435495 0.2471317900544655 0  0.2234150974215506 0.2441784247426195 0  0.2296339016331197 0.2402719738031125 0  0.2352133972703547 0.2354967132658811 0  0.2400332147833751 0.2299556624715287 0  0.2439893735792577 0.2237683615780412 0  0.246996525252926 0.2170682926548348 0  0.25645809709277 0.21 0  0.2639263993298655 0.21 0  0.271394701566961 0.21 0  0.2788630038040554 0.21 0  0.2863313060411479 0.21 0  0.2937996082782405 0.21 0  0.301267910515333 0.21 0  0.3087362127524279 0.21 0  0.3162045149895234 0.21 0  0.3236728172265972 0.21 0  0.3311411194636928 0.21 0  0.3386094217007701 0.21 0  0.3460777239378666 0.21 0  0.3535460261749672 0.21 0  0.3610143284120516 0.21 0  0.3684826306491596 0.21 0  0.3759509328862226 0.21 0  0.383419235123329 0.21 0  0.3908875373604028 0.21 0  0.3983558395975142 0.21 0  0.4058241418345938 0.21 0  0.4132924440716992 0.21 0  0.4207607463087888 0.21 0  0.4282290485459029 0.21 0  0.4356973507830418 0.21 0  0.4431656530201649 0.21 0  0.4506339552573136 0.21 0  0.4581022574944306 0.21 0  0.4655705597315852 0.21 0  0.4730388619686996 0.21 0  0.480507164205851 0.21 0  0.4879754664429498 0.21 0  0.4954437686800938 0.21 0  0.502912070917267 0.21 0  0.5103803731544119 0.21 0  0.5178486753915261 0.21 0  0.5253169776286404 0.21 0  0.5327852798657868 0.21 0  0.5402535821029386 0.21 0  0.54772188434007 0.21 0  0.5551901865771842 0.21 0  0.5626584888143201 0.21 0  0.5701267910514778 0.21 0  0.5775950932886138 0.21 0  0.5850633955257281 0.21 0  0.5925316977628483 0.21 0  0.6 0.2050000000000054 0  0.6 0.1950000000000217 0  0.5925316977628897 0.19 0  0.5850633955257988 0.19 0  0.5775950932887378 0.19 0  0.5701267910515998 0.19 0  0.5626584888145268 0.19 0  0.5551901865773963 0.19 0  0.547721884340339 0.19 0  0.5402535821032429 0.19 0  0.5327852798661811 0.19 0  0.5253169776290537 0.19 0  0.5178486753919799 0.19 0  0.5103803731549078 0.19 0  0.502912070917822 0.19 0  0.4954437686807294 0.19 0  0.4879754664436223 0.19 0  0.4805071642065402 0.19 0  0.4730388619694271 0.19 0  0.4655705597323621 0.19 0  0.4581022574952563 0.19 0  0.4506339552581777 0.19 0  0.4431656530210671 0.19 0  0.4356973507839815 0.19 0  0.4282290485468779 0.19 0  0.4207607463097617 0.19 0  0.4132924440726327 0.19 0  0.4058241418354857 0.19 0  0.3983558395983636 0.19 0  0.3908875373612097 0.19 0  0.3834192351240934 0.19 0  0.3759509328869369 0.19 0  0.3684826306498175 0.19 0  0.361014328412667 0.19 0  0.3535460261755617 0.19 0  0.3460777239384295 0.19 0  0.3386094217012945 0.19 0  0.3311411194641595 0.19 0  0.3236728172270245 0.19 0  0.3162045149898895 0.19 0  0.3087362127527544 0.19 0  0.3012679105156187 0.19 0  0.2937996082784807 0.19 0  0.2863313060413428 0.19 0  0.2788630038042048 0.19 0  0.2713947015670686 0.19 0  0.2639263993299336 0.19 0  0.2564580970927985 0.19 0  0.2607803159922026 0.2000727136295815 0  0.5887803774232762 0.2001272386983733 0  0.5745072403740523 0.2002044435018727 0  0.5511891430099709 0.2001122610077113 0  0.2751288526855082 0.20000000000002 0  0.5365194309847112 0.1999999999999436 0  0.2894621222999649 0.1998691686390484 0  0.5215828265105155 0.1999999999999228 0  0.3127789816668748 0.1998657885438805 0  0.3274069683451451 0.2000000000000796 0  0.5066462220363641 0.199999999999908 0  0.3650630746574081 0.199866017807523 0  0.476773013087985 0.1999999999998713 0  0.3417402379596385 0.1998691686391011 0  0.3796850840047755 0.200000000000134 0  0.4618364086138087 0.1999999999998546 0  0.4917096175621762 0.1999999999998808 0  0.3946216884789568 0.2000000000001512 0  0.446899804139621 0.1999999999998389 0  0.4089549580935208 0.1998691686391595 0  0.4322718174608562 0.200127451265745 0  0.4201487168029707 0.1999966199048527 0  0.3528922713220932 0.2000185703532356 0  0.5633122436674589 0.1999814296467508 0  0.3006558810093873 0.1999966199048318 0  0.5815926498168407 0.1966545283159175 0  0.2677053789419034 0.1964246479135325 0  0.5290511287476175 0.1970915826863981 0  0.5439877332217911 0.197091582686394 0  0.2825131256993216 0.2035478995978015 0  0.3199386661080599 0.202908417313604 0  0.4842413153250809 0.1970915826863873 0  0.5141145242734466 0.1970915826863843 0  0.3722167817676917 0.2029084173136195 0  0.4693047108508938 0.1970915826863783 0  0.3348752705822316 0.202908417313609 0  0.3871533862418661 0.2029084173136212 0  0.4543681063767183 0.1970915826863795 0  0.4991779197992749 0.1970915826863902 0  0.4020059614928624 0.203547899597858 0  0.4394315019025246 0.1970915826863714 0  0.2550657455369551 0.2034088125358657 0  0.2548908499171161 0.1966940311614271 0  0.5946539510196798 0.2024302972968126 0  0.267698176732111 0.2039977513680092 0  0.4261685417851465 0.196409292431739 0  0.3590076176283495 0.196411355804271 0  0.5571672426447437 0.2036011176410121 0  0.3066757059912147 0.1964092924317024 0  0.594380730180568 0.1966558399668133 0  0.4842413153245942 0.2040749161535287 0  0.4693047108503577 0.2040749161535231 0  0.3871533862424271 0.1959250838464788 0  0.372246743208829 0.1959123236376545 0  0.5141145242731028 0.2040749161535395 0  0.4543681063761134 0.2040749161535186 0  0.4019979587101454 0.1959834479682427 0  0.4394608940728603 0.2040870543693135 0  0.5439623148931173 0.2040856076781014 0  0.5290511287473298 0.2040749161535501 0  0.4991779197988497 0.2040749161535382 0  0.3347912413592433 0.1959225448935183 0  0.3199680582793816 0.1959123018030061 0  0.2825051229162361 0.1959834479681729 0  0.3590471196690275 0.2036304442587945 0  0.5571594006495384 0.1963685282145804 0  0.3067669986803285 0.203627750582736 0  0.4262598344738712 0.2036568242185335 0  0.5814408164431408 0.2041285596160068 0  0.5688286748170428 0.1961819304477386 0  0.4145905603063645 0.2038180695522843 0  0.3473758401724931 0.2038180695522752 0  0.2950977245128307 0.2038180695522663 0  0.5688286748170693 0.203818069552238 0  0.2950977245127906 0.1961819304477774 0  0.3473758401723931 0.1961819304478349 0  0.4145905603061963 0.1961819304479011 0  0.2601812407614425 0.2056861609747042
[...]
<PointData  Vectors="f_46-0"> 
<DataArray  type="Float64"  Name="f_46-0"  NumberOfComponents="3" format="ascii">0.0000000000000000e+00 0.0000000000000000e+00 0.0000000000000000e+00  0.0000000000000000e+00 0.0000000000000000e+00 0.0000000000000000e+00  0.0000000000000000e+00 0.0000000000000000e+00 0.0000000000000000e+00  0.0000000000000000e+00 0.0000000000000000e+00 0.0000000000000000e+00  3.3846887907642146e-05 9.8830923272938431e-04 0.0000000000000000e+00  -4.0321265749102678e-05 9.8823608491464148e-04 0.0000000000000000e+00  0.0000000000000000e+00 0.0000000000000000e+00 0.0000000000000000e+00  0.0000000000000000e+00 0.0000000000000000e+00 0.0000000000000000e+00  0.0000000000000000e+00 0.0000000000000000e+00 0.0000000000000000e+00  0.0000000000000000e+00 0.0000000000000000e+00 0.0000000000000000e+00  -3.2090113031973817e-06 9.8826042034119103e-04 0.0000000000000000e+00  7.9591836734548407e-02 0.0000000000000000e+00 0.0000000000000000e+00  1.4693877550994527e-01 0.0000000000000000e+00 0.0000000000000000e+00  2.0204081632617479e-01 0.0000000000000000e+00 0.0000000000000000e+00  2.4489795918330076e-01 0.0000000000000000e+00 0.0000000000000000e+00  2.7551020408131754e-01 0.0000000000000000e+00 0.0000000000000000e+00  2.9387755102022350e-01 0.0000000000000000e+00 0.0000000000000000e+00  3.0000000000000004e-01 0.0000000000000000e+00 0.0000000000000000e+00  2.9387755102059482e-01 0.0000000000000000e+00 0.0000000000000000e+00  2.7551020408195548e-01 0.0000000000000000e+00 0.0000000000000000e+00  2.4489795918409071e-01 0.0000000000000000e+00 0.0000000000000000e+00  2.0204081632692525e-01 0.0000000000000000e+00 0.0000000000000000e+00  1.4693877551058568e-01 0.0000000000000000e+00 0.0000000000000000e+00  7.9591836734909230e-02 0.0000000000000000e+00 0.0000000000000000e+00  0.0000000000000000e+00 0.0000000000000000e+00 0.0000000000000000e+00  0.0000000000000000e+00 0.0000000000000000e+00 0.0000000000000000e+00  0.0000000000000000e+00 0.0000000000000000e+00 0.0000000000000000e+00  0.0000000000000000e+00 0.0000000000000000e+00 0.0000000000000000e+00  0.0000000000000000e+00 0.0000000000000000e+00 0.0000000000000000e+00  0.0000000000000000e+00 0.0000000000000000e+00 0.0000000000000000e+00  0.0000000000000000e+00 0.0000000000000000e+00 0.0000000000000000e+00  0.0000000000000000e+00 0.0000000000000000e+00 0.0000000000000000e+00  0.0000000000000000e+00 0.0000000000000000e+00 0.0000000000000000e+00  0.0000000000000000e+00 0.0000000000000000e+00 0.0000000000000000e+00  0.0000000000000000e+00 0.0000000000000000e+00 0.0000000000000000e+00  0.0000000000000000e+00 0.0000000000000000e+00 0.0000000000000000e+00  0.0000000000000000e+00 0.0000000000000000e+00 0.0000000000000000e+00  0.0000000000000000e+00 0.0000000000000000e+00 0.0000000000000000e+00  0.0000000000000000e+00 0.0000000000000000e+00 0.0000000000000000e+00  0.0000000000000000e+00 0.0000000000000000e+00 0.0000000000000000e+00  0.0000000000000000e+00 0.0000000000000000e+00 0.0000000000000000e+00  0.0000000000000000e+00 0.0000000000000000e+00 0.0000000000000000e+00  0.0000000000000000e+00 0.0000000000000000e+00 0.0000000000000000e+00  0.0000000000000000e+00 0.0000000000000000e+00 0.0000000000000000e+00  0.0000000000000000e+00 0.0000000000000000e+00 0.0000000000000000e+00  0.0000000000000000e+00 0.0000000000000000e+00 0.0000000000000000e+00  0.0000000000000000e+00 0.0000000000000000e+00 0.0000000000000000e+00  0.0000000000000000e+00 0.0000000000000000e+00 0.0000000000000000e+00  0.0000000000000000e+00 0.0000000000000000e+00 0.0000000000000000e+00  0.0000000000000000e+00 0.0000000000000000e+00 0.0000000000000000e+00  0.0000000000000000e+00 0.0000000000000000e+00 0.0000000000000000e+00  0.0000000000000000e+00 0.0000000000000000e+00 0.0000000000000000e+00  0.0000000000000000e+00 0.0000000000000000e+00 0.0000000000000000e+00  0.0000000000000000e+00 0.0000000000000000e+00 0.0000000000000000e+00  0.0000000000000000e+00 0.0000000000000000e+00 0.0000000000000000e+00  0.0000000000000000e+00 0.0000000000000000e+00 0.0000000000000000e+00  0.0000000000000000e+00 0.0000000000000000e+00 0.0000000000000000e+00  0.0000000000000000e+00 0.0000000000000000e+00 0.0000000000000000e+00  0.0000000000000000e+00 0.0000000000000000e+00 0.0000000000000000e+00  0.0000000000000000e+00 0.0000000000000000e+00 0.0000000000000000e+00  0.0000000000000000e+00 0.0000000000000000e+00 0.0000000000000000e+00  0.0000000000000000e+00 0.0000000000000000e+00 0.0000000000000000e+00  2.4648650357810320e-01 1.3117828706390954e-03 0.0000000000000000e+00  3.0940598369747063e-01 4.2899846341089972e-03 0.0000000000000000e+00  2.4003886572353905e-01 -5.1590389196115288e-03 0.0000000000000000e+00  0.0000000000000000e+00 0.0000000000000000e+00 0.0000000000000000e+00  0.0000000000000000e+00 0.0000000000000000e+00 0.0000000000000000e+00  0.0000000000000000e+00 0.0000000000000000e+00 0.0000000000000000e+00  0.0000000000000000e+00 0.0000000000000000e+00 0.0000000000000000e+00  0.0000000000000000e+00 0.0000000000000000e+00 0.0000000000000000e+00  0.0000000000000000e+00 0.0000000000000000e+00 0.0000000000000000e+00  0.0000000000000000e+00 0.0000000000000000e+00 0.0000000000000000e+00  0.0000000000000000e+00 0.0000000000000000e+00 0.0000000000000000e+00  0.0000000000000000e+00 0.0000000000000000e+00 0.0000000000000000e+00  0.0000000000000000e+00 0.0000000000000000e+00 0.0000000000000000e+00  0.0000000000000000e+00 0.0000000000000000e+00 0.0000000000000000e+00  0.0000000000000000e+00 0.0000000000000000e+00 0.0000000000000000e+00  0.0000000000000000e+00 0.0000000000000000e+00 0.0000000000000000e+00  0.0000000000000000e+00 0.0000000000000000e+00 0.0000000000000000e+00  0.0000000000000000e+00 0.0000000000000000e+00 0.0000000000000000e+00  0.0000000000000000e+00 0.0000000000000000e+00 0.0000000000000000e+00  0.0000000000000000e+00 0.0000000000000000e+00 0.0000000000000000e+00  0.0000000000000000e+00 0.0000000000000000e+00 0.0000000000000000e+00  0.0000000000000000e+00 0.0000000000000000e+00 0.0000000000000000e+00  0.0000000000000000e+00 0.0000000000000000e+00 0.0000000000000000e+00  0.0000000000000000e+00 0.0000000000000000e+00 0.0000000000000000e+00  0.0000000000000000e+00 0.0000000000000000e+00 0.0000000000000000e+00  0.0000000000000000e+00 0.0000000000000000e+00 0.0000000000000000e+00  0.0000000000000000e+00 0.0000000000000000e+00 0.0000000000000000e+00  0.0000000000000000e+00 0.0000000000000000e+00 0.0000000000000000e+00  0.0000000000000000e+00 0.0000000000000000e+00 0.0000000000000000e+00  0.0000000000000000e+00 0.0000000000000000e+00 0.0000000000000000e+00  0.0000000000000000e+00 0.0000000000000000e+00 0.0000000000000000e+00  0.0000000000000000e+00 0.0000000000000000e+00 0.0000000000000000e+00  0.0000000000000000e+00 0.0000000000000000e+00 0.0000000000000000e+00  0.0000000000000000e+00 0.0000000000000000e+00 0.0000000000000000e+00  0.0000000000000000e+00 0.0000000000000000e+00 0.0000000000000000e+00  0.0000000000000000e+00 0.0000000000000000e+00 0.0000000000000000e+00  0.0000000000000000e+00 0.0000000000000000e+00 0.0000000000000000e+00  0.0000000000000000e+00 0.0000000000000000e+00 0.0000000000000000e+00  0.0000000000000000e+00 0.0000000000000000e+00 0.0000000000000000e+00  0.0000000000000000e+00 0.0000000000000000e+00 0.0000000000000000e+00  0.0000000000000000e+00 0.0000000000000000e+00 0.0000000000000000e+00  0.0000000000000000e+00 0.0000000000000000e+00 0.0000000000000000e+00  0.0000000000000000e+00 0.0000000000000000e+00 0.0000000000000000e+00  -1.1018187844869633e-13 0.0000000000000000e+00 0.0000000000000000e+00  0.0000000000000000e+00 0.0000000000000000e+00 0.0000000000000000e+00  0.0000000000000000e+00 0.0000000000000000e+00 0.0000000000000000e+00  0.0000000000000000e+00 0.0000000000000000e+00 0.0000000000000000e+00  0.0000000000000000e+00 0.0000000000000000e+00 0.0000000000000000e+00  0.0000000000000000e+00 0.0000000000000000e+00 0.0000000000000000e+00  0.0000000000000000e+00 0.0000000000000000e+00 0.0000000000000000e+00  0.0000000000000000e+00 0.0000000000000000e+00 0.0000000000000000e+00  0.0000000000000000e+00 0.0000000000000000e+00 0.0000000000000000e+00  0.0000000000000000e+00 0.0000000000000000e+00 0.0000000000000000e+00  0.0000000000000000e+00 0.0000000000000000e+00 0.0000000000000000e+00  0.0000000000000000e+00 0.0000000000000000e+00 0.0000000000000000e+00  0.0000000000000000e+00 0.0000000000000000e+00 0.0000000000000000e+00  0.0000000000000000e+00 0.0000000000000000e+00 0.0000000000000000e+00  0.0000000000000000e+00 0.0000000000000000e+00 0.0000000000000000e+00  0.0000000000000000e+00 0.0000000000000000e+00 0.0000000000000000e+00  0.0000000000000000e+00 0.0000000000000000e+00 0.0000000000000000e+00  0.0000000000000000e+00 0.0000000000000000e+00 0.0000000000000000e+00  0.0000000000000000e+00 0.0000000000000000e+00 0.0000000000000000e+00  0.0000000000000000e+00 0.0000000000000000e+00 0.0000000000000000e+00  0.0000000000000000e+00 0.0000000000000000e+00 0.0000000000000000e+00  0.0000000000000000e+00 0.0000000000000000e+00 0.0000000000000000e+00  0.0000000000000000e+00 0.0000000000000000e+00 0.0000000000000000e+00  0.0000000000000000e+00 0.0000000000000000e+00 0.0000000000000000e+00  0.0000000000000000e+00 0.0000000000000000e+00 0.0000000000000000e+00  0.0000000000000000e+00 0.0000000000000000e+00 0.0000000000000000e+00  0.0000000000000000e+00 0.0000000000000000e+00 0.0000000000000000e+00  0.0000000000000000e+00 0.0000000000000000e+00 0.0000000000000000e+00  0.0000000000000000e+00 0.0000000000000000e+00 0.0000000000000000e+00  0.0000000000000000e+00 0.0000000000000000e+00 0.0000000000000000e+00  0.0000000000000000e+00 0.0000000000000000e+00 0.0000000000000000e+00  0.0000000000000000e+00 0.0000000000000000e+00 0.0000000000000000e+00  0.0000000000000000e+00 0.0000000000000000e+00 0.0000000000000000e+00  0.0000000000000000e+00 0.0000000000000000e+00 0.0000000000000000e+00  0.0000000000000000e+00 0.0000000000000000e+00 0.0000000000000000e+00  0.0000000000000000e+00 0.0000000000000000e+00 0.0000000000000000e+00  0.0000000000000000e+00 0.0000000000000000e+00 0.0000000000000000e+00  0.0000000000000000e+00 0.0000000000000000e+00 0.0000000000000000e+00  -2.2265532253523378e-06 1.8309150413052473e-06 0.0000000000000000e+00  -4.7283078552241253e-06 4.5192676554242154e-06 0.0000000000000000e+00  -6.8989236989119355e-06 8.8930229822796852e-06 0.0000000000000000e+00  -9.2280814964009062e-06 1.5036714464325424e-05 0.0000000000000000e+00  -1.1140052649461493e-05 2.2635864685231046e-05 0.0000000000000000e+00  -1.3299938633835307e-05 3.1819899492180855e-05 0.0000000000000000e+00  -1.5006394228703276e-05 4.2164805494307008e-05 0.0000000000000000e+00  -1.6644086054313224e-05 5.4025610071150206e-05 0.0000000000000000e+00  -1.8519672539317500e-05 6.7021837474272325e-05 0.0000000000000000e+00  -1.9918224194519159e-05 8.1191506722500835e-05 0.0000000000000000e+00  -2.1624542916197695e-05 9.6503166849249892e-05 0.0000000000000000e+00  -2.2877110684729568e-05 1.1285503083414255e-04 0.0000000000000000e+00  -2.4354042680748666e-05 1.3020342067435910e-04 0.0000000000000000e+00  -2.5503631556877050e-05 1.4835102391988229e-04 0.0000000000000000e+00  -2.6602381045890899e-05 1.6747958299668359e-04 0.0000000000000000e+00  -2.7842303486280823e-05 1.8733734589697747e-04 0.0000000000000000e+00  -2.8764347215562330e-05 2.0794303863682403e-04 0.0000000000000000e+00  -2.9863071343376094e-05 2.2926724864559829e-04 0.0000000000000000e+00  -3.0665682483858129e-05 2.5122948156003198e-04 0.0000000000000000e+00  -3.1605076888688775e-05 2.7378167020959590e-04 0.0000000000000000e+00  -3.2337371265884659e-05 2.9690021158629347e-04 0.0000000000000000e+00  -3.3136664535695246e-05 3.2055391379437508e-04 0.0000000000000000e+00  -3.3765197898175467e-05 3.4459707062167987e-04 0.0000000000000000e+00  -3.4355580861635733e-05 3.6913826053800450e-04 0.0000000000000000e+00  -3.4994516051486839e-05 3.9400893644899517e-04 0.0000000000000000e+00  -3.5515116159210005e-05 4.1926686340243793e-04 0.0000000000000000e+00  -3.6026558902900296e-05 4.4485016281798582e-04 0.0000000000000000e+00  -3.6469490784166182e-05 4.7070742941404794e-04 0.0000000000000000e+00  -3.6900097499145146e-05 4.9683967228042849e-04 0.0000000000000000e+00  -3.7273174992635969e-05 5.2318932119027562e-04 0.0000000000000000e+00  -3.7633148509662200e-05 5.4975944840968247e-04 0.0000000000000000e+00  -3.7944627478586141e-05 5.7649875877060781e-04 0.0000000000000000e+00  -3.8242864629609010e-05 6.0341027876859726e-04 0.0000000000000000e+00  -3.8501157666188105e-05 6.3044983735343750e-04 0.0000000000000000e+00  -3.8746279414565051e-05 6.5762051028501827e-04 0.0000000000000000e+00  -3.8958373547996214e-05 6.8488431849908873e-04 0.0000000000000000e+00  -3.9158096328523039e-05 7.1224475417830814e-04 0.0000000000000000e+00  -3.9331179051457465e-05 7.3966997613823576e-04 0.0000000000000000e+00  -3.9493118012477018e-05 7.6716371739894945e-04 0.0000000000000000e+00  -3.9633549208207915e-05 7.9469905664349648e-04 0.0000000000000000e+00  -3.9765268932984304e-05 8.2228312553117762e-04 0.0000000000000000e+00  -3.9877833482248264e-05 8.4988987143560547e-04 0.0000000000000000e+00  -3.9978486063544234e-05 8.7752672733526114e-04 0.0000000000000000e+00  -4.0076272031902898e-05 9.0517827129868455e-04 0.0000000000000000e+00  -4.0159673208032959e-05 9.3284398721384630e-04 0.0000000000000000e+00  -4.0239314407816600e-05 9.6052513531796760e-04 0.0000000000000000e+00  -2.1751102267079159e-05 9.8824394656477706e-04 0.0000000000000000e+00  1.5322499688538424e-05 9.8828108850825165e-04 0.0000000000000000e+00  3.3901318567495177e-05 9.6062066155762577e-04 0.0000000000000000e+00  3.3948394650610051e-05 9.3293462762094844e-04 0.0000000000000000e+00  3.3994810175278495e-05 9.0525805022855768e-04 0.0000000000000000e+00  3.4034021392002481e-05 8.7759860249835161e-04 0.0000000000000000e+00  3.4074431961039589e-05 8.4995526437975214e-04 0.0000000000000000e+00  3.4109730718821919e-05 8.2234170618250947e-04 0.0000000000000000e+00  3.4128414753151131e-05 7.9475651825926035e-04 0.0000000000000000e+00  3.4151048960685006e-05 7.6721341952247729e-04 0.0000000000000000e+00  3.4143572368492393e-05 7.3971869156134432e-04 0.0000000000000000e+00  3.4144537700376266e-05 7.1228846142535967e-04 0.0000000000000000e+00  3.4102375238589265e-05 6.8492814018571635e-04 0.0000000000000000e+00  3.4072733683885301e-05 6.5766039569757563e-04 0.0000000000000000e+00  3.3984631159996512e-05 6.3049064287557064e-04 0.0000000000000000e+00  3.3915786333749670e-05 6.0344800812688656e-04 0.0000000000000000e+00  3.3770936550106019e-05 5.7653794741520674e-04 0.0000000000000000e+00  3.3654331193144720e-05 5.4979592395231359e-04 0.0000000000000000e+00  3.3441620320685728e-05 5.2322765695193927e-04 0.0000000000000000e+00  3.3268204708528659e-05 4.9687520731718873e-04 0.0000000000000000e+00  3.2975766955443600e-05 4.7074454976375946e-04 0.0000000000000000e+00  3.2736357159307405e-05 4.4488382990969688e-04 0.0000000000000000e+00  3.2349284124709117e-05 4.1930241407080600e-04 0.0000000000000000e+00  3.2030400016881079e-05 3.9405574166759294e-04 0.0000000000000000e+00  3.1544058274595823e-05 3.6916201962466797e-04 0.0000000000000000e+00  3.1113890415971300e-05 3.4462643050720638e-04 0.0000000000000000e+00  3.0640302838041826e-05 3.2058697015004215e-04 0.0000000000000000e+00  3.0007767562513493e-05 2.9691752035926355e-04 0.0000000000000000e+00  2.9400106503302372e-05 2.7381997728617491e-04 0.0000000000000000e+00  2.8664934934236582e-05 2.5123571128200805e-04 0.0000000000000000e+00  2.7931765517330224e-05 2.2928475335597622e-04 0.0000000000000000e+00  2.7068530118802177e-05 2.0795110752549491e-04 0.0000000000000000e+00  2.6206468340128052e-05 1.8731374056827588e-04 0.0000000000000000e+00  2.5118872297693302e-05 1.6749906989876293e-04 0.0000000000000000e+00  2.4156640870385044e-05 1.4835549901678530e-04 0.0000000000000000e+00  2.3133463936994653e-05 1.3021730293184664e-04 0.0000000000000000e+00  2.1827731520254147e-05 1.1280088341842372e-04 0.0000000000000000e+00  2.0579790464334925e-05 9.6483887136728516e-05 0.0000000000000000e+00  1.9139316716673220e-05 8.1157531396810502e-05 0.0000000000000000e+00  1.7725223883349336e-05 6.6937608964625592e-05 0.0000000000000000e+00  1.5980897189756888e-05 5.4007362229091963e-05 0.0000000000000000e+00  1.4444319765822981e-05 4.2121908126411057e-05 0.0000000000000000e+00  1.2836330957092243e-05 3.1775959760332643e-05 0.0000000000000000e+00  1.0805014059604596e-05 2.2543603945504397e-05 0.0000000000000000e+00  8.9205192313797269e-06 1.4919942827525368e-05 0.0000000000000000e+00  6.6612026442422299e-06 8.8580762552417592e-06 0.0000000000000000e+00  4.6133769140807668e-06 4.4572118258126395e-06 0.0000000000000000e+00  2.1786158942678162e-06 1.7467312694995595e-06 0.0000000000000000e+00  -6.1435739654820315e-08 1.9094561438795335e-06 0.0000000000000000e+00  -3.5969983571277401e-06 9.4665772091412500e-04 0.0000000000000000e+00  -3.7648603837389491e-06 8.9376673196719404e-04 0.0000000000000000e+00  -3.1971544705616933e-06 8.0750230282519611e-04 0.0000000000000000e+00  -1.1249541074693513e-07 1.0673735410997938e-05 0.0000000000000000e+00  -2.6284329118967857e-06 7.5339558071872454e-04 0.0000000000000000e+00  -5.0347685474377352e-08 2.5289023515613106e-05 0.0000000000000000e+00  -2.4638064515165184e-06 6.9852093654090754e-04 0.0000000000000000e+00  -1.1653467818099057e-07 6.0078278569399430e-05 0.0000000000000000e+00  -4.5737020051340113e-07 8.8004146098891943e-05 0.0000000000000000e+00  -2.2945669807690222e-06 6.4396536907456033e-04 0.0000000000000000e+00  -4.1675082352416844e-07 1.7762958069124113e-04 0.0000000000000000e+00  -1.9507688230818510e-06 5.3633892849084934e-04 0.0000000000000000e+00  -2.7290193858690437e-07 1.1934787091466933e-04 0.0000000000000000e+00  -9.1089565801121647e-07 2.1809001021511737e-04 0.0000000000000000e+00  -1.7799556438858269e-06 4.8359726945492620e-04 0.0000000000000000e+00  -2.1228948860047895e-06 5.8985431888403941e-04 0.0000000000000000e+00  -1.0572241213299051e-06 2.6206337387718403e-04 0.0000000000000000e+00  -1.6100766147488963e-06 4.3183653228943356e-04 0.0000000000000000e+00  -7.8997651366921351e-07 3.0642883123978911e-04 0.0000000000000000e+00  -1.8732430338518223e-06 3.8232323752774054e-04 0.0000000000000000e+00  -1.3097444400640075e-06 3.4241177195806397e-04 0.0000000000000000e+00  -7.1139654752820450e-07 1.4631053240973739e-04 0.0000000000000000e+00  -2.8332215827917229e-06 8.5232732586257385e-04 0.0000000000000000e+00  -2.5798929362007722e-07 4.0599451426356584e-05 0.0000000000000000e+00  9.3245160431364241e-06 9.2003429321866909e-04 0.0000000000000000e+00  1.9876381532312845e-06 5.5576582127159095e-06 0.0000000000000000e+00  8.1236785879698682e-06 7.2593858898512605e-04 0.0000000000000000e+00  8.0079524262526837e-06 7.8093252141280391e-04 0.0000000000000000e+00  -3.6703785179853186e-06 1.7697925828330511e-05 0.0000000000000000e+00  -5.8887610134433017e-06 7.3307423995359040e-05 0.0000000000000000e+00  8.3581085332000412e-06 5.6303341281829463e-04 0.0000000000000000e+00  8.2252173301483015e-06 6.7121139157573972e-04 0.0000000000000000e+00  -8.8348317072950966e-06 1.9714347459169146e-04 0.0000000000000000e+00  8.3751938742342532e-06 5.0988515504437151e-04 0.0000000000000000e+00  -6.8059912544324793e-06 1.0396985597726640e-04 0.0000000000000000e+00  -9.4900908842566658e-06 2.3982289815000236e-04 0.0000000000000000e+00  8.3502326547323525e-06 4.5761055509301464e-04 0.0000000000000000e+00  8.3057335824313668e-06 6.1686354741875805e-04 0.0000000000000000e+00  -1.2051346588917953e-05 2.8473069731855058e-04 0.0000000000000000e+00  8.2817517419552645e-06 4.0643197766428786e-04 0.0000000000000000e+00  -4.0268620551585531e-07 4.2279324721780607e-07 0.0000000000000000e+00  3.2747200341438633e-07 3.6862047458598110e-07 0.0000000000000000e+00  -1.2178472358713990e-05 9.6842476948187563e-04 0.0000000000000000e+00  -2.3747596468340192e-06 5.5885187359997452e-06 0.0000000000000000e+00  1.0414854600766942e-05 3.6212301948769195e-04 0.000000000000000