<?xml version="1.0"?>
<VTKFile type="UnstructuredGrid"  version="0.1"  >
<UnstructuredGrid>
<Piece  NumberOfPoints="1419" NumberOfCells="2698">
<Points>
<DataArray  type="Float64"  NumberOfComponents="3"  format="ascii">0 0 0  0 0.41 0  2.5 0 0  2.5 0.41 0  0.6 0.19 0  0.6 0.21 0  0.25 0.2 0  0.15 0.2 0  0.2489897948556636 0.21 0  0.2489897948556636 0.19 0  0.6 0.2 0  0 0.3807142857143437 0  0 0.3514285714286952 0  0 0.3221428571430699 0  0 0.29285714285744 0  0 0.2635714285718054 0  0 0.2342857142861561 0  0 0.2050000000005308 0  0 0.175714285714732 0  0 0.1464285714289574 0  0 0.1171428571431897 0  0 0.08785714285737878 0  0 0.05857142857161107 0  0 0.02928571428580012 0  0.03015443760436003 0 0  0.06140001986583606 0 0  0.09377624077125973 0 0  0.1273239957535082 0 0  0.1620856860351972 0 0  0.1981052433264291 0 0  0.235428184091502 0 0  0.2741016576309132 0 0  0.3141745521465447 0 0  0.3556974926295285 0 0  0.3987229542472677 0 0  0.4433053055141081 0 0  0.4895008759286886 0 0  0.5373680609405097 0 0  0.5869673343216626 0 0  0.6383613676634521 0 0  0.6916151138468254 0 0  0.7467958595648856 0 0  0.8039733463919316 0 0  0.8632198139502143 0 0  0.9246101326867038 0 0  0.9882218810934433 0 0  1.054135445558498 0 0  1.122434100542598 0 0  1.193204177141305 0 0  1.266535089879536 0 0  1.342519516046404 0 0  1.421253448503939 0 0  1.502836389106271 0 0  1.587371439758838 0 0  1.674965418777374 0 0  1.765729001825544 0 0  1.859776908880082 0 0  1.957227977487062 0 0  2.058205329869943 0 0  2.162836591189951 0 0  2.271253957290865 0 0  2.383594446803425 0 0  2.5 0.1024999999997612 0  2.5 0.2049999999994743 0  2.5 0.3074999999997183 0  2.383594446803656 0.41 0  2.271253957291315 0.41 0  2.162836591190598 0.41 0  2.058205329870775 0.41 0  1.957227977488067 0.41 0  1.859776908881246 0.41 0  1.765729001826854 0.41 0  1.674965418778818 0.41 0  1.58737143976041 0.41 0  1.502836389107956 0.41 0  1.421253448505726 0.41 0  1.342519516048286 0.41 0  1.266535089881505 0.41 0  1.193204177143353 0.41 0  1.122434100544716 0.41 0  1.05413544556068 0.41 0  0.9882218810956305 0.41 0  0.9246101326886647 0.41 0  0.8632198139519631 0.41 0  0.8039733463934788 0.41 0  0.7467958595662458 0.41 0  0.6916151138480078 0.41 0  0.6383613676644679 0.41 0  0.5869673343225223 0.41 0  0.5373680609412221 0.41 0  0.4895008759292634 0.41 0  0.4433053055145528 0.41 0  0.3987229542475914 0.41 0  0.3556974926297398 0.41 0  0.3141745521466497 0.41 0  0.2741016576310038 0.41 0  0.2354281840915826 0.41 0  0.1981052433265003 0.41 0  0.1620856860352591 0.41 0  0.1273239957535623 0.41 0  0.09377624077128965 0.41 0  0.06140001986584975 0.41 0  0.03015443760436654 0.41 0  0.2497468076502589 0.2050254481002335 0  0.2497468076502614 0.1949745518997913 0  0.2469965252529372 0.1829317073451959 0  0.2439893735792749 0.1762316384219906 0  0.2400332147834255 0.1700443375285386 0  0.2352133972704371 0.1645032867342007 0  0.2296339016332438 0.1597280261969788 0  0.2234150974217223 0.1558215752574715 0  0.2166911463437691 0.1528682099456123 0  0.2096071079204251 0.1509316448471593 0  0.2023158100364996 0.1500536585536553 0  0.194974551899914 0.1502531923497262 0  0.1877417105387872 0.1515259415822739 0  0.1807733240461124 0.153844448527136 0  0.1742197252835808 0.15715869474974 0  0.1682222986673531 0.1613971801805478 0  0.162910430003803 0.1664684656256651 0  0.1583987151779087 0.1722631454351573 0  0.1547844879126891 0.178656207771761 0  0.1521457199348551 0.1855097315605723 0  0.1505393388476355 0.1926758619366523 0  0.1505393388476328 0.2073241380633295 0  0.1521457199348437 0.2144902684393899 0  0.1547844879126531 0.221343792228163 0  0.1583987151778488 0.2277368545647528 0  0.1629104300036858 0.2335315343742052 0  0.1682222986671726 0.2386028198193036 0  0.1742197252833576 0.2428413052501257 0  0.1807733240458683 0.2461555514727623 0  0.1877417105384929 0.2484740584176516 0  0.1949745518995776 0.2497468076502398 0  0.202315810036185 0.2499463414463592 0  0.2096071079201568 0.2490683551528932 0  0.2166911463435495 0.2471317900544655 0  0.2234150974215506 0.2441784247426195 0  0.2296339016331197 0.2402719738031125 0  0.2352133972703547 0.2354967132658811 0  0.2400332147833751 0.2299556624715287 0  0.2439893735792577 0.2237683615780412 0  0.246996525252926 0.2170682926548348 0  0.25645809709277 0.21 0  0.2639263993298655 0.21 0  0.271394701566961 0.21 0  0.2788630038040554 0.21 0  0.2863313060411479 0.21 0  0.2937996082782405 0.21 0  0.301267910515333 0.21 0  0.3087362127524279 0.21 0  0.3162045149895234 0.21 0  0.3236728172265972 0.21 0  0.3311411194636928 0.21 0  0.3386094217007701 0.21 0  0.3460777239378666 0.21 0  0.3535460261749672 0.21 0  0.3610143284120516 0.21 0  0.3684826306491596 0.21 0  0.3759509328862226 0.21 0  0.383419235123329 0.21 0  0.3908875373604028 0.21 0  0.3983558395975142 0.21 0  0.4058241418345938 0.21 0  0.4132924440716992 0.21 0  0.4207607463087888 0.21 0  0.4282290485459029 0.21 0  0.4356973507830418 0.21 0  0.4431656530201649 0.21 0  0.4506339552573136 0.21 0  0.4581022574944306 0.21 0  0.4655705597315852 0.21 0  0.4730388619686996 0.21 0  0.480507164205851 0.21 0  0.4879754664429498 0.21 0  0.4954437686800938 0.21 0  0.502912070917267 0.21 0  0.5103803731544119 0.21 0  0.5178486753915261 0.21 0  0.5253169776286404 0.21 0  0.5327852798657868 0.21 0  0.5402535821029386 0.21 0  0.54772188434007 0.21 0  0.5551901865771842 0.21 0  0.5626584888143201 0.21 0  0.5701267910514778 0.21 0  0.5775950932886138 0.21 0  0.5850633955257281 0.21 0  0.5925316977628483 0.21 0  0.6 0.2050000000000054 0  0.6 0.1950000000000217 0  0.5925316977628897 0.19 0  0.5850633955257988 0.19 0  0.5775950932887378 0.19 0  0.5701267910515998 0.19 0  0.5626584888145268 0.19 0  0.5551901865773963 0.19 0  0.547721884340339 0.19 0  0.5402535821032429 0.19 0  0.5327852798661811 0.19 0  0.5253169776290537 0.19 0  0.5178486753919799 0.19 0  0.5103803731549078 0.19 0  0.502912070917822 0.19 0  0.4954437686807294 0.19 0  0.4879754664436223 0.19 0  0.4805071642065402 0.19 0  0.4730388619694271 0.19 0  0.4655705597323621 0.19 0  0.4581022574952563 0.19 0  0.4506339552581777 0.19 0  0.4431656530210671 0.19 0  0.4356973507839815 0.19 0  0.4282290485468779 0.19 0  0.4207607463097617 0.19 0  0.4132924440726327 0.19 0  0.4058241418354857 0.19 0  0.3983558395983636 0.19 0  0.3908875373612097 0.19 0  0.3834192351240934 0.19 0  0.3759509328869369 0.19 0  0.3684826306498175 0.19 0  0.361014328412667 0.19 0  0.3535460261755617 0.19 0  0.3460777239384295 0.19 0  0.3386094217012945 0.19 0  0.3311411194641595 0.19 0  0.3236728172270245 0.19 0  0.3162045149898895 0.19 0  0.3087362127527544 0.19 0  0.3012679105156187 0.19 0  0.2937996082784807 0.19 0  0.2863313060413428 0.19 0  0.2788630038042048 0.19 0  0.2713947015670686 0.19 0  0.2639263993299336 0.19 0  0.2564580970927985 0.19 0  0.2607803159922026 0.2000727136295815 0  0.5887803774232762 0.2001272386983733 0  0.5745072403740523 0.2002044435018727 0  0.5511891430099709 0.2001122610077113 0  0.2751288526855082 0.20000000000002 0  0.5365194309847112 0.1999999999999436 0  0.2894621222999649 0.1998691686390484 0  0.5215828265105155 0.1999999999999228 0  0.3127789816668748 0.1998657885438805 0  0.3274069683451451 0.2000000000000796 0  0.5066462220363641 0.199999999999908 0  0.3650630746574081 0.199866017807523 0  0.476773013087985 0.1999999999998713 0  0.3417402379596385 0.1998691686391011 0  0.3796850840047755 0.200000000000134 0  0.4618364086138087 0.1999999999998546 0  0.4917096175621762 0.1999999999998808 0  0.3946216884789568 0.2000000000001512 0  0.446899804139621 0.1999999999998389 0  0.4089549580935208 0.1998691686391595 0  0.4322718174608562 0.200127451265745 0  0.4201487168029707 0.1999966199048527 0  0.3528922713220932 0.2000185703532356 0  0.5633122436674589 0.1999814296467508 0  0.3006558810093873 0.1999966199048318 0  0.5815926498168407 0.1966545283159175 0  0.2677053789419034 0.1964246479135325 0  0.5290511287476175 0.1970915826863981 0  0.5439877332217911 0.197091582686394 0  0.2825131256993216 0.2035478995978015 0  0.3199386661080599 0.202908417313604 0  0.4842413153250809 0.1970915826863873 0  0.5141145242734466 0.1970915826863843 0  0.3722167817676917 0.2029084173136195 0  0.4693047108508938 0.1970915826863783 0  0.3348752705822316 0.202908417313609 0  0.3871533862418661 0.2029084173136212 0  0.4543681063767183 0.1970915826863795 0  0.4991779197992749 0.1970915826863902 0  0.4020059614928624 0.203547899597858 0  0.4394315019025246 0.1970915826863714 0  0.2550657455369551 0.2034088125358657 0  0.2548908499171161 0.1966940311614271 0  0.5946539510196798 0.2024302972968126 0  0.267698176732111 0.2039977513680092 0  0.4261685417851465 0.196409292431739 0  0.3590076176283495 0.196411355804271 0  0.5571672426447437 0.2036011176410121 0  0.3066757059912147 0.1964092924317024 0  0.594380730180568 0.1966558399668133 0  0.4842413153245942 0.2040749161535287 0  0.4693047108503577 0.2040749161535231 0  0.3871533862424271 0.1959250838464788 0  0.372246743208829 0.1959123236376545 0  0.5141145242731028 0.2040749161535395 0  0.4543681063761134 0.2040749161535186 0  0.4019979587101454 0.1959834479682427 0  0.4394608940728603 0.2040870543693135 0  0.5439623148931173 0.2040856076781014 0  0.5290511287473298 0.2040749161535501 0  0.4991779197988497 0.2040749161535382 0  0.3347912413592433 0.1959225448935183 0  0.3199680582793816 0.1959123018030061 0  0.2825051229162361 0.1959834479681729 0  0.3590471196690275 0.2036304442587945 0  0.5571594006495384 0.1963685282145804 0  0.3067669986803285 0.203627750582736 0  0.4262598344738712 0.2036568242185335 0  0.5814408164431408 0.2041285596160068 0  0.5688286748170428 0.1961819304477386 0  0.4145905603063645 0.2038180695522843 0  0.3473758401724931 0.2038180695522752 0  0.2950977245128307 0.2038180695522663 0  0.5688286748170693 0.203818069552238 0  0.2950977245127906 0.1961819304477774 0  0.3473758401723931 0.1961819304478349 0  0.4145905603061963 0.1961819304479011 0  0.2601812407614425 0.2056861609747042
[...]
<PointData  Vectors="f_46-0"> 
<DataArray  type="Float64"  Name="f_46-0"  NumberOfComponents="3" format="ascii">0.0000000000000000e+00 0.0000000000000000e+00 0.0000000000000000e+00  0.0000000000000000e+00 0.0000000000000000e+00 0.0000000000000000e+00  0.0000000000000000e+00 0.0000000000000000e+00 0.0000000000000000e+00  0.0000000000000000e+00 0.0000000000000000e+00 0.0000000000000000e+00  3.1948419728331498e-05 9.3881855716549138e-04 0.0000000000000000e+00  -3.8060434216649221e-05 9.3873868242337025e-04 0.0000000000000000e+00  0.0000000000000000e+00 0.0000000000000000e+00 0.0000000000000000e+00  0.0000000000000000e+00 0.0000000000000000e+00 0.0000000000000000e+00  0.0000000000000000e+00 0.0000000000000000e+00 0.0000000000000000e+00  0.0000000000000000e+00 0.0000000000000000e+00 0.0000000000000000e+00  -3.0286720102637477e-06 9.3876664185464642e-04 0.0000000000000000e+00  7.9591836734548407e-02 0.0000000000000000e+00 0.0000000000000000e+00  1.4693877550994527e-01 0.0000000000000000e+00 0.0000000000000000e+00  2.0204081632617479e-01 0.0000000000000000e+00 0.0000000000000000e+00  2.4489795918330076e-01 0.0000000000000000e+00 0.0000000000000000e+00  2.7551020408131754e-01 0.0000000000000000e+00 0.0000000000000000e+00  2.9387755102022345e-01 0.0000000000000000e+00 0.0000000000000000e+00  3.0000000000000004e-01 0.0000000000000000e+00 0.0000000000000000e+00  2.9387755102059482e-01 0.0000000000000000e+00 0.0000000000000000e+00  2.7551020408195548e-01 0.0000000000000000e+00 0.0000000000000000e+00  2.4489795918409071e-01 0.0000000000000000e+00 0.0000000000000000e+00  2.0204081632692525e-01 0.0000000000000000e+00 0.0000000000000000e+00  1.4693877551058568e-01 0.0000000000000000e+00 0.0000000000000000e+00  7.9591836734909230e-02 0.0000000000000000e+00 0.0000000000000000e+00  0.0000000000000000e+00 0.0000000000000000e+00 0.0000000000000000e+00  0.0000000000000000e+00 0.0000000000000000e+00 0.0000000000000000e+00  0.0000000000000000e+00 0.0000000000000000e+00 0.0000000000000000e+00  0.0000000000000000e+00 0.0000000000000000e+00 0.0000000000000000e+00  0.0000000000000000e+00 0.0000000000000000e+00 0.0000000000000000e+00  0.0000000000000000e+00 0.0000000000000000e+00 0.0000000000000000e+00  0.0000000000000000e+00 0.0000000000000000e+00 0.0000000000000000e+00  0.0000000000000000e+00 0.0000000000000000e+00 0.0000000000000000e+00  0.0000000000000000e+00 0.0000000000000000e+00 0.0000000000000000e+00  0.0000000000000000e+00 0.0000000000000000e+00 0.0000000000000000e+00  0.0000000000000000e+00 0.0000000000000000e+00 0.0000000000000000e+00  0.0000000000000000e+00 0.0000000000000000e+00 0.0000000000000000e+00  0.0000000000000000e+00 0.0000000000000000e+00 0.0000000000000000e+00  0.0000000000000000e+00 0.0000000000000000e+00 0.0000000000000000e+00  0.0000000000000000e+00 0.0000000000000000e+00 0.0000000000000000e+00  0.0000000000000000e+00 0.0000000000000000e+00 0.0000000000000000e+00  0.0000000000000000e+00 0.0000000000000000e+00 0.0000000000000000e+00  0.0000000000000000e+00 0.0000000000000000e+00 0.0000000000000000e+00  0.0000000000000000e+00 0.0000000000000000e+00 0.0000000000000000e+00  0.0000000000000000e+00 0.0000000000000000e+00 0.0000000000000000e+00  0.0000000000000000e+00 0.0000000000000000e+00 0.0000000000000000e+00  0.0000000000000000e+00 0.0000000000000000e+00 0.0000000000000000e+00  0.0000000000000000e+00 0.0000000000000000e+00 0.0000000000000000e+00  0.0000000000000000e+00 0.0000000000000000e+00 0.0000000000000000e+00  0.0000000000000000e+00 0.0000000000000000e+00 0.0000000000000000e+00  0.0000000000000000e+00 0.0000000000000000e+00 0.0000000000000000e+00  0.0000000000000000e+00 0.0000000000000000e+00 0.0000000000000000e+00  0.0000000000000000e+00 0.0000000000000000e+00 0.0000000000000000e+00  0.0000000000000000e+00 0.0000000000000000e+00 0.0000000000000000e+00  0.0000000000000000e+00 0.0000000000000000e+00 0.0000000000000000e+00  0.0000000000000000e+00 0.0000000000000000e+00 0.0000000000000000e+00  0.0000000000000000e+00 0.0000000000000000e+00 0.0000000000000000e+00  0.0000000000000000e+00 0.0000000000000000e+00 0.0000000000000000e+00  0.0000000000000000e+00 0.0000000000000000e+00 0.0000000000000000e+00  0.0000000000000000e+00 0.0000000000000000e+00 0.0000000000000000e+00  0.0000000000000000e+00 0.0000000000000000e+00 0.0000000000000000e+00  0.0000000000000000e+00 0.0000000000000000e+00 0.0000000000000000e+00  0.0000000000000000e+00 0.0000000000000000e+00 0.0000000000000000e+00  2.4621530098862876e-01 1.3379775588873396e-03 0.0000000000000000e+00  3.1003150771693316e-01 4.3519065467981155e-03 0.0000000000000000e+00  2.3968502197761973e-01 -4.8692730139089802e-03 0.0000000000000000e+00  0.0000000000000000e+00 0.0000000000000000e+00 0.0000000000000000e+00  0.0000000000000000e+00 0.0000000000000000e+00 0.0000000000000000e+00  0.0000000000000000e+00 0.0000000000000000e+00 0.0000000000000000e+00  0.0000000000000000e+00 0.0000000000000000e+00 0.0000000000000000e+00  0.0000000000000000e+00 0.0000000000000000e+00 0.0000000000000000e+00  0.0000000000000000e+00 0.0000000000000000e+00 0.0000000000000000e+00  0.0000000000000000e+00 0.0000000000000000e+00 0.0000000000000000e+00  0.0000000000000000e+00 0.0000000000000000e+00 0.0000000000000000e+00  0.0000000000000000e+00 0.0000000000000000e+00 0.0000000000000000e+00  0.0000000000000000e+00 0.0000000000000000e+00 0.0000000000000000e+00  0.0000000000000000e+00 0.0000000000000000e+00 0.0000000000000000e+00  0.0000000000000000e+00 0.0000000000000000e+00 0.0000000000000000e+00  0.0000000000000000e+00 0.0000000000000000e+00 0.0000000000000000e+00  0.0000000000000000e+00 0.0000000000000000e+00 0.0000000000000000e+00  0.0000000000000000e+00 0.0000000000000000e+00 0.0000000000000000e+00  0.0000000000000000e+00 0.0000000000000000e+00 0.0000000000000000e+00  0.0000000000000000e+00 0.0000000000000000e+00 0.0000000000000000e+00  0.0000000000000000e+00 0.0000000000000000e+00 0.0000000000000000e+00  0.0000000000000000e+00 0.0000000000000000e+00 0.0000000000000000e+00  0.0000000000000000e+00 0.0000000000000000e+00 0.0000000000000000e+00  0.0000000000000000e+00 0.0000000000000000e+00 0.0000000000000000e+00  0.0000000000000000e+00 0.0000000000000000e+00 0.0000000000000000e+00  0.0000000000000000e+00 0.0000000000000000e+00 0.0000000000000000e+00  0.0000000000000000e+00 0.0000000000000000e+00 0.0000000000000000e+00  0.0000000000000000e+00 0.0000000000000000e+00 0.0000000000000000e+00  0.0000000000000000e+00 0.0000000000000000e+00 0.0000000000000000e+00  0.0000000000000000e+00 0.0000000000000000e+00 0.0000000000000000e+00  0.0000000000000000e+00 0.0000000000000000e+00 0.0000000000000000e+00  0.0000000000000000e+00 0.0000000000000000e+00 0.0000000000000000e+00  0.0000000000000000e+00 0.0000000000000000e+00 0.0000000000000000e+00  0.0000000000000000e+00 0.0000000000000000e+00 0.0000000000000000e+00  0.0000000000000000e+00 0.0000000000000000e+00 0.0000000000000000e+00  0.0000000000000000e+00 0.0000000000000000e+00 0.0000000000000000e+00  0.0000000000000000e+00 0.0000000000000000e+00 0.0000000000000000e+00  0.0000000000000000e+00 0.0000000000000000e+00 0.0000000000000000e+00  0.0000000000000000e+00 0.0000000000000000e+00 0.0000000000000000e+00  0.0000000000000000e+00 0.0000000000000000e+00 0.0000000000000000e+00  0.0000000000000000e+00 0.0000000000000000e+00 0.0000000000000000e+00  0.0000000000000000e+00 0.0000000000000000e+00 0.0000000000000000e+00  0.0000000000000000e+00 0.0000000000000000e+00 0.0000000000000000e+00  2.3242798731840058e-13 0.0000000000000000e+00 0.0000000000000000e+00  0.0000000000000000e+00 0.0000000000000000e+00 0.0000000000000000e+00  0.0000000000000000e+00 0.0000000000000000e+00 0.0000000000000000e+00  0.0000000000000000e+00 0.0000000000000000e+00 0.0000000000000000e+00  0.0000000000000000e+00 0.0000000000000000e+00 0.0000000000000000e+00  0.0000000000000000e+00 0.0000000000000000e+00 0.0000000000000000e+00  0.0000000000000000e+00 0.0000000000000000e+00 0.0000000000000000e+00  0.0000000000000000e+00 0.0000000000000000e+00 0.0000000000000000e+00  0.0000000000000000e+00 0.0000000000000000e+00 0.0000000000000000e+00  0.0000000000000000e+00 0.0000000000000000e+00 0.0000000000000000e+00  0.0000000000000000e+00 0.0000000000000000e+00 0.0000000000000000e+00  0.0000000000000000e+00 0.0000000000000000e+00 0.0000000000000000e+00  0.0000000000000000e+00 0.0000000000000000e+00 0.0000000000000000e+00  0.0000000000000000e+00 0.0000000000000000e+00 0.0000000000000000e+00  0.0000000000000000e+00 0.0000000000000000e+00 0.0000000000000000e+00  0.0000000000000000e+00 0.0000000000000000e+00 0.0000000000000000e+00  0.0000000000000000e+00 0.0000000000000000e+00 0.0000000000000000e+00  0.0000000000000000e+00 0.0000000000000000e+00 0.0000000000000000e+00  0.0000000000000000e+00 0.0000000000000000e+00 0.0000000000000000e+00  0.0000000000000000e+00 0.0000000000000000e+00 0.0000000000000000e+00  0.0000000000000000e+00 0.0000000000000000e+00 0.0000000000000000e+00  0.0000000000000000e+00 0.0000000000000000e+00 0.0000000000000000e+00  0.0000000000000000e+00 0.0000000000000000e+00 0.0000000000000000e+00  0.0000000000000000e+00 0.0000000000000000e+00 0.0000000000000000e+00  0.0000000000000000e+00 0.0000000000000000e+00 0.0000000000000000e+00  0.0000000000000000e+00 0.0000000000000000e+00 0.0000000000000000e+00  0.0000000000000000e+00 0.0000000000000000e+00 0.0000000000000000e+00  0.0000000000000000e+00 0.0000000000000000e+00 0.0000000000000000e+00  0.0000000000000000e+00 0.0000000000000000e+00 0.0000000000000000e+00  0.0000000000000000e+00 0.0000000000000000e+00 0.0000000000000000e+00  0.0000000000000000e+00 0.0000000000000000e+00 0.0000000000000000e+00  0.0000000000000000e+00 0.0000000000000000e+00 0.0000000000000000e+00  0.0000000000000000e+00 0.0000000000000000e+00 0.0000000000000000e+00  0.0000000000000000e+00 0.0000000000000000e+00 0.0000000000000000e+00  0.0000000000000000e+00 0.0000000000000000e+00 0.0000000000000000e+00  0.0000000000000000e+00 0.0000000000000000e+00 0.0000000000000000e+00  0.0000000000000000e+00 0.0000000000000000e+00 0.0000000000000000e+00  0.0000000000000000e+00 0.0000000000000000e+00 0.0000000000000000e+00  -2.1469678935292379e-06 1.7682484751600440e-06 0.0000000000000000e+00  -4.5563543856258643e-06 4.3680125340691046e-06 0.0000000000000000e+00  -6.6432458280872613e-06 8.5917777636444341e-06 0.0000000000000000e+00  -8.8796986177810663e-06 1.4520317313540057e-05 0.0000000000000000e+00  -1.0712357872871642e-05 2.1846769775895357e-05 0.0000000000000000e+00  -1.2779851045750051e-05 3.0694603989272396e-05 0.0000000000000000e+00  -1.4410402153403903e-05 4.0654529818259483e-05 0.0000000000000000e+00  -1.5972699672773558e-05 5.2064604935206360e-05 0.0000000000000000e+00  -1.7759657071813816e-05 6.4558929567794891e-05 0.0000000000000000e+00  -1.9088954688642029e-05 7.8171318361889877e-05 0.0000000000000000e+00  -2.0708422082154783e-05 9.2870532583186384e-05 0.0000000000000000e+00  -2.1894380809895293e-05 1.0855640628743575e-04 0.0000000000000000e+00  -2.3290101444294587e-05 1.2518621666795612e-04 0.0000000000000000e+00  -2.4374016747867190e-05 1.4257102381561243e-04 0.0000000000000000e+00  -2.5407669262371816e-05 1.6088037619457776e-04 0.0000000000000000e+00  -2.6571633323022074e-05 1.7987515178169851e-04 0.0000000000000000e+00  -2.7434732204358050e-05 1.9957061951560563e-04 0.0000000000000000e+00  -2.8460555412913559e-05 2.1993810992703596e-04 0.0000000000000000e+00  -2.9207823836793242e-05 2.4089913530964162e-04 0.0000000000000000e+00  -3.0079830107510641e-05 2.6240855991291453e-04 0.0000000000000000e+00  -3.0757617179500828e-05 2.8444118699149973e-04 0.0000000000000000e+00  -3.1494617541562883e-05 3.0696721551822913e-04 0.0000000000000000e+00  -3.2072822271904904e-05 3.2985040570992103e-04 0.0000000000000000e+00  -3.2614133365723138e-05 3.5318887699723817e-04 0.0000000000000000e+00  -3.3197910105753368e-05 3.7682724758696589e-04 0.0000000000000000e+00  -3.3672021740171789e-05 4.0081618033316932e-04 0.0000000000000000e+00  -3.4136172642010476e-05 4.2509893918224044e-04 0.0000000000000000e+00  -3.4537132781263488e-05 4.4962674092896782e-04 0.0000000000000000e+00  -3.4925630917978731e-05 4.7440056909352549e-04 0.0000000000000000e+00  -3.5261706068876435e-05 4.9936690604928541e-04 0.0000000000000000e+00  -3.5585072934749134e-05 5.2452850519489895e-04 0.0000000000000000e+00  -3.5864844767222958e-05 5.4983845041962811e-04 0.0000000000000000e+00  -3.6132288952509386e-05 5.7529934889359927e-04 0.0000000000000000e+00  -3.6364334924219638e-05 6.0087152574490898e-04 0.0000000000000000e+00  -3.6584597104263061e-05 6.2655753785213633e-04 0.0000000000000000e+00  -3.6776075100838751e-05 6.5232396410766199e-04 0.0000000000000000e+00  -3.6956844758111346e-05 6.7817363492105617e-04 0.0000000000000000e+00  -3.7114746003893626e-05 7.0407909212857726e-04 0.0000000000000000e+00  -3.7263313365282350e-05 7.3004335433687385e-04 0.0000000000000000e+00  -3.7393632132375835e-05 7.5604354073920685e-04 0.0000000000000000e+00  -3.7516915292883076e-05 7.8208575720982085e-04 0.0000000000000000e+00  -3.7623884525902015e-05 8.0814774962110873e-04 0.0000000000000000e+00  -3.7720875858487934e-05 8.3423623025051324e-04 0.0000000000000000e+00  -3.7815750762324755e-05 8.6033774213009606e-04 0.0000000000000000e+00  -3.7898182600706794e-05 8.8645214365587770e-04 0.0000000000000000e+00  -3.7977872045302098e-05 9.1258090468764302e-04 0.0000000000000000e+00  -2.0531077265760498e-05 9.3874831252152926e-04 0.0000000000000000e+00  1.4463437241551181e-05 9.3878889002694458e-04 0.0000000000000000e+00  3.2004938996862349e-05 9.1268315373233661e-04 0.0000000000000000e+00  3.2054465537728228e-05 8.8655028439321043e-04 0.0000000000000000e+00  3.2103276897735854e-05 8.6042631407801118e-04 0.0000000000000000e+00  3.2145834340675316e-05 8.3431802870873603e-04 0.0000000000000000e+00  3.2189594649219703e-05 8.0822417633418680e-04 0.0000000000000000e+00  3.2228985726929000e-05 7.8215665367421003e-04 0.0000000000000000e+00  3.2254070484928671e-05 7.5611384217309015e-04 0.0000000000000000e+00  3.2282546291691557e-05 7.3010746745723657e-04 0.0000000000000000e+00  3.2284980568923386e-05 7.0414266624521931e-04 0.0000000000000000e+00  3.2294469311141564e-05 6.7823343710410582e-04 0.0000000000000000e+00  3.2266408607555918e-05 6.5238412793495613e-04 0.0000000000000000e+00  3.2248699525956414e-05 6.2661475369782990e-04 0.0000000000000000e+00  3.2179674074282901e-05 6.0092971484922695e-04 0.0000000000000000e+00  3.2126686702790840e-05 5.7535513313841896e-04 0.0000000000000000e+00  3.2006373042732214e-05 5.4989557320234996e-04 0.0000000000000000e+00  3.1909832188258946e-05 5.2458331813188912e-04 0.0000000000000000e+00  3.1727325606537992e-05 4.9942329570337707e-04 0.0000000000000000e+00  3.1578351093898706e-05 4.7445430707634023e-04 0.0000000000000000e+00  3.1321909729866234e-05 4.4968170434242982e-04 0.0000000000000000e+00  3.1111331038354824e-05 4.2515043595005173e-04 0.0000000000000000e+00  3.0766185778084156e-05 4.0086909946116227e-04 0.0000000000000000e+00  3.0480765954942623e-05 3.7688994913183881e-04 0.0000000000000000e+00  3.0041196222827872e-05 3.5323014669189805e-04 0.0000000000000000e+00  2.9650778141325977e-05 3.2989627310768316e-04 0.0000000000000000e+00  2.9218497819607538e-05 3.0701597468016617e-04 0.0000000000000000e+00  2.8638193897478374e-05 2.8447484561899133e-04 0.0000000000000000e+00  2.8077957749994258e-05 2.6246111683907587e-04 0.0000000000000000e+00  2.7397183241795732e-05 2.4092126897499224e-04 0.0000000000000000e+00  2.6715548706590199e-05 2.1997026538970909e-04 0.0000000000000000e+00  2.5909945120308166e-05 1.9959319767669386e-04 0.0000000000000000e+00  2.5102689619317175e-05 1.7986753527700155e-04 0.0000000000000000e+00  2.4080516322658927e-05 1.6091253707332218e-04 0.0000000000000000e+00  2.3173701370938717e-05 1.4258860793351115e-04 0.0000000000000000e+00  2.2206594530747703e-05 1.2521226383312216e-04 0.0000000000000000e+00  2.0969982338318764e-05 1.0851739953149398e-04 0.0000000000000000e+00  1.9784559507373855e-05 9.2864172387170928e-05 0.0000000000000000e+00  1.8413325572148279e-05 7.8150241259977696e-05 0.0000000000000000e+00  1.7064121037551392e-05 6.4489571203114334e-05 0.0000000000000000e+00  1.5396428963227857e-05 5.2057581590527819e-05 0.0000000000000000e+00  1.3924454819669288e-05 4.0623618999467251e-05 0.0000000000000000e+00  1.2381204995560119e-05 3.0662339248280041e-05 0.0000000000000000e+00  1.0429668371821416e-05 2.1767708300243226e-05 0.0000000000000000e+00  8.6154861703574593e-06 1.4417349397913337e-05 0.0000000000000000e+00  6.4378639848230115e-06 8.5673058365119108e-06 0.0000000000000000e+00  4.4609013693763708e-06 4.3171752749332090e-06 0.0000000000000000e+00  2.1081931758449813e-06 1.6952974309278343e-06 0.0000000000000000e+00  -5.3993912211711596e-08 1.8521303178461982e-06 0.0000000000000000e+00  -3.3879799006678634e-06 8.9949741781014984e-04 0.0000000000000000e+00  -3.5382831411149329e-06 8.4957328043257089e-04 0.0000000000000000e+00  -2.9914518630274681e-06 7.6814132895141642e-04 0.0000000000000000e+00  -9.4383341255447480e-08 1.0318574409645305e-05 0.0000000000000000e+00  -2.4493704055738872e-06 7.1705352275069705e-04 0.0000000000000000e+00  -2.6695925950634443e-08 2.4412693717383640e-05 0.0000000000000000e+00  -2.2901499934918503e-06 6.6522218931225601e-04 0.0000000000000000e+00  -7.9582237085649116e-08 5.7896121483818748e-05 0.0000000000000000e+00  -4.0117084431621273e-07 8.4725312123833723e-05 0.0000000000000000e+00  -2.1278321549855213e-06 6.1366519448982388e-04 0.0000000000000000e+00  -3.5172572767674025e-07 1.7060733621745256e-04 0.0000000000000000e+00  -1.8009655420830407e-06 5.1183924832444406e-04 0.0000000000000000e+00  -2.1952078420524123e-07 1.1479618511675916e-04 0.0000000000000000e+00  -8.2116372996110648e-07 2.0928119510369494e-04 0.0000000000000000e+00  -1.6394245618038251e-06 4.6186730688948618e-04 0.0000000000000000e+00  -1.9642368630659379e-06 5.6249252998662484e-04 0.0000000000000000e+00  -9.5835115586875993e-07 2.5125208154616157e-04 0.0000000000000000e+00  -1.4791130860568823e-06 4.1276808474823788e-04 0.0000000000000000e+00  -7.0211215516205145e-07 2.9353684916108520e-04 0.0000000000000000e+00  -1.7303609092591842e-06 3.6574192267222020e-04 0.0000000000000000e+00  -1.1958051591255119e-06 3.2778769179450928e-04 0.0000000000000000e+00  -6.3656444282124487e-07 1.4062959002410957e-04 0.0000000000000000e+00  -2.6532843519023736e-06 8.1045689585701301e-04 0.0000000000000000e+00  -2.2111675925586772e-07 3.9156591331401606e-05 0.0000000000000000e+00  8.8133232609194365e-06 8.7436965148166674e-04 0.0000000000000000e+00  1.9272621511261734e-06 5.3797909815845823e-06 0.0000000000000000e+00  7.7096201351751958e-06 6.9112420154025182e-04 0.0000000000000000e+00  7.5921748673466189e-06 7.4305785143848697e-04 0.0000000000000000e+00  -3.5187237885070265e-06 1.7092693634522641e-05 0.0000000000000000e+00  -5.6204623867483794e-06 7.0607944940613438e-05 0.0000000000000000e+00  7.9574039366227675e-06 5.3711393748403884e-04 0.0000000000000000e+00  7.8138787242214231e-06 6.3941968201818565e-04 0.0000000000000000e+00  -8.3956030699988599e-06 1.8926308213140851e-04 0.0000000000000000e+00  7.9833211613506160e-06 4.8678323994763101e-04 0.0000000000000000e+00  -6.4877831425300698e-06 1.0004509353755157e-04 0.0000000000000000e+00  -9.0076081073579398e-06 2.3002844497938067e-04 0.0000000000000000e+00  7.9699143321919932e-06 4.3722586162468714e-04 0.0000000000000000e+00  7.8986719624339799e-06 5.8804210431299888e-04 0.0000000000000000e+00  -1.1435215935905180e-05 2.7285902700545871e-04 0.0000000000000000e+00  7.9153192226093359e-06 3.8864864063933689e-04 0.0000000000000000e+00  -3.8666557322331673e-07 4.1105160629286876e-07 0.0000000000000000e+00  3.1809195688120095e-07 3.6061433116086827e-07 0.0000000000000000e+00  -1.1491786536353240e-05 9.2004200901818652e-04 0.0000000000000000e+00  -2.2813164664468936e-06 5.4059085382191135e-06 0.0000000000000000e+00  9.9533206386943177e-06 3.4654007438421331e-04 0.0000000000000000