<?xml version="1.0"?>
<VTKFile type="UnstructuredGrid"  version="0.1"  >
<UnstructuredGrid>
<Piece  NumberOfPoints="1419" NumberOfCells="2698">
<Points>
<DataArray  type="Float64"  NumberOfComponents="3"  format="ascii">0 0 0  0 0.41 0  2.5 0 0  2.5 0.41 0  0.6 0.19 0  0.6 0.21 0  0.25 0.2 0  0.15 0.2 0  0.2489897948556636 0.21 0  0.2489897948556636 0.19 0  0.6 0.2 0  0 0.3807142857143437 0  0 0.3514285714286952 0  0 0.3221428571430699 0  0 0.29285714285744 0  0 0.2635714285718054 0  0 0.2342857142861561 0  0 0.2050000000005308 0  0 0.175714285714732 0  0 0.1464285714289574 0  0 0.1171428571431897 0  0 0.08785714285737878 0  0 0.05857142857161107 0  0 0.02928571428580012 0  0.03015443760436003 0 0  0.06140001986583606 0 0  0.09377624077125973 0 0  0.1273239957535082 0 0  0.1620856860351972 0 0  0.1981052433264291 0 0  0.235428184091502 0 0  0.2741016576309132 0 0  0.3141745521465447 0 0  0.3556974926295285 0 0  0.3987229542472677 0 0  0.4433053055141081 0 0  0.4895008759286886 0 0  0.5373680609405097 0 0  0.5869673343216626 0 0  0.6383613676634521 0 0  0.6916151138468254 0 0  0.7467958595648856 0 0  0.8039733463919316 0 0  0.8632198139502143 0 0  0.9246101326867038 0 0  0.9882218810934433 0 0  1.054135445558498 0 0  1.122434100542598 0 0  1.193204177141305 0 0  1.266535089879536 0 0  1.342519516046404 0 0  1.421253448503939 0 0  1.502836389106271 0 0  1.587371439758838 0 0  1.674965418777374 0 0  1.765729001825544 0 0  1.859776908880082 0 0  1.957227977487062 0 0  2.058205329869943 0 0  2.162836591189951 0 0  2.271253957290865 0 0  2.383594446803425 0 0  2.5 0.1024999999997612 0  2.5 0.2049999999994743 0  2.5 0.3074999999997183 0  2.383594446803656 0.41 0  2.271253957291315 0.41 0  2.162836591190598 0.41 0  2.058205329870775 0.41 0  1.957227977488067 0.41 0  1.859776908881246 0.41 0  1.765729001826854 0.41 0  1.674965418778818 0.41 0  1.58737143976041 0.41 0  1.502836389107956 0.41 0  1.421253448505726 0.41 0  1.342519516048286 0.41 0  1.266535089881505 0.41 0  1.193204177143353 0.41 0  1.122434100544716 0.41 0  1.05413544556068 0.41 0  0.9882218810956305 0.41 0  0.9246101326886647 0.41 0  0.8632198139519631 0.41 0  0.8039733463934788 0.41 0  0.7467958595662458 0.41 0  0.6916151138480078 0.41 0  0.6383613676644679 0.41 0  0.5869673343225223 0.41 0  0.5373680609412221 0.41 0  0.4895008759292634 0.41 0  0.4433053055145528 0.41 0  0.3987229542475914 0.41 0  0.3556974926297398 0.41 0  0.3141745521466497 0.41 0  0.2741016576310038 0.41 0  0.2354281840915826 0.41 0  0.1981052433265003 0.41 0  0.1620856860352591 0.41 0  0.1273239957535623 0.41 0  0.09377624077128965 0.41 0  0.06140001986584975 0.41 0  0.03015443760436654 0.41 0  0.2497468076502589 0.2050254481002335 0  0.2497468076502614 0.1949745518997913 0  0.2469965252529372 0.1829317073451959 0  0.2439893735792749 0.1762316384219906 0  0.2400332147834255 0.1700443375285386 0  0.2352133972704371 0.1645032867342007 0  0.2296339016332438 0.1597280261969788 0  0.2234150974217223 0.1558215752574715 0  0.2166911463437691 0.1528682099456123 0  0.2096071079204251 0.1509316448471593 0  0.2023158100364996 0.1500536585536553 0  0.194974551899914 0.1502531923497262 0  0.1877417105387872 0.1515259415822739 0  0.1807733240461124 0.153844448527136 0  0.1742197252835808 0.15715869474974 0  0.1682222986673531 0.1613971801805478 0  0.162910430003803 0.1664684656256651 0  0.1583987151779087 0.1722631454351573 0  0.1547844879126891 0.178656207771761 0  0.1521457199348551 0.1855097315605723 0  0.1505393388476355 0.1926758619366523 0  0.1505393388476328 0.2073241380633295 0  0.1521457199348437 0.2144902684393899 0  0.1547844879126531 0.221343792228163 0  0.1583987151778488 0.2277368545647528 0  0.1629104300036858 0.2335315343742052 0  0.1682222986671726 0.2386028198193036 0  0.1742197252833576 0.2428413052501257 0  0.1807733240458683 0.2461555514727623 0  0.1877417105384929 0.2484740584176516 0  0.1949745518995776 0.2497468076502398 0  0.202315810036185 0.2499463414463592 0  0.2096071079201568 0.2490683551528932 0  0.2166911463435495 0.2471317900544655 0  0.2234150974215506 0.2441784247426195 0  0.2296339016331197 0.2402719738031125 0  0.2352133972703547 0.2354967132658811 0  0.2400332147833751 0.2299556624715287 0  0.2439893735792577 0.2237683615780412 0  0.246996525252926 0.2170682926548348 0  0.25645809709277 0.21 0  0.2639263993298655 0.21 0  0.271394701566961 0.21 0  0.2788630038040554 0.21 0  0.2863313060411479 0.21 0  0.2937996082782405 0.21 0  0.301267910515333 0.21 0  0.3087362127524279 0.21 0  0.3162045149895234 0.21 0  0.3236728172265972 0.21 0  0.3311411194636928 0.21 0  0.3386094217007701 0.21 0  0.3460777239378666 0.21 0  0.3535460261749672 0.21 0  0.3610143284120516 0.21 0  0.3684826306491596 0.21 0  0.3759509328862226 0.21 0  0.383419235123329 0.21 0  0.3908875373604028 0.21 0  0.3983558395975142 0.21 0  0.4058241418345938 0.21 0  0.4132924440716992 0.21 0  0.4207607463087888 0.21 0  0.4282290485459029 0.21 0  0.4356973507830418 0.21 0  0.4431656530201649 0.21 0  0.4506339552573136 0.21 0  0.4581022574944306 0.21 0  0.4655705597315852 0.21 0  0.4730388619686996 0.21 0  0.480507164205851 0.21 0  0.4879754664429498 0.21 0  0.4954437686800938 0.21 0  0.502912070917267 0.21 0  0.5103803731544119 0.21 0  0.5178486753915261 0.21 0  0.5253169776286404 0.21 0  0.5327852798657868 0.21 0  0.5402535821029386 0.21 0  0.54772188434007 0.21 0  0.5551901865771842 0.21 0  0.5626584888143201 0.21 0  0.5701267910514778 0.21 0  0.5775950932886138 0.21 0  0.5850633955257281 0.21 0  0.5925316977628483 0.21 0  0.6 0.2050000000000054 0  0.6 0.1950000000000217 0  0.5925316977628897 0.19 0  0.5850633955257988 0.19 0  0.5775950932887378 0.19 0  0.5701267910515998 0.19 0  0.5626584888145268 0.19 0  0.5551901865773963 0.19 0  0.547721884340339 0.19 0  0.5402535821032429 0.19 0  0.5327852798661811 0.19 0  0.5253169776290537 0.19 0  0.5178486753919799 0.19 0  0.5103803731549078 0.19 0  0.502912070917822 0.19 0  0.4954437686807294 0.19 0  0.4879754664436223 0.19 0  0.4805071642065402 0.19 0  0.4730388619694271 0.19 0  0.4655705597323621 0.19 0  0.4581022574952563 0.19 0  0.4506339552581777 0.19 0  0.4431656530210671 0.19 0  0.4356973507839815 0.19 0  0.4282290485468779 0.19 0  0.4207607463097617 0.19 0  0.4132924440726327 0.19 0  0.4058241418354857 0.19 0  0.3983558395983636 0.19 0  0.3908875373612097 0.19 0  0.3834192351240934 0.19 0  0.3759509328869369 0.19 0  0.3684826306498175 0.19 0  0.361014328412667 0.19 0  0.3535460261755617 0.19 0  0.3460777239384295 0.19 0  0.3386094217012945 0.19 0  0.3311411194641595 0.19 0  0.3236728172270245 0.19 0  0.3162045149898895 0.19 0  0.3087362127527544 0.19 0  0.3012679105156187 0.19 0  0.2937996082784807 0.19 0  0.2863313060413428 0.19 0  0.2788630038042048 0.19 0  0.2713947015670686 0.19 0  0.2639263993299336 0.19 0  0.2564580970927985 0.19 0  0.2607803159922026 0.2000727136295815 0  0.5887803774232762 0.2001272386983733 0  0.5745072403740523 0.2002044435018727 0  0.5511891430099709 0.2001122610077113 0  0.2751288526855082 0.20000000000002 0  0.5365194309847112 0.1999999999999436 0  0.2894621222999649 0.1998691686390484 0  0.5215828265105155 0.1999999999999228 0  0.3127789816668748 0.1998657885438805 0  0.3274069683451451 0.2000000000000796 0  0.5066462220363641 0.199999999999908 0  0.3650630746574081 0.199866017807523 0  0.476773013087985 0.1999999999998713 0  0.3417402379596385 0.1998691686391011 0  0.3796850840047755 0.200000000000134 0  0.4618364086138087 0.1999999999998546 0  0.4917096175621762 0.1999999999998808 0  0.3946216884789568 0.2000000000001512 0  0.446899804139621 0.1999999999998389 0  0.4089549580935208 0.1998691686391595 0  0.4322718174608562 0.200127451265745 0  0.4201487168029707 0.1999966199048527 0  0.3528922713220932 0.2000185703532356 0  0.5633122436674589 0.1999814296467508 0  0.3006558810093873 0.1999966199048318 0  0.5815926498168407 0.1966545283159175 0  0.2677053789419034 0.1964246479135325 0  0.5290511287476175 0.1970915826863981 0  0.5439877332217911 0.197091582686394 0  0.2825131256993216 0.2035478995978015 0  0.3199386661080599 0.202908417313604 0  0.4842413153250809 0.1970915826863873 0  0.5141145242734466 0.1970915826863843 0  0.3722167817676917 0.2029084173136195 0  0.4693047108508938 0.1970915826863783 0  0.3348752705822316 0.202908417313609 0  0.3871533862418661 0.2029084173136212 0  0.4543681063767183 0.1970915826863795 0  0.4991779197992749 0.1970915826863902 0  0.4020059614928624 0.203547899597858 0  0.4394315019025246 0.1970915826863714 0  0.2550657455369551 0.2034088125358657 0  0.2548908499171161 0.1966940311614271 0  0.5946539510196798 0.2024302972968126 0  0.267698176732111 0.2039977513680092 0  0.4261685417851465 0.196409292431739 0  0.3590076176283495 0.196411355804271 0  0.5571672426447437 0.2036011176410121 0  0.3066757059912147 0.1964092924317024 0  0.594380730180568 0.1966558399668133 0  0.4842413153245942 0.2040749161535287 0  0.4693047108503577 0.2040749161535231 0  0.3871533862424271 0.1959250838464788 0  0.372246743208829 0.1959123236376545 0  0.5141145242731028 0.2040749161535395 0  0.4543681063761134 0.2040749161535186 0  0.4019979587101454 0.1959834479682427 0  0.4394608940728603 0.2040870543693135 0  0.5439623148931173 0.2040856076781014 0  0.5290511287473298 0.2040749161535501 0  0.4991779197988497 0.2040749161535382 0  0.3347912413592433 0.1959225448935183 0  0.3199680582793816 0.1959123018030061 0  0.2825051229162361 0.1959834479681729 0  0.3590471196690275 0.2036304442587945 0  0.5571594006495384 0.1963685282145804 0  0.3067669986803285 0.203627750582736 0  0.4262598344738712 0.2036568242185335 0  0.5814408164431408 0.2041285596160068 0  0.5688286748170428 0.1961819304477386 0  0.4145905603063645 0.2038180695522843 0  0.3473758401724931 0.2038180695522752 0  0.2950977245128307 0.2038180695522663 0  0.5688286748170693 0.203818069552238 0  0.2950977245127906 0.1961819304477774 0  0.3473758401723931 0.1961819304478349 0  0.4145905603061963 0.1961819304479011 0  0.2601812407614425 0.2056861609747042
[...]
<PointData  Vectors="f_46-0"> 
<DataArray  type="Float64"  Name="f_46-0"  NumberOfComponents="3" format="ascii">0.0000000000000000e+00 0.0000000000000000e+00 0.0000000000000000e+00  0.0000000000000000e+00 0.0000000000000000e+00 0.0000000000000000e+00  0.0000000000000000e+00 0.0000000000000000e+00 0.0000000000000000e+00  0.0000000000000000e+00 0.0000000000000000e+00 0.0000000000000000e+00  3.6583342154345680e-05 1.0658515312282507e-03 0.0000000000000000e+00  -4.4772535969311478e-05 1.0658623616508710e-03 0.0000000000000000e+00  0.0000000000000000e+00 0.0000000000000000e+00 0.0000000000000000e+00  0.0000000000000000e+00 0.0000000000000000e+00 0.0000000000000000e+00  0.0000000000000000e+00 0.0000000000000000e+00 0.0000000000000000e+00  0.0000000000000000e+00 0.0000000000000000e+00 0.0000000000000000e+00  -4.0849197150630388e-06 1.0658493803971064e-03 0.0000000000000000e+00  7.9591836734548407e-02 0.0000000000000000e+00 0.0000000000000000e+00  1.4693877550994525e-01 0.0000000000000000e+00 0.0000000000000000e+00  2.0204081632617477e-01 0.0000000000000000e+00 0.0000000000000000e+00  2.4489795918330076e-01 0.0000000000000000e+00 0.0000000000000000e+00  2.7551020408131754e-01 0.0000000000000000e+00 0.0000000000000000e+00  2.9387755102022350e-01 0.0000000000000000e+00 0.0000000000000000e+00  3.0000000000000004e-01 0.0000000000000000e+00 0.0000000000000000e+00  2.9387755102059482e-01 0.0000000000000000e+00 0.0000000000000000e+00  2.7551020408195548e-01 0.0000000000000000e+00 0.0000000000000000e+00  2.4489795918409069e-01 0.0000000000000000e+00 0.0000000000000000e+00  2.0204081632692525e-01 0.0000000000000000e+00 0.0000000000000000e+00  1.4693877551058568e-01 0.0000000000000000e+00 0.0000000000000000e+00  7.9591836734909230e-02 0.0000000000000000e+00 0.0000000000000000e+00  0.0000000000000000e+00 0.0000000000000000e+00 0.0000000000000000e+00  0.0000000000000000e+00 0.0000000000000000e+00 0.0000000000000000e+00  0.0000000000000000e+00 0.0000000000000000e+00 0.0000000000000000e+00  0.0000000000000000e+00 0.0000000000000000e+00 0.0000000000000000e+00  0.0000000000000000e+00 0.0000000000000000e+00 0.0000000000000000e+00  0.0000000000000000e+00 0.0000000000000000e+00 0.0000000000000000e+00  0.0000000000000000e+00 0.0000000000000000e+00 0.0000000000000000e+00  0.0000000000000000e+00 0.0000000000000000e+00 0.0000000000000000e+00  0.0000000000000000e+00 0.0000000000000000e+00 0.0000000000000000e+00  0.0000000000000000e+00 0.0000000000000000e+00 0.0000000000000000e+00  0.0000000000000000e+00 0.0000000000000000e+00 0.0000000000000000e+00  0.0000000000000000e+00 0.0000000000000000e+00 0.0000000000000000e+00  0.0000000000000000e+00 0.0000000000000000e+00 0.0000000000000000e+00  0.0000000000000000e+00 0.0000000000000000e+00 0.0000000000000000e+00  0.0000000000000000e+00 0.0000000000000000e+00 0.0000000000000000e+00  0.0000000000000000e+00 0.0000000000000000e+00 0.0000000000000000e+00  0.0000000000000000e+00 0.0000000000000000e+00 0.0000000000000000e+00  0.0000000000000000e+00 0.0000000000000000e+00 0.0000000000000000e+00  0.0000000000000000e+00 0.0000000000000000e+00 0.0000000000000000e+00  0.0000000000000000e+00 0.0000000000000000e+00 0.0000000000000000e+00  0.0000000000000000e+00 0.0000000000000000e+00 0.0000000000000000e+00  0.0000000000000000e+00 0.0000000000000000e+00 0.0000000000000000e+00  0.0000000000000000e+00 0.0000000000000000e+00 0.0000000000000000e+00  0.0000000000000000e+00 0.0000000000000000e+00 0.0000000000000000e+00  0.0000000000000000e+00 0.0000000000000000e+00 0.0000000000000000e+00  0.0000000000000000e+00 0.0000000000000000e+00 0.0000000000000000e+00  0.0000000000000000e+00 0.0000000000000000e+00 0.0000000000000000e+00  0.0000000000000000e+00 0.0000000000000000e+00 0.0000000000000000e+00  0.0000000000000000e+00 0.0000000000000000e+00 0.0000000000000000e+00  0.0000000000000000e+00 0.0000000000000000e+00 0.0000000000000000e+00  0.0000000000000000e+00 0.0000000000000000e+00 0.0000000000000000e+00  0.0000000000000000e+00 0.0000000000000000e+00 0.0000000000000000e+00  0.0000000000000000e+00 0.0000000000000000e+00 0.0000000000000000e+00  0.0000000000000000e+00 0.0000000000000000e+00 0.0000000000000000e+00  0.0000000000000000e+00 0.0000000000000000e+00 0.0000000000000000e+00  0.0000000000000000e+00 0.0000000000000000e+00 0.0000000000000000e+00  0.0000000000000000e+00 0.0000000000000000e+00 0.0000000000000000e+00  0.0000000000000000e+00 0.0000000000000000e+00 0.0000000000000000e+00  2.4965081523866620e-01 1.5348208427858260e-03 0.0000000000000000e+00  3.0263330480816752e-01 4.8858435169092749e-03 0.0000000000000000e+00  2.4363870039289198e-01 -7.5024357561392875e-03 0.0000000000000000e+00  0.0000000000000000e+00 0.0000000000000000e+00 0.0000000000000000e+00  0.0000000000000000e+00 0.0000000000000000e+00 0.0000000000000000e+00  0.0000000000000000e+00 0.0000000000000000e+00 0.0000000000000000e+00  0.0000000000000000e+00 0.0000000000000000e+00 0.0000000000000000e+00  0.0000000000000000e+00 0.0000000000000000e+00 0.0000000000000000e+00  0.0000000000000000e+00 0.0000000000000000e+00 0.0000000000000000e+00  0.0000000000000000e+00 0.0000000000000000e+00 0.0000000000000000e+00  0.0000000000000000e+00 0.0000000000000000e+00 0.0000000000000000e+00  0.0000000000000000e+00 0.0000000000000000e+00 0.0000000000000000e+00  0.0000000000000000e+00 0.0000000000000000e+00 0.0000000000000000e+00  0.0000000000000000e+00 0.0000000000000000e+00 0.0000000000000000e+00  0.0000000000000000e+00 0.0000000000000000e+00 0.0000000000000000e+00  0.0000000000000000e+00 0.0000000000000000e+00 0.0000000000000000e+00  0.0000000000000000e+00 0.0000000000000000e+00 0.0000000000000000e+00  0.0000000000000000e+00 0.0000000000000000e+00 0.0000000000000000e+00  0.0000000000000000e+00 0.0000000000000000e+00 0.0000000000000000e+00  0.0000000000000000e+00 0.0000000000000000e+00 0.0000000000000000e+00  0.0000000000000000e+00 0.0000000000000000e+00 0.0000000000000000e+00  0.0000000000000000e+00 0.0000000000000000e+00 0.0000000000000000e+00  0.0000000000000000e+00 0.0000000000000000e+00 0.0000000000000000e+00  0.0000000000000000e+00 0.0000000000000000e+00 0.0000000000000000e+00  0.0000000000000000e+00 0.0000000000000000e+00 0.0000000000000000e+00  0.0000000000000000e+00 0.0000000000000000e+00 0.0000000000000000e+00  0.0000000000000000e+00 0.0000000000000000e+00 0.0000000000000000e+00  0.0000000000000000e+00 0.0000000000000000e+00 0.0000000000000000e+00  0.0000000000000000e+00 0.0000000000000000e+00 0.0000000000000000e+00  0.0000000000000000e+00 0.0000000000000000e+00 0.0000000000000000e+00  0.0000000000000000e+00 0.0000000000000000e+00 0.0000000000000000e+00  0.0000000000000000e+00 0.0000000000000000e+00 0.0000000000000000e+00  0.0000000000000000e+00 0.0000000000000000e+00 0.0000000000000000e+00  0.0000000000000000e+00 0.0000000000000000e+00 0.0000000000000000e+00  0.0000000000000000e+00 0.0000000000000000e+00 0.0000000000000000e+00  0.0000000000000000e+00 0.0000000000000000e+00 0.0000000000000000e+00  0.0000000000000000e+00 0.0000000000000000e+00 0.0000000000000000e+00  0.0000000000000000e+00 0.0000000000000000e+00 0.0000000000000000e+00  0.0000000000000000e+00 0.0000000000000000e+00 0.0000000000000000e+00  0.0000000000000000e+00 0.0000000000000000e+00 0.0000000000000000e+00  0.0000000000000000e+00 0.0000000000000000e+00 0.0000000000000000e+00  0.0000000000000000e+00 0.0000000000000000e+00 0.0000000000000000e+00  0.0000000000000000e+00 0.0000000000000000e+00 0.0000000000000000e+00  8.3470853258508129e-16 0.0000000000000000e+00 0.0000000000000000e+00  0.0000000000000000e+00 0.0000000000000000e+00 0.0000000000000000e+00  0.0000000000000000e+00 0.0000000000000000e+00 0.0000000000000000e+00  0.0000000000000000e+00 0.0000000000000000e+00 0.0000000000000000e+00  0.0000000000000000e+00 0.0000000000000000e+00 0.0000000000000000e+00  0.0000000000000000e+00 0.0000000000000000e+00 0.0000000000000000e+00  0.0000000000000000e+00 0.0000000000000000e+00 0.0000000000000000e+00  0.0000000000000000e+00 0.0000000000000000e+00 0.0000000000000000e+00  0.0000000000000000e+00 0.0000000000000000e+00 0.0000000000000000e+00  0.0000000000000000e+00 0.0000000000000000e+00 0.0000000000000000e+00  0.0000000000000000e+00 0.0000000000000000e+00 0.0000000000000000e+00  0.0000000000000000e+00 0.0000000000000000e+00 0.0000000000000000e+00  0.0000000000000000e+00 0.0000000000000000e+00 0.0000000000000000e+00  0.0000000000000000e+00 0.0000000000000000e+00 0.0000000000000000e+00  0.0000000000000000e+00 0.0000000000000000e+00 0.0000000000000000e+00  0.0000000000000000e+00 0.0000000000000000e+00 0.0000000000000000e+00  0.0000000000000000e+00 0.0000000000000000e+00 0.0000000000000000e+00  0.0000000000000000e+00 0.0000000000000000e+00 0.0000000000000000e+00  0.0000000000000000e+00 0.0000000000000000e+00 0.0000000000000000e+00  0.0000000000000000e+00 0.0000000000000000e+00 0.0000000000000000e+00  0.0000000000000000e+00 0.0000000000000000e+00 0.0000000000000000e+00  0.0000000000000000e+00 0.0000000000000000e+00 0.0000000000000000e+00  0.0000000000000000e+00 0.0000000000000000e+00 0.0000000000000000e+00  0.0000000000000000e+00 0.0000000000000000e+00 0.0000000000000000e+00  0.0000000000000000e+00 0.0000000000000000e+00 0.0000000000000000e+00  0.0000000000000000e+00 0.0000000000000000e+00 0.0000000000000000e+00  0.0000000000000000e+00 0.0000000000000000e+00 0.0000000000000000e+00  0.0000000000000000e+00 0.0000000000000000e+00 0.0000000000000000e+00  0.0000000000000000e+00 0.0000000000000000e+00 0.0000000000000000e+00  0.0000000000000000e+00 0.0000000000000000e+00 0.0000000000000000e+00  0.0000000000000000e+00 0.0000000000000000e+00 0.0000000000000000e+00  0.0000000000000000e+00 0.0000000000000000e+00 0.0000000000000000e+00  0.0000000000000000e+00 0.0000000000000000e+00 0.0000000000000000e+00  0.0000000000000000e+00 0.0000000000000000e+00 0.0000000000000000e+00  0.0000000000000000e+00 0.0000000000000000e+00 0.0000000000000000e+00  0.0000000000000000e+00 0.0000000000000000e+00 0.0000000000000000e+00  0.0000000000000000e+00 0.0000000000000000e+00 0.0000000000000000e+00  0.0000000000000000e+00 0.0000000000000000e+00 0.0000000000000000e+00  -2.2897366745845744e-06 1.8806737230818216e-06 0.0000000000000000e+00  -4.8747866409257080e-06 4.5697511009868704e-06 0.0000000000000000e+00  -7.1424082753242595e-06 8.9681558133447870e-06 0.0000000000000000e+00  -9.5871574665196038e-06 1.5166634010770137e-05 0.0000000000000000e+00  -1.1617066836705061e-05 2.2865583343331568e-05 0.0000000000000000e+00  -1.3918266596659390e-05 3.2203308507409604e-05 0.0000000000000000e+00  -1.5758814678110868e-05 4.2752338067403810e-05 0.0000000000000000e+00  -1.7539163047768716e-05 5.4894144128168615e-05 0.0000000000000000e+00  -1.9584168944784734e-05 6.8239189315272587e-05 0.0000000000000000e+00  -2.1134661227810320e-05 8.2840826710014939e-05 0.0000000000000000e+00  -2.3030615195058579e-05 9.8672293114881481e-05 0.0000000000000000e+00  -2.4446796961111829e-05 1.1564174653892826e-04 0.0000000000000000e+00  -2.6124580186534144e-05 1.3370850033994936e-04 0.0000000000000000e+00  -2.7451198057514503e-05 1.5266591458901091e-04 0.0000000000000000e+00  -2.8732941876528809e-05 1.7272834797680647e-04 0.0000000000000000e+00  -3.0187619711958816e-05 1.9362198088676989e-04 0.0000000000000000e+00  -3.1290717925170159e-05 2.1537986707944825e-04 0.0000000000000000e+00  -3.2611379497241056e-05 2.3797362126329330e-04 0.0000000000000000e+00  -3.3594667555470731e-05 2.6132465961161740e-04 0.0000000000000000e+00  -3.4750848218584886e-05 2.8537851106012074e-04 0.0000000000000000e+00  -3.5666688276506942e-05 3.1012016728437775e-04 0.0000000000000000e+00  -3.6672816114957092e-05 3.3551604788627801e-04 0.0000000000000000e+00  -3.7473089608120151e-05 3.6139491076080143e-04 0.0000000000000000e+00  -3.8230235445606958e-05 3.8789556443623926e-04 0.0000000000000000e+00  -3.9050754659349131e-05 4.1481241831748745e-04 0.0000000000000000e+00  -3.9723192741540046e-05 4.4221937349260283e-04 0.0000000000000000e+00  -4.0382360456807944e-05 4.7004323298935075e-04 0.0000000000000000e+00  -4.0951415815760894e-05 4.9821636439784415e-04 0.0000000000000000e+00  -4.1500230435823396e-05 5.2674459343703117e-04 0.0000000000000000e+00  -4.1969106193641883e-05 5.5554772109979022e-04 0.0000000000000000e+00  -4.2414271560469882e-05 5.8463548373605741e-04 0.0000000000000000e+00  -4.2789301209858074e-05 6.1393237596824512e-04 0.0000000000000000e+00  -4.3138660798734835e-05 6.4344931022265869e-04 0.0000000000000000e+00  -4.3428585089643074e-05 6.7311824953994513e-04 0.0000000000000000e+00  -4.3692127718570455e-05 7.0295093542645866e-04 0.0000000000000000e+00  -4.3906613446802812e-05 7.3288784660294117e-04 0.0000000000000000e+00  -4.4096768626976308e-05 7.6294069517395034e-04 0.0000000000000000e+00  -4.4248090896423113e-05 7.9306008035434606e-04 0.0000000000000000e+00  -4.4377669922446753e-05 8.2325695383479714e-04 0.0000000000000000e+00  -4.4477868749390684e-05 8.5349238769702864e-04 0.0000000000000000e+00  -4.4561348582084214e-05 8.8377745266658681e-04 0.0000000000000000e+00  -4.4622482550707902e-05 9.1408166328244391e-04 0.0000000000000000e+00  -4.4668253823486745e-05 9.4441303242389827e-04 0.0000000000000000e+00  -4.4708713499712518e-05 9.7475702455014851e-04 0.0000000000000000e+00  -4.4735195868314865e-05 1.0051124679593686e-03 0.0000000000000000e+00  -4.4754977653227233e-05 1.0354795934736658e-03 0.0000000000000000e+00  -2.4421740433521467e-05 1.0658538147865567e-03 0.0000000000000000e+00  1.6248349181826209e-05 1.0658478768806161e-03 0.0000000000000000e+00  3.6581550783566820e-05 1.0354717103504263e-03 0.0000000000000000e+00  3.6576851857657612e-05 1.0050991711266762e-03 0.0000000000000000e+00  3.6573774144918075e-05 9.7473259226424304e-04 0.0000000000000000e+00  3.6565273228871338e-05 9.4437834320001566e-04 0.0000000000000000e+00  3.6558741517387109e-05 9.1403596605229990e-04 0.0000000000000000e+00  3.6549096522122582e-05 8.8371796356842580e-04 0.0000000000000000e+00  3.6523679611317684e-05 8.5342464804038023e-04 0.0000000000000000e+00  3.6504783410607526e-05 8.2316998710116362e-04 0.0000000000000000e+00  3.6454807303719955e-05 7.9296526557378017e-04 0.0000000000000000e+00  3.6416196011256615e-05 7.6282623552651179e-04 0.0000000000000000e+00  3.6329814910359052e-05 7.3276627031896560e-04 0.0000000000000000e+00  3.6260813621378456e-05 7.0280935544840778e-04 0.0000000000000000e+00  3.6124060063947138e-05 6.7297088213029421e-04 0.0000000000000000e+00  3.6013276440628827e-05 6.4328340117107078e-04 0.0000000000000000e+00  3.5810841692054939e-05 6.1376260263721022e-04 0.0000000000000000e+00  3.5646821279107090e-05 5.8444946239537829e-04 0.0000000000000000e+00  3.5364797615041318e-05 5.5536017073804780e-04 0.0000000000000000e+00  3.5136251774378117e-05 5.2654386466043286e-04 0.0000000000000000e+00  3.4760364025058360e-05 4.9801616214881564e-04 0.0000000000000000e+00  3.4456466106723981e-05 4.6983299261449418e-04 0.0000000000000000e+00  3.3970490889515528e-05 4.4201245400525975e-04 0.0000000000000000e+00  3.3576946890352570e-05 4.1461767192356024e-04 0.0000000000000000e+00  3.2980584139734765e-05 3.8767480351956362e-04 0.0000000000000000e+00  3.2461410872233615e-05 3.6118417516409879e-04 0.0000000000000000e+00  3.1896815451785375e-05 3.3531394779936396e-04 0.0000000000000000e+00  3.1144480842155791e-05 3.0990481413087107e-04 0.0000000000000000e+00  3.0434732024886627e-05 2.8519446594397471e-04 0.0000000000000000e+00  2.9582677457687183e-05 2.6111000475921033e-04 0.0000000000000000e+00  2.8745551474564213e-05 2.3777952196005528e-04 0.0000000000000000e+00  2.7768258014349485e-05 2.1518356542668594e-04 0.0000000000000000e+00  2.6805737676374793e-05 1.9339729689681228e-04 0.0000000000000000e+00  2.5601147661593410e-05 1.7256170466726947e-04 0.0000000000000000e+00  2.4552228603316041e-05 1.5248968772350204e-04 0.0000000000000000e+00  2.3449614926700704e-05 1.3354940067076250e-04 0.0000000000000000e+00  2.2045935238781289e-05 1.1541568093785653e-04 0.0000000000000000e+00  2.0724973157818151e-05 9.8490657531938390e-05 0.0000000000000000e+00  1.9210660570298552e-05 8.2650575362266175e-05 0.0000000000000000e+00  1.7741655656897419e-05 6.8000241546937047e-05 0.0000000000000000e+00  1.5939764436822702e-05 5.4731359270760807e-05 0.0000000000000000e+00  1.4372648856646490e-05 4.2567161530818704e-05 0.0000000000000000e+00  1.2746683111322912e-05 3.2020383542703228e-05 0.0000000000000000e+00  1.0693518408306678e-05 2.2636192545520612e-05 0.0000000000000000e+00  8.8112296190848113e-06 1.4914001989644255e-05 0.0000000000000000e+00  6.5596173341449589e-06 8.8004422029516924e-06 0.0000000000000000e+00  4.5378755341562985e-06 4.3773233254910828e-06 0.0000000000000000e+00  2.1348263702731635e-06 1.6761175792725196e-06 0.0000000000000000e+00  -1.3681419180322213e-07 1.8813401767717522e-06 0.0000000000000000e+00  -4.5945001794602944e-06 1.0202141707827816e-03 0.0000000000000000e+00  -4.8875520352611379e-06 9.6218350125674642e-04 0.0000000000000000e+00  -4.4383328675562620e-06 8.6749018487493063e-04 0.0000000000000000e+00  -3.1595651978745159e-07 1.0679836237281729e-05 0.0000000000000000e+00  -3.9075992236075080e-06 8.0806428725813042e-04 0.0000000000000000e+00  -3.6844279045203686e-07 2.5469780882359693e-05 0.0000000000000000e+00  -3.8042494691134560e-06 7.4778034819058593e-04 0.0000000000000000e+00  -6.0884854357522972e-07 6.0998380187612371e-05 0.0000000000000000e+00  -1.0606552248221972e-06 8.9764449229649346e-05 0.0000000000000000e+00  -3.6733960653633626e-06 6.8785424706608981e-04 0.0000000000000000e+00  -1.2484874625849136e-06 1.8325302019750323e-04 0.0000000000000000e+00  -3.3333079972071614e-06 5.6980263312005899e-04 0.0000000000000000e+00  -9.6088584204743266e-07 1.2226768494082141e-04 0.0000000000000000e+00  -1.8526208978971563e-06 2.2596856278842069e-04 0.0000000000000000e+00  -3.1303402074716764e-06 5.1213183757059587e-04 0.0000000000000000e+00  -3.5156196611132618e-06 6.2845828532731986e-04 0.0000000000000000e+00  -2.0888268758922721e-06 2.7270874365249845e-04 0.0000000000000000e+00  -2.9092929552556983e-06 4.5572231158442161e-04 0.0000000000000000e+00  -1.8737603538979748e-06 3.2017102860992851e-04 0.0000000000000000e+00  -3.1438162740136671e-06 4.0199149020467040e-04 0.0000000000000000e+00  -2.4831057448070327e-06 3.5888422551343693e-04 0.0000000000000000e+00  -1.4865918367471592e-06 1.5040946034344154e-04 0.0000000000000000e+00  -3.9503467644393373e-06 9.1670106112206077e-04 0.0000000000000000e+00  -6.6544377412244559e-07 4.1065438603360493e-05 0.0000000000000000e+00  9.5301009096958929e-06 9.9098516488332704e-04 0.0000000000000000e+00  1.8694408390467529e-06 5.5108645220425582e-06 0.0000000000000000e+00  7.8604382234663336e-06 7.7787916224523329e-04 0.0000000000000000e+00  7.8192873756274747e-06 8.3829074439732373e-04 0.0000000000000000e+00  -3.9896835673133034e-06 1.7801855336600532e-05 0.0000000000000000e+00  -6.6138349637214832e-06 7.4628277326554100e-05 0.0000000000000000e+00  7.9594019608286387e-06 5.9901802840183090e-04 0.0000000000000000e+00  7.9021574642301721e-06 7.1775464758188430e-04 0.0000000000000000e+00  -1.0181042258661996e-05 2.0385437292978986e-04 0.0000000000000000e+00  7.9564558717693546e-06 5.4082563930090831e-04 0.0000000000000000e+00  -7.7016233944712705e-06 1.0632291537812989e-04 0.0000000000000000e+00  -1.1015192758747612e-05 2.4906749559581407e-04 0.0000000000000000e+00  7.9194323600486574e-06 4.8375329743479718e-04 0.0000000000000000e+00  7.9380945425147429e-06 6.5807022815201504e-04 0.0000000000000000e+00  -1.3889406326003645e-05 2.9697120678736201e-04 0.0000000000000000e+00  7.8452428665930901e-06 4.2809145910710278e-04 0.0000000000000000e+00  -4.3448105928652614e-07 4.2213466160116665e-07 0.0000000000000000e+00  3.0220486038455518e-07 3.3942809171191412e-07 0.0000000000000000e+00  -1.3965078441109476e-05 1.0441048934851146e-03 0.0000000000000000e+00  -2.5374145390864680e-06 5.5942572983738251e-06 0.0000000000000000e+00  1.0154094765941630e-05 3.8010864348950727e-04 0.0000000000000000