<?xml version="1.0"?>
<VTKFile type="UnstructuredGrid"  version="0.1"  >
<UnstructuredGrid>
<Piece  NumberOfPoints="1419" NumberOfCells="2698">
<Points>
<DataArray  type="Float64"  NumberOfComponents="3"  format="ascii">0 0 0  0 0.41 0  2.5 0 0  2.5 0.41 0  0.6 0.19 0  0.6 0.21 0  0.25 0.2 0  0.15 0.2 0  0.2489897948556636 0.21 0  0.2489897948556636 0.19 0  0.6 0.2 0  0 0.3807142857143437 0  0 0.3514285714286952 0  0 0.3221428571430699 0  0 0.29285714285744 0  0 0.2635714285718054 0  0 0.2342857142861561 0  0 0.2050000000005308 0  0 0.175714285714732 0  0 0.1464285714289574 0  0 0.1171428571431897 0  0 0.08785714285737878 0  0 0.05857142857161107 0  0 0.02928571428580012 0  0.03015443760436003 0 0  0.06140001986583606 0 0  0.09377624077125973 0 0  0.1273239957535082 0 0  0.1620856860351972 0 0  0.1981052433264291 0 0  0.235428184091502 0 0  0.2741016576309132 0 0  0.3141745521465447 0 0  0.3556974926295285 0 0  0.3987229542472677 0 0  0.4433053055141081 0 0  0.4895008759286886 0 0  0.5373680609405097 0 0  0.5869673343216626 0 0  0.6383613676634521 0 0  0.6916151138468254 0 0  0.7467958595648856 0 0  0.8039733463919316 0 0  0.8632198139502143 0 0  0.9246101326867038 0 0  0.9882218810934433 0 0  1.054135445558498 0 0  1.122434100542598 0 0  1.193204177141305 0 0  1.266535089879536 0 0  1.342519516046404 0 0  1.421253448503939 0 0  1.502836389106271 0 0  1.587371439758838 0 0  1.674965418777374 0 0  1.765729001825544 0 0  1.859776908880082 0 0  1.957227977487062 0 0  2.058205329869943 0 0  2.162836591189951 0 0  2.271253957290865 0 0  2.383594446803425 0 0  2.5 0.1024999999997612 0  2.5 0.2049999999994743 0  2.5 0.3074999999997183 0  2.383594446803656 0.41 0  2.271253957291315 0.41 0  2.162836591190598 0.41 0  2.058205329870775 0.41 0  1.957227977488067 0.41 0  1.859776908881246 0.41 0  1.765729001826854 0.41 0  1.674965418778818 0.41 0  1.58737143976041 0.41 0  1.502836389107956 0.41 0  1.421253448505726 0.41 0  1.342519516048286 0.41 0  1.266535089881505 0.41 0  1.193204177143353 0.41 0  1.122434100544716 0.41 0  1.05413544556068 0.41 0  0.9882218810956305 0.41 0  0.9246101326886647 0.41 0  0.8632198139519631 0.41 0  0.8039733463934788 0.41 0  0.7467958595662458 0.41 0  0.6916151138480078 0.41 0  0.6383613676644679 0.41 0  0.5869673343225223 0.41 0  0.5373680609412221 0.41 0  0.4895008759292634 0.41 0  0.4433053055145528 0.41 0  0.3987229542475914 0.41 0  0.3556974926297398 0.41 0  0.3141745521466497 0.41 0  0.2741016576310038 0.41 0  0.2354281840915826 0.41 0  0.1981052433265003 0.41 0  0.1620856860352591 0.41 0  0.1273239957535623 0.41 0  0.09377624077128965 0.41 0  0.06140001986584975 0.41 0  0.03015443760436654 0.41 0  0.2497468076502589 0.2050254481002335 0  0.2497468076502614 0.1949745518997913 0  0.2469965252529372 0.1829317073451959 0  0.2439893735792749 0.1762316384219906 0  0.2400332147834255 0.1700443375285386 0  0.2352133972704371 0.1645032867342007 0  0.2296339016332438 0.1597280261969788 0  0.2234150974217223 0.1558215752574715 0  0.2166911463437691 0.1528682099456123 0  0.2096071079204251 0.1509316448471593 0  0.2023158100364996 0.1500536585536553 0  0.194974551899914 0.1502531923497262 0  0.1877417105387872 0.1515259415822739 0  0.1807733240461124 0.153844448527136 0  0.1742197252835808 0.15715869474974 0  0.1682222986673531 0.1613971801805478 0  0.162910430003803 0.1664684656256651 0  0.1583987151779087 0.1722631454351573 0  0.1547844879126891 0.178656207771761 0  0.1521457199348551 0.1855097315605723 0  0.1505393388476355 0.1926758619366523 0  0.1505393388476328 0.2073241380633295 0  0.1521457199348437 0.2144902684393899 0  0.1547844879126531 0.221343792228163 0  0.1583987151778488 0.2277368545647528 0  0.1629104300036858 0.2335315343742052 0  0.1682222986671726 0.2386028198193036 0  0.1742197252833576 0.2428413052501257 0  0.1807733240458683 0.2461555514727623 0  0.1877417105384929 0.2484740584176516 0  0.1949745518995776 0.2497468076502398 0  0.202315810036185 0.2499463414463592 0  0.2096071079201568 0.2490683551528932 0  0.2166911463435495 0.2471317900544655 0  0.2234150974215506 0.2441784247426195 0  0.2296339016331197 0.2402719738031125 0  0.2352133972703547 0.2354967132658811 0  0.2400332147833751 0.2299556624715287 0  0.2439893735792577 0.2237683615780412 0  0.246996525252926 0.2170682926548348 0  0.25645809709277 0.21 0  0.2639263993298655 0.21 0  0.271394701566961 0.21 0  0.2788630038040554 0.21 0  0.2863313060411479 0.21 0  0.2937996082782405 0.21 0  0.301267910515333 0.21 0  0.3087362127524279 0.21 0  0.3162045149895234 0.21 0  0.3236728172265972 0.21 0  0.3311411194636928 0.21 0  0.3386094217007701 0.21 0  0.3460777239378666 0.21 0  0.3535460261749672 0.21 0  0.3610143284120516 0.21 0  0.3684826306491596 0.21 0  0.3759509328862226 0.21 0  0.383419235123329 0.21 0  0.3908875373604028 0.21 0  0.3983558395975142 0.21 0  0.4058241418345938 0.21 0  0.4132924440716992 0.21 0  0.4207607463087888 0.21 0  0.4282290485459029 0.21 0  0.4356973507830418 0.21 0  0.4431656530201649 0.21 0  0.4506339552573136 0.21 0  0.4581022574944306 0.21 0  0.4655705597315852 0.21 0  0.4730388619686996 0.21 0  0.480507164205851 0.21 0  0.4879754664429498 0.21 0  0.4954437686800938 0.21 0  0.502912070917267 0.21 0  0.5103803731544119 0.21 0  0.5178486753915261 0.21 0  0.5253169776286404 0.21 0  0.5327852798657868 0.21 0  0.5402535821029386 0.21 0  0.54772188434007 0.21 0  0.5551901865771842 0.21 0  0.5626584888143201 0.21 0  0.5701267910514778 0.21 0  0.5775950932886138 0.21 0  0.5850633955257281 0.21 0  0.5925316977628483 0.21 0  0.6 0.2050000000000054 0  0.6 0.1950000000000217 0  0.5925316977628897 0.19 0  0.5850633955257988 0.19 0  0.5775950932887378 0.19 0  0.5701267910515998 0.19 0  0.5626584888145268 0.19 0  0.5551901865773963 0.19 0  0.547721884340339 0.19 0  0.5402535821032429 0.19 0  0.5327852798661811 0.19 0  0.5253169776290537 0.19 0  0.5178486753919799 0.19 0  0.5103803731549078 0.19 0  0.502912070917822 0.19 0  0.4954437686807294 0.19 0  0.4879754664436223 0.19 0  0.4805071642065402 0.19 0  0.4730388619694271 0.19 0  0.4655705597323621 0.19 0  0.4581022574952563 0.19 0  0.4506339552581777 0.19 0  0.4431656530210671 0.19 0  0.4356973507839815 0.19 0  0.4282290485468779 0.19 0  0.4207607463097617 0.19 0  0.4132924440726327 0.19 0  0.4058241418354857 0.19 0  0.3983558395983636 0.19 0  0.3908875373612097 0.19 0  0.3834192351240934 0.19 0  0.3759509328869369 0.19 0  0.3684826306498175 0.19 0  0.361014328412667 0.19 0  0.3535460261755617 0.19 0  0.3460777239384295 0.19 0  0.3386094217012945 0.19 0  0.3311411194641595 0.19 0  0.3236728172270245 0.19 0  0.3162045149898895 0.19 0  0.3087362127527544 0.19 0  0.3012679105156187 0.19 0  0.2937996082784807 0.19 0  0.2863313060413428 0.19 0  0.2788630038042048 0.19 0  0.2713947015670686 0.19 0  0.2639263993299336 0.19 0  0.2564580970927985 0.19 0  0.2607803159922026 0.2000727136295815 0  0.5887803774232762 0.2001272386983733 0  0.5745072403740523 0.2002044435018727 0  0.5511891430099709 0.2001122610077113 0  0.2751288526855082 0.20000000000002 0  0.5365194309847112 0.1999999999999436 0  0.2894621222999649 0.1998691686390484 0  0.5215828265105155 0.1999999999999228 0  0.3127789816668748 0.1998657885438805 0  0.3274069683451451 0.2000000000000796 0  0.5066462220363641 0.199999999999908 0  0.3650630746574081 0.199866017807523 0  0.476773013087985 0.1999999999998713 0  0.3417402379596385 0.1998691686391011 0  0.3796850840047755 0.200000000000134 0  0.4618364086138087 0.1999999999998546 0  0.4917096175621762 0.1999999999998808 0  0.3946216884789568 0.2000000000001512 0  0.446899804139621 0.1999999999998389 0  0.4089549580935208 0.1998691686391595 0  0.4322718174608562 0.200127451265745 0  0.4201487168029707 0.1999966199048527 0  0.3528922713220932 0.2000185703532356 0  0.5633122436674589 0.1999814296467508 0  0.3006558810093873 0.1999966199048318 0  0.5815926498168407 0.1966545283159175 0  0.2677053789419034 0.1964246479135325 0  0.5290511287476175 0.1970915826863981 0  0.5439877332217911 0.197091582686394 0  0.2825131256993216 0.2035478995978015 0  0.3199386661080599 0.202908417313604 0  0.4842413153250809 0.1970915826863873 0  0.5141145242734466 0.1970915826863843 0  0.3722167817676917 0.2029084173136195 0  0.4693047108508938 0.1970915826863783 0  0.3348752705822316 0.202908417313609 0  0.3871533862418661 0.2029084173136212 0  0.4543681063767183 0.1970915826863795 0  0.4991779197992749 0.1970915826863902 0  0.4020059614928624 0.203547899597858 0  0.4394315019025246 0.1970915826863714 0  0.2550657455369551 0.2034088125358657 0  0.2548908499171161 0.1966940311614271 0  0.5946539510196798 0.2024302972968126 0  0.267698176732111 0.2039977513680092 0  0.4261685417851465 0.196409292431739 0  0.3590076176283495 0.196411355804271 0  0.5571672426447437 0.2036011176410121 0  0.3066757059912147 0.1964092924317024 0  0.594380730180568 0.1966558399668133 0  0.4842413153245942 0.2040749161535287 0  0.4693047108503577 0.2040749161535231 0  0.3871533862424271 0.1959250838464788 0  0.372246743208829 0.1959123236376545 0  0.5141145242731028 0.2040749161535395 0  0.4543681063761134 0.2040749161535186 0  0.4019979587101454 0.1959834479682427 0  0.4394608940728603 0.2040870543693135 0  0.5439623148931173 0.2040856076781014 0  0.5290511287473298 0.2040749161535501 0  0.4991779197988497 0.2040749161535382 0  0.3347912413592433 0.1959225448935183 0  0.3199680582793816 0.1959123018030061 0  0.2825051229162361 0.1959834479681729 0  0.3590471196690275 0.2036304442587945 0  0.5571594006495384 0.1963685282145804 0  0.3067669986803285 0.203627750582736 0  0.4262598344738712 0.2036568242185335 0  0.5814408164431408 0.2041285596160068 0  0.5688286748170428 0.1961819304477386 0  0.4145905603063645 0.2038180695522843 0  0.3473758401724931 0.2038180695522752 0  0.2950977245128307 0.2038180695522663 0  0.5688286748170693 0.203818069552238 0  0.2950977245127906 0.1961819304477774 0  0.3473758401723931 0.1961819304478349 0  0.4145905603061963 0.1961819304479011 0  0.2601812407614425 0.2056861609747042
[...]
<PointData  Vectors="f_46-0"> 
<DataArray  type="Float64"  Name="f_46-0"  NumberOfComponents="3" format="ascii">0.0000000000000000e+00 0.0000000000000000e+00 0.0000000000000000e+00  0.0000000000000000e+00 0.0000000000000000e+00 0.0000000000000000e+00  0.0000000000000000e+00 0.0000000000000000e+00 0.0000000000000000e+00  0.0000000000000000e+00 0.0000000000000000e+00 0.0000000000000000e+00  3.1370196232780770e-05 9.5744512374700084e-04 0.0000000000000000e+00  -4.0087394547978087e-05 9.5748368154242771e-04 0.0000000000000000e+00  0.0000000000000000e+00 0.0000000000000000e+00 0.0000000000000000e+00  0.0000000000000000e+00 0.0000000000000000e+00 0.0000000000000000e+00  0.0000000000000000e+00 0.0000000000000000e+00 0.0000000000000000e+00  0.0000000000000000e+00 0.0000000000000000e+00 0.0000000000000000e+00  -4.3573144586999096e-06 9.5746049782990852e-04 0.0000000000000000e+00  7.9591836734548407e-02 0.0000000000000000e+00 0.0000000000000000e+00  1.4693877550994527e-01 0.0000000000000000e+00 0.0000000000000000e+00  2.0204081632617479e-01 0.0000000000000000e+00 0.0000000000000000e+00  2.4489795918330076e-01 0.0000000000000000e+00 0.0000000000000000e+00  2.7551020408131754e-01 0.0000000000000000e+00 0.0000000000000000e+00  2.9387755102022350e-01 0.0000000000000000e+00 0.0000000000000000e+00  3.0000000000000004e-01 0.0000000000000000e+00 0.0000000000000000e+00  2.9387755102059476e-01 0.0000000000000000e+00 0.0000000000000000e+00  2.7551020408195548e-01 0.0000000000000000e+00 0.0000000000000000e+00  2.4489795918409071e-01 0.0000000000000000e+00 0.0000000000000000e+00  2.0204081632692525e-01 0.0000000000000000e+00 0.0000000000000000e+00  1.4693877551058568e-01 0.0000000000000000e+00 0.0000000000000000e+00  7.9591836734909230e-02 0.0000000000000000e+00 0.0000000000000000e+00  0.0000000000000000e+00 0.0000000000000000e+00 0.0000000000000000e+00  0.0000000000000000e+00 0.0000000000000000e+00 0.0000000000000000e+00  0.0000000000000000e+00 0.0000000000000000e+00 0.0000000000000000e+00  0.0000000000000000e+00 0.0000000000000000e+00 0.0000000000000000e+00  0.0000000000000000e+00 0.0000000000000000e+00 0.0000000000000000e+00  0.0000000000000000e+00 0.0000000000000000e+00 0.0000000000000000e+00  0.0000000000000000e+00 0.0000000000000000e+00 0.0000000000000000e+00  0.0000000000000000e+00 0.0000000000000000e+00 0.0000000000000000e+00  0.0000000000000000e+00 0.0000000000000000e+00 0.0000000000000000e+00  0.0000000000000000e+00 0.0000000000000000e+00 0.0000000000000000e+00  0.0000000000000000e+00 0.0000000000000000e+00 0.0000000000000000e+00  0.0000000000000000e+00 0.0000000000000000e+00 0.0000000000000000e+00  0.0000000000000000e+00 0.0000000000000000e+00 0.0000000000000000e+00  0.0000000000000000e+00 0.0000000000000000e+00 0.0000000000000000e+00  0.0000000000000000e+00 0.0000000000000000e+00 0.0000000000000000e+00  0.0000000000000000e+00 0.0000000000000000e+00 0.0000000000000000e+00  0.0000000000000000e+00 0.0000000000000000e+00 0.0000000000000000e+00  0.0000000000000000e+00 0.0000000000000000e+00 0.0000000000000000e+00  0.0000000000000000e+00 0.0000000000000000e+00 0.0000000000000000e+00  0.0000000000000000e+00 0.0000000000000000e+00 0.0000000000000000e+00  0.0000000000000000e+00 0.0000000000000000e+00 0.0000000000000000e+00  0.0000000000000000e+00 0.0000000000000000e+00 0.0000000000000000e+00  0.0000000000000000e+00 0.0000000000000000e+00 0.0000000000000000e+00  0.0000000000000000e+00 0.0000000000000000e+00 0.0000000000000000e+00  0.0000000000000000e+00 0.0000000000000000e+00 0.0000000000000000e+00  0.0000000000000000e+00 0.0000000000000000e+00 0.0000000000000000e+00  0.0000000000000000e+00 0.0000000000000000e+00 0.0000000000000000e+00  0.0000000000000000e+00 0.0000000000000000e+00 0.0000000000000000e+00  0.0000000000000000e+00 0.0000000000000000e+00 0.0000000000000000e+00  0.0000000000000000e+00 0.0000000000000000e+00 0.0000000000000000e+00  0.0000000000000000e+00 0.0000000000000000e+00 0.0000000000000000e+00  0.0000000000000000e+00 0.0000000000000000e+00 0.0000000000000000e+00  0.0000000000000000e+00 0.0000000000000000e+00 0.0000000000000000e+00  0.0000000000000000e+00 0.0000000000000000e+00 0.0000000000000000e+00  0.0000000000000000e+00 0.0000000000000000e+00 0.0000000000000000e+00  0.0000000000000000e+00 0.0000000000000000e+00 0.0000000000000000e+00  0.0000000000000000e+00 0.0000000000000000e+00 0.0000000000000000e+00  0.0000000000000000e+00 0.0000000000000000e+00 0.0000000000000000e+00  2.5113813136887464e-01 1.9896459541263933e-03 0.0000000000000000e+00  2.9905094771389712e-01 5.9300569469827842e-03 0.0000000000000000e+00  2.4573081727962634e-01 -8.2306663394768557e-03 0.0000000000000000e+00  0.0000000000000000e+00 0.0000000000000000e+00 0.0000000000000000e+00  0.0000000000000000e+00 0.0000000000000000e+00 0.0000000000000000e+00  0.0000000000000000e+00 0.0000000000000000e+00 0.0000000000000000e+00  0.0000000000000000e+00 0.0000000000000000e+00 0.0000000000000000e+00  0.0000000000000000e+00 0.0000000000000000e+00 0.0000000000000000e+00  0.0000000000000000e+00 0.0000000000000000e+00 0.0000000000000000e+00  0.0000000000000000e+00 0.0000000000000000e+00 0.0000000000000000e+00  0.0000000000000000e+00 0.0000000000000000e+00 0.0000000000000000e+00  0.0000000000000000e+00 0.0000000000000000e+00 0.0000000000000000e+00  0.0000000000000000e+00 0.0000000000000000e+00 0.0000000000000000e+00  0.0000000000000000e+00 0.0000000000000000e+00 0.0000000000000000e+00  0.0000000000000000e+00 0.0000000000000000e+00 0.0000000000000000e+00  0.0000000000000000e+00 0.0000000000000000e+00 0.0000000000000000e+00  0.0000000000000000e+00 0.0000000000000000e+00 0.0000000000000000e+00  0.0000000000000000e+00 0.0000000000000000e+00 0.0000000000000000e+00  0.0000000000000000e+00 0.0000000000000000e+00 0.0000000000000000e+00  0.0000000000000000e+00 0.0000000000000000e+00 0.0000000000000000e+00  0.0000000000000000e+00 0.0000000000000000e+00 0.0000000000000000e+00  0.0000000000000000e+00 0.0000000000000000e+00 0.0000000000000000e+00  0.0000000000000000e+00 0.0000000000000000e+00 0.0000000000000000e+00  0.0000000000000000e+00 0.0000000000000000e+00 0.0000000000000000e+00  0.0000000000000000e+00 0.0000000000000000e+00 0.0000000000000000e+00  0.0000000000000000e+00 0.0000000000000000e+00 0.0000000000000000e+00  0.0000000000000000e+00 0.0000000000000000e+00 0.0000000000000000e+00  0.0000000000000000e+00 0.0000000000000000e+00 0.0000000000000000e+00  0.0000000000000000e+00 0.0000000000000000e+00 0.0000000000000000e+00  0.0000000000000000e+00 0.0000000000000000e+00 0.0000000000000000e+00  0.0000000000000000e+00 0.0000000000000000e+00 0.0000000000000000e+00  0.0000000000000000e+00 0.0000000000000000e+00 0.0000000000000000e+00  0.0000000000000000e+00 0.0000000000000000e+00 0.0000000000000000e+00  0.0000000000000000e+00 0.0000000000000000e+00 0.0000000000000000e+00  0.0000000000000000e+00 0.0000000000000000e+00 0.0000000000000000e+00  0.0000000000000000e+00 0.0000000000000000e+00 0.0000000000000000e+00  0.0000000000000000e+00 0.0000000000000000e+00 0.0000000000000000e+00  0.0000000000000000e+00 0.0000000000000000e+00 0.0000000000000000e+00  0.0000000000000000e+00 0.0000000000000000e+00 0.0000000000000000e+00  0.0000000000000000e+00 0.0000000000000000e+00 0.0000000000000000e+00  0.0000000000000000e+00 0.0000000000000000e+00 0.0000000000000000e+00  0.0000000000000000e+00 0.0000000000000000e+00 0.0000000000000000e+00  0.0000000000000000e+00 0.0000000000000000e+00 0.0000000000000000e+00  9.6181107551172460e-17 0.0000000000000000e+00 0.0000000000000000e+00  0.0000000000000000e+00 0.0000000000000000e+00 0.0000000000000000e+00  0.0000000000000000e+00 0.0000000000000000e+00 0.0000000000000000e+00  0.0000000000000000e+00 0.0000000000000000e+00 0.0000000000000000e+00  0.0000000000000000e+00 0.0000000000000000e+00 0.0000000000000000e+00  0.0000000000000000e+00 0.0000000000000000e+00 0.0000000000000000e+00  0.0000000000000000e+00 0.0000000000000000e+00 0.0000000000000000e+00  0.0000000000000000e+00 0.0000000000000000e+00 0.0000000000000000e+00  0.0000000000000000e+00 0.0000000000000000e+00 0.0000000000000000e+00  0.0000000000000000e+00 0.0000000000000000e+00 0.0000000000000000e+00  0.0000000000000000e+00 0.0000000000000000e+00 0.0000000000000000e+00  0.0000000000000000e+00 0.0000000000000000e+00 0.0000000000000000e+00  0.0000000000000000e+00 0.0000000000000000e+00 0.0000000000000000e+00  0.0000000000000000e+00 0.0000000000000000e+00 0.0000000000000000e+00  0.0000000000000000e+00 0.0000000000000000e+00 0.0000000000000000e+00  0.0000000000000000e+00 0.0000000000000000e+00 0.0000000000000000e+00  0.0000000000000000e+00 0.0000000000000000e+00 0.0000000000000000e+00  0.0000000000000000e+00 0.0000000000000000e+00 0.0000000000000000e+00  0.0000000000000000e+00 0.0000000000000000e+00 0.0000000000000000e+00  0.0000000000000000e+00 0.0000000000000000e+00 0.0000000000000000e+00  0.0000000000000000e+00 0.0000000000000000e+00 0.0000000000000000e+00  0.0000000000000000e+00 0.0000000000000000e+00 0.0000000000000000e+00  0.0000000000000000e+00 0.0000000000000000e+00 0.0000000000000000e+00  0.0000000000000000e+00 0.0000000000000000e+00 0.0000000000000000e+00  0.0000000000000000e+00 0.0000000000000000e+00 0.0000000000000000e+00  0.0000000000000000e+00 0.0000000000000000e+00 0.0000000000000000e+00  0.0000000000000000e+00 0.0000000000000000e+00 0.0000000000000000e+00  0.0000000000000000e+00 0.0000000000000000e+00 0.0000000000000000e+00  0.0000000000000000e+00 0.0000000000000000e+00 0.0000000000000000e+00  0.0000000000000000e+00 0.0000000000000000e+00 0.0000000000000000e+00  0.0000000000000000e+00 0.0000000000000000e+00 0.0000000000000000e+00  0.0000000000000000e+00 0.0000000000000000e+00 0.0000000000000000e+00  0.0000000000000000e+00 0.0000000000000000e+00 0.0000000000000000e+00  0.0000000000000000e+00 0.0000000000000000e+00 0.0000000000000000e+00  0.0000000000000000e+00 0.0000000000000000e+00 0.0000000000000000e+00  0.0000000000000000e+00 0.0000000000000000e+00 0.0000000000000000e+00  0.0000000000000000e+00 0.0000000000000000e+00 0.0000000000000000e+00  1.8232342661335214e-12 3.5553900139271461e-13 0.0000000000000000e+00  -2.1817907224406748e-06 1.8103445606058248e-06 0.0000000000000000e+00  -4.6364521243992845e-06 4.3456155022645352e-06 0.0000000000000000e+00  -6.7901775454305697e-06 8.4748549376605632e-06 0.0000000000000000e+00  -9.1030733755708500e-06 1.4283145636791730e-05 0.0000000000000000e+00  -1.1024788275488693e-05 2.1483753617186262e-05 0.0000000000000000e+00  -1.3190520370935111e-05 3.0203598981432645e-05 0.0000000000000000e+00  -1.4925465453017234e-05 4.0041299961935131e-05 0.0000000000000000e+00  -1.6599390499125733e-05 5.1344805525490151e-05 0.0000000000000000e+00  -1.8510188154740893e-05 6.3751838424944604e-05 0.0000000000000000e+00  -1.9963038627662479e-05 7.7305756407643057e-05 0.0000000000000000e+00  -2.1724065508816624e-05 9.1979507996853372e-05 0.0000000000000000e+00  -2.3044390928858920e-05 1.0768224593684274e-04 0.0000000000000000e+00  -2.4594000500059214e-05 1.2437432088921476e-04 0.0000000000000000e+00  -2.5822469056950241e-05 1.4186412430294796e-04 0.0000000000000000e+00  -2.7004777078280599e-05 1.6033886583793124e-04 0.0000000000000000e+00  -2.8333121875837579e-05 1.7954987592707746e-04 0.0000000000000000e+00  -2.9343646201320250e-05 1.9951900464214027e-04 0.0000000000000000e+00  -3.0535741335731692e-05 2.2021929384304697e-04 0.0000000000000000e+00  -3.1426101240608989e-05 2.4157030559903805e-04 0.0000000000000000e+00  -3.2455234247389091e-05 2.6352624680954642e-04 0.0000000000000000e+00  -3.3269346665776966e-05 2.8606007787066183e-04 0.0000000000000000e+00  -3.4146498005624120e-05 3.0914204305389708e-04 0.0000000000000000e+00  -3.4842919388782373e-05 3.3262061305432464e-04 0.0000000000000000e+00  -3.5492555824716885e-05 3.5660347490033454e-04 0.0000000000000000e+00  -3.6181892554657460e-05 3.8091980708996942e-04 0.0000000000000000e+00  -3.6738911301575379e-05 4.0561621923893275e-04 0.0000000000000000e+00  -3.7272084698968601e-05 4.3063775749745294e-04 0.0000000000000000e+00  -3.7723719406574688e-05 4.5591388745651909e-04 0.0000000000000000e+00  -3.8146768908026324e-05 4.8145584024957141e-04 0.0000000000000000e+00  -3.8499400284036994e-05 5.0718640381613024e-04 0.0000000000000000e+00  -3.8822497661263594e-05 5.3311948385004269e-04 0.0000000000000000e+00  -3.9086085017883939e-05 5.5918555814361099e-04 0.0000000000000000e+00  -3.9321227562282662e-05 5.8539930345609414e-04 0.0000000000000000e+00  -3.9507727847377651e-05 6.1170108092281563e-04 0.0000000000000000e+00  -3.9668119699805732e-05 6.3810573597724142e-04 0.0000000000000000e+00  -3.9791488276570468e-05 6.6456465534001866e-04 0.0000000000000000e+00  -3.9893051036660364e-05 6.9109087524219296e-04 0.0000000000000000e+00  -3.9967423615008982e-05 7.1764726630422734e-04 0.0000000000000000e+00  -4.0023902419471173e-05 7.4424506237799994e-04 0.0000000000000000e+00  -4.0062086418795240e-05 7.7085807789889569e-04 0.0000000000000000e+00  -4.0087929244514111e-05 7.9749474266271024e-04 0.0000000000000000e+00  -4.0101801341246209e-05 8.2413866454371051e-04 0.0000000000000000e+00  -4.0106994176914958e-05 8.5079513814104732e-04 0.0000000000000000e+00  -4.0109149595504317e-05 8.7745766360017383e-04 0.0000000000000000e+00  -4.0104912389005968e-05 9.0412615221440210e-04 0.0000000000000000e+00  -4.0096994342415511e-05 9.3080118839249993e-04 0.0000000000000000e+00  -2.2219547762734702e-05 9.5747116272141934e-04 0.0000000000000000e+00  1.3504422493341585e-05 9.5745142995619348e-04 0.0000000000000000e+00  3.1349749564436494e-05 9.3076042725442150e-04 0.0000000000000000e+00  3.1328705239260615e-05 9.0408283710568735e-04 0.0000000000000000e+00  3.1309707928968750e-05 8.7740818867760272e-04 0.0000000000000000e+00  3.1289443873927331e-05 8.5073912523241774e-04 0.0000000000000000e+00  3.1271537374370228e-05 8.2407463939209976e-04 0.0000000000000000e+00  3.1254232140359828e-05 7.9741969152993190e-04 0.0000000000000000e+00  3.1230832188819229e-05 7.7077436904288534e-04 0.0000000000000000e+00  3.1213263378535745e-05 7.4414415697425951e-04 0.0000000000000000e+00  3.1181414186272361e-05 7.1753756209163482e-04 0.0000000000000000e+00  3.1157291247574946e-05 6.9096023265672235e-04 0.0000000000000000e+00  3.1107806180357448e-05 6.6442432740987324e-04 0.0000000000000000e+00  3.1069920623473509e-05 6.3794122670958150e-04 0.0000000000000000e+00  3.0992489575720327e-05 6.1152670921872762e-04 0.0000000000000000e+00  3.0931625165046988e-05 5.8519943537798280e-04 0.0000000000000000e+00  3.0811733707000097e-05 5.5897667108926064e-04 0.0000000000000000e+00  3.0716713852368895e-05 5.3288554852315645e-04 0.0000000000000000e+00  3.0539878983290145e-05 5.0694511486052904e-04 0.0000000000000000e+00  3.0399013797483723e-05 4.8119129235672266e-04 0.0000000000000000e+00  3.0149706602562556e-05 4.5564420713206308e-04 0.0000000000000000e+00  2.9950491206893878e-05 4.3034809396552031e-04 0.0000000000000000e+00  2.9610043781680049e-05 4.0532512703036675e-04 0.0000000000000000e+00  2.9336794994484883e-05 3.8062832694779158e-04 0.0000000000000000e+00  2.8899485042909123e-05 3.5628709737227024e-04 0.0000000000000000e+00  2.8518248024285064e-05 3.3230723099847718e-04 0.0000000000000000e+00  2.8095310827248828e-05 3.0883238770770859e-04 0.0000000000000000e+00  2.7511939097912838e-05 2.8573762057644130e-04 0.0000000000000000e+00  2.6956887376422465e-05 2.6322817602040827e-04 0.0000000000000000e+00  2.6275106339080182e-05 2.4124721098970511e-04 0.0000000000000000e+00  2.5599061488657766e-05 2.1991455057255286e-04 0.0000000000000000e+00  2.4794638464156889e-05 1.9921455682874215e-04 0.0000000000000000e+00  2.3995928894805932e-05 1.7922328142261265e-04 0.0000000000000000e+00  2.2975778397534579e-05 1.6006690824567056e-04 0.0000000000000000e+00  2.2087353750698897e-05 1.4158788556863387e-04 0.0000000000000000e+00  2.1144177501847069e-05 1.2411741714097904e-04 0.0000000000000000e+00  1.9925585645033133e-05 1.0736950850443826e-04 0.0000000000000000e+00  1.8773235697110674e-05 9.1711467165505339e-05 0.0000000000000000e+00  1.7439266712118269e-05 7.7033164986866162e-05 0.0000000000000000e+00  1.6139989701763728e-05 6.3438851879764807e-05 0.0000000000000000e+00  1.4529072894661579e-05 5.1104679728303344e-05 0.0000000000000000e+00  1.3128143890249173e-05 3.9783564201137756e-05 0.0000000000000000e+00  1.1667377109933552e-05 2.9950183915862157e-05 0.0000000000000000e+00  9.8071338852100689e-06 2.1189092782702592e-05 0.0000000000000000e+00  8.0985290805615152e-06 1.3967379411400303e-05 0.0000000000000000e+00  6.0399937830034023e-06 8.2382803605265676e-06 0.0000000000000000e+00  4.1891814446854602e-06 4.0876824060032558e-06 0.0000000000000000e+00  1.9733990132644565e-06 1.5468248909543868e-06 0.0000000000000000e+00  -1.7247924911685026e-07 1.7836956095839742e-06 0.0000000000000000e+00  -4.8334333660054188e-06 9.1737804457558904e-04 0.0000000000000000e+00  -5.1310680187649712e-06 8.6640199703424492e-04 0.0000000000000000e+00  -4.8108900081272939e-06 7.8317093468406346e-04 0.0000000000000000e+00  -4.1684547905580024e-07 1.0047079173728894e-05 0.0000000000000000e+00  -4.3909358286699570e-06 7.3086922243938254e-04 0.0000000000000000e+00  -5.3786255263506588e-07 2.3884862156150366e-05 0.0000000000000000e+00  -4.3446135452606517e-06 6.7771883908456518e-04 0.0000000000000000e+00  -8.7901498739291626e-07 5.6989396605622543e-05 0.0000000000000000e+00  -1.3725059416380219e-06 8.3691388402715923e-05 0.0000000000000000e+00  -4.2664725761512472e-06 6.2475414678981331e-04 0.0000000000000000e+00  -1.7435702365098115e-06 1.6998158103382949e-04 0.0000000000000000e+00  -4.0029551661806957e-06 5.1989934738455481e-04 0.0000000000000000e+00  -1.3544766245867143e-06 1.1377121025039911e-04 0.0000000000000000e+00  -2.3743179793165646e-06 2.0918643014014758e-04 0.0000000000000000e+00  -3.8174280705829429e-06 4.6837038450134793e-04 0.0000000000000000e+00  -4.1529828366330223e-06 5.7209430456573243e-04 0.0000000000000000e+00  -2.6649228525505625e-06 2.5193015125065190e-04 0.0000000000000000e+00  -3.5979168959233496e-06 4.1774919532434971e-04 0.0000000000000000e+00  -2.5362276497345853e-06 2.9516842504970599e-04 0.0000000000000000e+00  -3.7734314755135926e-06 3.6932120667730622e-04 0.0000000000000000e+00  -3.1334189480539925e-06 3.3030731369496742e-04 0.0000000000000000e+00  -1.8981628621120276e-06 1.3974129238614115e-04 0.0000000000000000e+00  -4.3426995184788270e-06 8.2643438857329628e-04 0.0000000000000000e+00  -8.7092148588117876e-07 3.8434218849662295e-05 0.0000000000000000e+00  7.5568473128887509e-06 8.9169769522443650e-04 0.0000000000000000e+00  1.6682844118507500e-06 5.1812747870535773e-06 0.0000000000000000e+00  5.9664428682348782e-06 7.0426341114134385e-04 0.0000000000000000e+00  5.9585682616043139e-06 7.5747580964474434e-04 0.0000000000000000e+00  -3.8858485139313392e-06 1.6729492270298081e-05 0.0000000000000000e+00  -6.4852806980835323e-06 6.9663414984315032e-05 0.0000000000000000e+00  6.0524945026442709e-06 5.4590882069783793e-04 0.0000000000000000e+00  5.9866044961508538e-06 6.5119111651853773e-04 0.0000000000000000e+00  -9.9754166913495890e-06 1.8892167779035942e-04 0.0000000000000000e+00  6.0852026601489623e-06 4.9401951299380179e-04 0.0000000000000000e+00  -7.5529779139210714e-06 9.9039491003073538e-05 0.0000000000000000e+00  -1.0787583228474232e-05 2.3034522999588263e-04 0.0000000000000000e+00  6.1062315792433801e-06 4.4291319947271874e-04 0.0000000000000000e+00  6.0171291781052906e-06 5.9835964263146542e-04 0.0000000000000000e+00  -1.3446332117463593e-05 2.7407263875389796e-04 0.0000000000000000e+00  6.1099383750439700e-06 3.9285053729294563e-04 0.0000000000000000e+00  -4.2437051027535562e-07 4.1348232665402658e-07 0.0000000000000000e+00  2.6715958049222104e-07 3.1835376193655573e-07 0.0000000000000000e+00  -1.3049589561275342e-05 9.3836575232410626e-04 0.0000000000000000e+00  -2.4589321259584972e-06 5.2905628074071265e-06 0.0000000000000000e+00  8.2740316406015623e-06 3.4950840066074406e-04 0.0000000000000000