<?xml version="1.0"?>
<VTKFile type="UnstructuredGrid"  version="0.1"  >
<UnstructuredGrid>
<Piece  NumberOfPoints="1419" NumberOfCells="2698">
<Points>
<DataArray  type="Float64"  NumberOfComponents="3"  format="ascii">0 0 0  0 0.41 0  2.5 0 0  2.5 0.41 0  0.6 0.19 0  0.6 0.21 0  0.25 0.2 0  0.15 0.2 0  0.2489897948556636 0.21 0  0.2489897948556636 0.19 0  0.6 0.2 0  0 0.3807142857143437 0  0 0.3514285714286952 0  0 0.3221428571430699 0  0 0.29285714285744 0  0 0.2635714285718054 0  0 0.2342857142861561 0  0 0.2050000000005308 0  0 0.175714285714732 0  0 0.1464285714289574 0  0 0.1171428571431897 0  0 0.08785714285737878 0  0 0.05857142857161107 0  0 0.02928571428580012 0  0.03015443760436003 0 0  0.06140001986583606 0 0  0.09377624077125973 0 0  0.1273239957535082 0 0  0.1620856860351972 0 0  0.1981052433264291 0 0  0.235428184091502 0 0  0.2741016576309132 0 0  0.3141745521465447 0 0  0.3556974926295285 0 0  0.3987229542472677 0 0  0.4433053055141081 0 0  0.4895008759286886 0 0  0.5373680609405097 0 0  0.5869673343216626 0 0  0.6383613676634521 0 0  0.6916151138468254 0 0  0.7467958595648856 0 0  0.8039733463919316 0 0  0.8632198139502143 0 0  0.9246101326867038 0 0  0.9882218810934433 0 0  1.054135445558498 0 0  1.122434100542598 0 0  1.193204177141305 0 0  1.266535089879536 0 0  1.342519516046404 0 0  1.421253448503939 0 0  1.502836389106271 0 0  1.587371439758838 0 0  1.674965418777374 0 0  1.765729001825544 0 0  1.859776908880082 0 0  1.957227977487062 0 0  2.058205329869943 0 0  2.162836591189951 0 0  2.271253957290865 0 0  2.383594446803425 0 0  2.5 0.1024999999997612 0  2.5 0.2049999999994743 0  2.5 0.3074999999997183 0  2.383594446803656 0.41 0  2.271253957291315 0.41 0  2.162836591190598 0.41 0  2.058205329870775 0.41 0  1.957227977488067 0.41 0  1.859776908881246 0.41 0  1.765729001826854 0.41 0  1.674965418778818 0.41 0  1.58737143976041 0.41 0  1.502836389107956 0.41 0  1.421253448505726 0.41 0  1.342519516048286 0.41 0  1.266535089881505 0.41 0  1.193204177143353 0.41 0  1.122434100544716 0.41 0  1.05413544556068 0.41 0  0.9882218810956305 0.41 0  0.9246101326886647 0.41 0  0.8632198139519631 0.41 0  0.8039733463934788 0.41 0  0.7467958595662458 0.41 0  0.6916151138480078 0.41 0  0.6383613676644679 0.41 0  0.5869673343225223 0.41 0  0.5373680609412221 0.41 0  0.4895008759292634 0.41 0  0.4433053055145528 0.41 0  0.3987229542475914 0.41 0  0.3556974926297398 0.41 0  0.3141745521466497 0.41 0  0.2741016576310038 0.41 0  0.2354281840915826 0.41 0  0.1981052433265003 0.41 0  0.1620856860352591 0.41 0  0.1273239957535623 0.41 0  0.09377624077128965 0.41 0  0.06140001986584975 0.41 0  0.03015443760436654 0.41 0  0.2497468076502589 0.2050254481002335 0  0.2497468076502614 0.1949745518997913 0  0.2469965252529372 0.1829317073451959 0  0.2439893735792749 0.1762316384219906 0  0.2400332147834255 0.1700443375285386 0  0.2352133972704371 0.1645032867342007 0  0.2296339016332438 0.1597280261969788 0  0.2234150974217223 0.1558215752574715 0  0.2166911463437691 0.1528682099456123 0  0.2096071079204251 0.1509316448471593 0  0.2023158100364996 0.1500536585536553 0  0.194974551899914 0.1502531923497262 0  0.1877417105387872 0.1515259415822739 0  0.1807733240461124 0.153844448527136 0  0.1742197252835808 0.15715869474974 0  0.1682222986673531 0.1613971801805478 0  0.162910430003803 0.1664684656256651 0  0.1583987151779087 0.1722631454351573 0  0.1547844879126891 0.178656207771761 0  0.1521457199348551 0.1855097315605723 0  0.1505393388476355 0.1926758619366523 0  0.1505393388476328 0.2073241380633295 0  0.1521457199348437 0.2144902684393899 0  0.1547844879126531 0.221343792228163 0  0.1583987151778488 0.2277368545647528 0  0.1629104300036858 0.2335315343742052 0  0.1682222986671726 0.2386028198193036 0  0.1742197252833576 0.2428413052501257 0  0.1807733240458683 0.2461555514727623 0  0.1877417105384929 0.2484740584176516 0  0.1949745518995776 0.2497468076502398 0  0.202315810036185 0.2499463414463592 0  0.2096071079201568 0.2490683551528932 0  0.2166911463435495 0.2471317900544655 0  0.2234150974215506 0.2441784247426195 0  0.2296339016331197 0.2402719738031125 0  0.2352133972703547 0.2354967132658811 0  0.2400332147833751 0.2299556624715287 0  0.2439893735792577 0.2237683615780412 0  0.246996525252926 0.2170682926548348 0  0.25645809709277 0.21 0  0.2639263993298655 0.21 0  0.271394701566961 0.21 0  0.2788630038040554 0.21 0  0.2863313060411479 0.21 0  0.2937996082782405 0.21 0  0.301267910515333 0.21 0  0.3087362127524279 0.21 0  0.3162045149895234 0.21 0  0.3236728172265972 0.21 0  0.3311411194636928 0.21 0  0.3386094217007701 0.21 0  0.3460777239378666 0.21 0  0.3535460261749672 0.21 0  0.3610143284120516 0.21 0  0.3684826306491596 0.21 0  0.3759509328862226 0.21 0  0.383419235123329 0.21 0  0.3908875373604028 0.21 0  0.3983558395975142 0.21 0  0.4058241418345938 0.21 0  0.4132924440716992 0.21 0  0.4207607463087888 0.21 0  0.4282290485459029 0.21 0  0.4356973507830418 0.21 0  0.4431656530201649 0.21 0  0.4506339552573136 0.21 0  0.4581022574944306 0.21 0  0.4655705597315852 0.21 0  0.4730388619686996 0.21 0  0.480507164205851 0.21 0  0.4879754664429498 0.21 0  0.4954437686800938 0.21 0  0.502912070917267 0.21 0  0.5103803731544119 0.21 0  0.5178486753915261 0.21 0  0.5253169776286404 0.21 0  0.5327852798657868 0.21 0  0.5402535821029386 0.21 0  0.54772188434007 0.21 0  0.5551901865771842 0.21 0  0.5626584888143201 0.21 0  0.5701267910514778 0.21 0  0.5775950932886138 0.21 0  0.5850633955257281 0.21 0  0.5925316977628483 0.21 0  0.6 0.2050000000000054 0  0.6 0.1950000000000217 0  0.5925316977628897 0.19 0  0.5850633955257988 0.19 0  0.5775950932887378 0.19 0  0.5701267910515998 0.19 0  0.5626584888145268 0.19 0  0.5551901865773963 0.19 0  0.547721884340339 0.19 0  0.5402535821032429 0.19 0  0.5327852798661811 0.19 0  0.5253169776290537 0.19 0  0.5178486753919799 0.19 0  0.5103803731549078 0.19 0  0.502912070917822 0.19 0  0.4954437686807294 0.19 0  0.4879754664436223 0.19 0  0.4805071642065402 0.19 0  0.4730388619694271 0.19 0  0.4655705597323621 0.19 0  0.4581022574952563 0.19 0  0.4506339552581777 0.19 0  0.4431656530210671 0.19 0  0.4356973507839815 0.19 0  0.4282290485468779 0.19 0  0.4207607463097617 0.19 0  0.4132924440726327 0.19 0  0.4058241418354857 0.19 0  0.3983558395983636 0.19 0  0.3908875373612097 0.19 0  0.3834192351240934 0.19 0  0.3759509328869369 0.19 0  0.3684826306498175 0.19 0  0.361014328412667 0.19 0  0.3535460261755617 0.19 0  0.3460777239384295 0.19 0  0.3386094217012945 0.19 0  0.3311411194641595 0.19 0  0.3236728172270245 0.19 0  0.3162045149898895 0.19 0  0.3087362127527544 0.19 0  0.3012679105156187 0.19 0  0.2937996082784807 0.19 0  0.2863313060413428 0.19 0  0.2788630038042048 0.19 0  0.2713947015670686 0.19 0  0.2639263993299336 0.19 0  0.2564580970927985 0.19 0  0.2607803159922026 0.2000727136295815 0  0.5887803774232762 0.2001272386983733 0  0.5745072403740523 0.2002044435018727 0  0.5511891430099709 0.2001122610077113 0  0.2751288526855082 0.20000000000002 0  0.5365194309847112 0.1999999999999436 0  0.2894621222999649 0.1998691686390484 0  0.5215828265105155 0.1999999999999228 0  0.3127789816668748 0.1998657885438805 0  0.3274069683451451 0.2000000000000796 0  0.5066462220363641 0.199999999999908 0  0.3650630746574081 0.199866017807523 0  0.476773013087985 0.1999999999998713 0  0.3417402379596385 0.1998691686391011 0  0.3796850840047755 0.200000000000134 0  0.4618364086138087 0.1999999999998546 0  0.4917096175621762 0.1999999999998808 0  0.3946216884789568 0.2000000000001512 0  0.446899804139621 0.1999999999998389 0  0.4089549580935208 0.1998691686391595 0  0.4322718174608562 0.200127451265745 0  0.4201487168029707 0.1999966199048527 0  0.3528922713220932 0.2000185703532356 0  0.5633122436674589 0.1999814296467508 0  0.3006558810093873 0.1999966199048318 0  0.5815926498168407 0.1966545283159175 0  0.2677053789419034 0.1964246479135325 0  0.5290511287476175 0.1970915826863981 0  0.5439877332217911 0.197091582686394 0  0.2825131256993216 0.2035478995978015 0  0.3199386661080599 0.202908417313604 0  0.4842413153250809 0.1970915826863873 0  0.5141145242734466 0.1970915826863843 0  0.3722167817676917 0.2029084173136195 0  0.4693047108508938 0.1970915826863783 0  0.3348752705822316 0.202908417313609 0  0.3871533862418661 0.2029084173136212 0  0.4543681063767183 0.1970915826863795 0  0.4991779197992749 0.1970915826863902 0  0.4020059614928624 0.203547899597858 0  0.4394315019025246 0.1970915826863714 0  0.2550657455369551 0.2034088125358657 0  0.2548908499171161 0.1966940311614271 0  0.5946539510196798 0.2024302972968126 0  0.267698176732111 0.2039977513680092 0  0.4261685417851465 0.196409292431739 0  0.3590076176283495 0.196411355804271 0  0.5571672426447437 0.2036011176410121 0  0.3066757059912147 0.1964092924317024 0  0.594380730180568 0.1966558399668133 0  0.4842413153245942 0.2040749161535287 0  0.4693047108503577 0.2040749161535231 0  0.3871533862424271 0.1959250838464788 0  0.372246743208829 0.1959123236376545 0  0.5141145242731028 0.2040749161535395 0  0.4543681063761134 0.2040749161535186 0  0.4019979587101454 0.1959834479682427 0  0.4394608940728603 0.2040870543693135 0  0.5439623148931173 0.2040856076781014 0  0.5290511287473298 0.2040749161535501 0  0.4991779197988497 0.2040749161535382 0  0.3347912413592433 0.1959225448935183 0  0.3199680582793816 0.1959123018030061 0  0.2825051229162361 0.1959834479681729 0  0.3590471196690275 0.2036304442587945 0  0.5571594006495384 0.1963685282145804 0  0.3067669986803285 0.203627750582736 0  0.4262598344738712 0.2036568242185335 0  0.5814408164431408 0.2041285596160068 0  0.5688286748170428 0.1961819304477386 0  0.4145905603063645 0.2038180695522843 0  0.3473758401724931 0.2038180695522752 0  0.2950977245128307 0.2038180695522663 0  0.5688286748170693 0.203818069552238 0  0.2950977245127906 0.1961819304477774 0  0.3473758401723931 0.1961819304478349 0  0.4145905603061963 0.1961819304479011 0  0.2601812407614425 0.2056861609747042
[...]
<PointData  Vectors="f_46-0"> 
<DataArray  type="Float64"  Name="f_46-0"  NumberOfComponents="3" format="ascii">0.0000000000000000e+00 0.0000000000000000e+00 0.0000000000000000e+00  0.0000000000000000e+00 0.0000000000000000e+00 0.0000000000000000e+00  0.0000000000000000e+00 0.0000000000000000e+00 0.0000000000000000e+00  0.0000000000000000e+00 0.0000000000000000e+00 0.0000000000000000e+00  3.8682218511116339e-05 1.1071547206758963e-03 0.0000000000000000e+00  -4.6422821669669042e-05 1.1071313469203309e-03 0.0000000000000000e+00  0.0000000000000000e+00 0.0000000000000000e+00 0.0000000000000000e+00  0.0000000000000000e+00 0.0000000000000000e+00 0.0000000000000000e+00  0.0000000000000000e+00 0.0000000000000000e+00 0.0000000000000000e+00  0.0000000000000000e+00 0.0000000000000000e+00 0.0000000000000000e+00  -3.8495054399104089e-06 1.1071321045316796e-03 0.0000000000000000e+00  7.9591836734548407e-02 0.0000000000000000e+00 0.0000000000000000e+00  1.4693877550994527e-01 0.0000000000000000e+00 0.0000000000000000e+00  2.0204081632617482e-01 0.0000000000000000e+00 0.0000000000000000e+00  2.4489795918330076e-01 0.0000000000000000e+00 0.0000000000000000e+00  2.7551020408131754e-01 0.0000000000000000e+00 0.0000000000000000e+00  2.9387755102022350e-01 0.0000000000000000e+00 0.0000000000000000e+00  3.0000000000000004e-01 0.0000000000000000e+00 0.0000000000000000e+00  2.9387755102059482e-01 0.0000000000000000e+00 0.0000000000000000e+00  2.7551020408195548e-01 0.0000000000000000e+00 0.0000000000000000e+00  2.4489795918409071e-01 0.0000000000000000e+00 0.0000000000000000e+00  2.0204081632692525e-01 0.0000000000000000e+00 0.0000000000000000e+00  1.4693877551058568e-01 0.0000000000000000e+00 0.0000000000000000e+00  7.9591836734909230e-02 0.0000000000000000e+00 0.0000000000000000e+00  0.0000000000000000e+00 0.0000000000000000e+00 0.0000000000000000e+00  0.0000000000000000e+00 0.0000000000000000e+00 0.0000000000000000e+00  0.0000000000000000e+00 0.0000000000000000e+00 0.0000000000000000e+00  0.0000000000000000e+00 0.0000000000000000e+00 0.0000000000000000e+00  0.0000000000000000e+00 0.0000000000000000e+00 0.0000000000000000e+00  0.0000000000000000e+00 0.0000000000000000e+00 0.0000000000000000e+00  0.0000000000000000e+00 0.0000000000000000e+00 0.0000000000000000e+00  0.0000000000000000e+00 0.0000000000000000e+00 0.0000000000000000e+00  0.0000000000000000e+00 0.0000000000000000e+00 0.0000000000000000e+00  0.0000000000000000e+00 0.0000000000000000e+00 0.0000000000000000e+00  0.0000000000000000e+00 0.0000000000000000e+00 0.0000000000000000e+00  0.0000000000000000e+00 0.0000000000000000e+00 0.0000000000000000e+00  0.0000000000000000e+00 0.0000000000000000e+00 0.0000000000000000e+00  0.0000000000000000e+00 0.0000000000000000e+00 0.0000000000000000e+00  0.0000000000000000e+00 0.0000000000000000e+00 0.0000000000000000e+00  0.0000000000000000e+00 0.0000000000000000e+00 0.0000000000000000e+00  0.0000000000000000e+00 0.0000000000000000e+00 0.0000000000000000e+00  0.0000000000000000e+00 0.0000000000000000e+00 0.0000000000000000e+00  0.0000000000000000e+00 0.0000000000000000e+00 0.0000000000000000e+00  0.0000000000000000e+00 0.0000000000000000e+00 0.0000000000000000e+00  0.0000000000000000e+00 0.0000000000000000e+00 0.0000000000000000e+00  0.0000000000000000e+00 0.0000000000000000e+00 0.0000000000000000e+00  0.0000000000000000e+00 0.0000000000000000e+00 0.0000000000000000e+00  0.0000000000000000e+00 0.0000000000000000e+00 0.0000000000000000e+00  0.0000000000000000e+00 0.0000000000000000e+00 0.0000000000000000e+00  0.0000000000000000e+00 0.0000000000000000e+00 0.0000000000000000e+00  0.0000000000000000e+00 0.0000000000000000e+00 0.0000000000000000e+00  0.0000000000000000e+00 0.0000000000000000e+00 0.0000000000000000e+00  0.0000000000000000e+00 0.0000000000000000e+00 0.0000000000000000e+00  0.0000000000000000e+00 0.0000000000000000e+00 0.0000000000000000e+00  0.0000000000000000e+00 0.0000000000000000e+00 0.0000000000000000e+00  0.0000000000000000e+00 0.0000000000000000e+00 0.0000000000000000e+00  0.0000000000000000e+00 0.0000000000000000e+00 0.0000000000000000e+00  0.0000000000000000e+00 0.0000000000000000e+00 0.0000000000000000e+00  0.0000000000000000e+00 0.0000000000000000e+00 0.0000000000000000e+00  0.0000000000000000e+00 0.0000000000000000e+00 0.0000000000000000e+00  0.0000000000000000e+00 0.0000000000000000e+00 0.0000000000000000e+00  0.0000000000000000e+00 0.0000000000000000e+00 0.0000000000000000e+00  2.4824363396057578e-01 1.3041196418872914e-03 0.0000000000000000e+00  3.0567936583504574e-01 4.3201506831939173e-03 0.0000000000000000e+00  2.4200355000692159e-01 -6.6326733594273624e-03 0.0000000000000000e+00  0.0000000000000000e+00 0.0000000000000000e+00 0.0000000000000000e+00  0.0000000000000000e+00 0.0000000000000000e+00 0.0000000000000000e+00  0.0000000000000000e+00 0.0000000000000000e+00 0.0000000000000000e+00  0.0000000000000000e+00 0.0000000000000000e+00 0.0000000000000000e+00  0.0000000000000000e+00 0.0000000000000000e+00 0.0000000000000000e+00  0.0000000000000000e+00 0.0000000000000000e+00 0.0000000000000000e+00  0.0000000000000000e+00 0.0000000000000000e+00 0.0000000000000000e+00  0.0000000000000000e+00 0.0000000000000000e+00 0.0000000000000000e+00  0.0000000000000000e+00 0.0000000000000000e+00 0.0000000000000000e+00  0.0000000000000000e+00 0.0000000000000000e+00 0.0000000000000000e+00  0.0000000000000000e+00 0.0000000000000000e+00 0.0000000000000000e+00  0.0000000000000000e+00 0.0000000000000000e+00 0.0000000000000000e+00  0.0000000000000000e+00 0.0000000000000000e+00 0.0000000000000000e+00  0.0000000000000000e+00 0.0000000000000000e+00 0.0000000000000000e+00  0.0000000000000000e+00 0.0000000000000000e+00 0.0000000000000000e+00  0.0000000000000000e+00 0.0000000000000000e+00 0.0000000000000000e+00  0.0000000000000000e+00 0.0000000000000000e+00 0.0000000000000000e+00  0.0000000000000000e+00 0.0000000000000000e+00 0.0000000000000000e+00  0.0000000000000000e+00 0.0000000000000000e+00 0.0000000000000000e+00  0.0000000000000000e+00 0.0000000000000000e+00 0.0000000000000000e+00  0.0000000000000000e+00 0.0000000000000000e+00 0.0000000000000000e+00  0.0000000000000000e+00 0.0000000000000000e+00 0.0000000000000000e+00  0.0000000000000000e+00 0.0000000000000000e+00 0.0000000000000000e+00  0.0000000000000000e+00 0.0000000000000000e+00 0.0000000000000000e+00  0.0000000000000000e+00 0.0000000000000000e+00 0.0000000000000000e+00  0.0000000000000000e+00 0.0000000000000000e+00 0.0000000000000000e+00  0.0000000000000000e+00 0.0000000000000000e+00 0.0000000000000000e+00  0.0000000000000000e+00 0.0000000000000000e+00 0.0000000000000000e+00  0.0000000000000000e+00 0.0000000000000000e+00 0.0000000000000000e+00  0.0000000000000000e+00 0.0000000000000000e+00 0.0000000000000000e+00  0.0000000000000000e+00 0.0000000000000000e+00 0.0000000000000000e+00  0.0000000000000000e+00 0.0000000000000000e+00 0.0000000000000000e+00  0.0000000000000000e+00 0.0000000000000000e+00 0.0000000000000000e+00  0.0000000000000000e+00 0.0000000000000000e+00 0.0000000000000000e+00  0.0000000000000000e+00 0.0000000000000000e+00 0.0000000000000000e+00  0.0000000000000000e+00 0.0000000000000000e+00 0.0000000000000000e+00  0.0000000000000000e+00 0.0000000000000000e+00 0.0000000000000000e+00  0.0000000000000000e+00 0.0000000000000000e+00 0.0000000000000000e+00  0.0000000000000000e+00 0.0000000000000000e+00 0.0000000000000000e+00  0.0000000000000000e+00 0.0000000000000000e+00 0.0000000000000000e+00  3.3726672465809609e-13 0.0000000000000000e+00 0.0000000000000000e+00  0.0000000000000000e+00 0.0000000000000000e+00 0.0000000000000000e+00  0.0000000000000000e+00 0.0000000000000000e+00 0.0000000000000000e+00  0.0000000000000000e+00 0.0000000000000000e+00 0.0000000000000000e+00  0.0000000000000000e+00 0.0000000000000000e+00 0.0000000000000000e+00  0.0000000000000000e+00 0.0000000000000000e+00 0.0000000000000000e+00  0.0000000000000000e+00 0.0000000000000000e+00 0.0000000000000000e+00  0.0000000000000000e+00 0.0000000000000000e+00 0.0000000000000000e+00  0.0000000000000000e+00 0.0000000000000000e+00 0.0000000000000000e+00  0.0000000000000000e+00 0.0000000000000000e+00 0.0000000000000000e+00  0.0000000000000000e+00 0.0000000000000000e+00 0.0000000000000000e+00  0.0000000000000000e+00 0.0000000000000000e+00 0.0000000000000000e+00  0.0000000000000000e+00 0.0000000000000000e+00 0.0000000000000000e+00  0.0000000000000000e+00 0.0000000000000000e+00 0.0000000000000000e+00  0.0000000000000000e+00 0.0000000000000000e+00 0.0000000000000000e+00  0.0000000000000000e+00 0.0000000000000000e+00 0.0000000000000000e+00  0.0000000000000000e+00 0.0000000000000000e+00 0.0000000000000000e+00  0.0000000000000000e+00 0.0000000000000000e+00 0.0000000000000000e+00  0.0000000000000000e+00 0.0000000000000000e+00 0.0000000000000000e+00  0.0000000000000000e+00 0.0000000000000000e+00 0.0000000000000000e+00  0.0000000000000000e+00 0.0000000000000000e+00 0.0000000000000000e+00  0.0000000000000000e+00 0.0000000000000000e+00 0.0000000000000000e+00  0.0000000000000000e+00 0.0000000000000000e+00 0.0000000000000000e+00  0.0000000000000000e+00 0.0000000000000000e+00 0.0000000000000000e+00  0.0000000000000000e+00 0.0000000000000000e+00 0.0000000000000000e+00  0.0000000000000000e+00 0.0000000000000000e+00 0.0000000000000000e+00  0.0000000000000000e+00 0.0000000000000000e+00 0.0000000000000000e+00  0.0000000000000000e+00 0.0000000000000000e+00 0.0000000000000000e+00  0.0000000000000000e+00 0.0000000000000000e+00 0.0000000000000000e+00  0.0000000000000000e+00 0.0000000000000000e+00 0.0000000000000000e+00  0.0000000000000000e+00 0.0000000000000000e+00 0.0000000000000000e+00  0.0000000000000000e+00 0.0000000000000000e+00 0.0000000000000000e+00  0.0000000000000000e+00 0.0000000000000000e+00 0.0000000000000000e+00  0.0000000000000000e+00 0.0000000000000000e+00 0.0000000000000000e+00  0.0000000000000000e+00 0.0000000000000000e+00 0.0000000000000000e+00  0.0000000000000000e+00 0.0000000000000000e+00 0.0000000000000000e+00  0.0000000000000000e+00 0.0000000000000000e+00 0.0000000000000000e+00  0.0000000000000000e+00 0.0000000000000000e+00 0.0000000000000000e+00  -2.3416846373827776e-06 1.9149627673421480e-06 0.0000000000000000e+00  -4.9869840110095244e-06 4.6933177179679488e-06 0.0000000000000000e+00  -7.3022855996812156e-06 9.2413424875664139e-06 0.0000000000000000e+00  -9.8005262132497753e-06 1.5651681852883467e-05 0.0000000000000000e+00  -1.1869777551244405e-05 2.3613752676069860e-05 0.0000000000000000e+00  -1.4220155657206179e-05 3.3270121967170303e-05 0.0000000000000000e+00  -1.6094479835874548e-05 4.4179071856138083e-05 0.0000000000000000e+00  -1.7906982335921568e-05 5.6734632829872254e-05 0.0000000000000000e+00  -1.9993311065144678e-05 7.0533734139551678e-05 0.0000000000000000e+00  -2.1568499903626728e-05 8.5631398785599114e-05 0.0000000000000000e+00  -2.3500801976210035e-05 1.0199964483379417e-04 0.0000000000000000e+00  -2.4937376937345678e-05 1.1954317835041619e-04 0.0000000000000000e+00  -2.6644116058512438e-05 1.3821969433722655e-04 0.0000000000000000e+00  -2.7988260975030012e-05 1.5781596420993057e-04 0.0000000000000000e+00  -2.9286217232743265e-05 1.7855294491284540e-04 0.0000000000000000e+00  -3.0763283199903168e-05 2.0014796668013413e-04 0.0000000000000000e+00  -3.1877738351884183e-05 2.2263578782341070e-04 0.0000000000000000e+00  -3.3218139833520840e-05 2.4598717963659035e-04 0.0000000000000000e+00  -3.4211178302014254e-05 2.7012259385450770e-04 0.0000000000000000e+00  -3.5385321629842931e-05 2.9498519749390838e-04 0.0000000000000000e+00  -3.6312881970654062e-05 3.2056267802706352e-04 0.0000000000000000e+00  -3.7338149735654079e-05 3.4682058511807521e-04 0.0000000000000000e+00  -3.8152465760773614e-05 3.7358313245221833e-04 0.0000000000000000e+00  -3.8925980405778992e-05 4.0099772304854605e-04 0.0000000000000000e+00  -3.9771091662193856e-05 4.2885006213162297e-04 0.0000000000000000e+00  -4.0466742000668693e-05 4.5722414863679411e-04 0.0000000000000000e+00  -4.1155532224978588e-05 4.8604076657029859e-04 0.0000000000000000e+00  -4.1755059992486465e-05 5.1523781558842090e-04 0.0000000000000000e+00  -4.2340918328995243e-05 5.4481772459161648e-04 0.0000000000000000e+00  -4.2847863536227305e-05 5.7470507837529986e-04 0.0000000000000000e+00  -4.3337386079478061e-05 6.0490598913061008e-04 0.0000000000000000e+00  -4.3757190730002418e-05 6.3534887401541212e-04 0.0000000000000000e+00  -4.4156796063692459e-05 6.6604066088545792e-04 0.0000000000000000e+00  -4.4496589142308820e-05 6.9691593644127467e-04 0.0000000000000000e+00  -4.4814222963580875e-05 7.2798236281586975e-04 0.0000000000000000e+00  -4.5080772720256808e-05 7.5918092887919679e-04 0.0000000000000000e+00  -4.5325472325522204e-05 7.9052010190763919e-04 0.0000000000000000e+00  -4.5528196261719206e-05 8.2194879850479470e-04 0.0000000000000000e+00  -4.5710339225237121e-05 8.5347553239132322e-04 0.0000000000000000e+00  -4.5858818198400017e-05 8.8505736271566053e-04 0.0000000000000000e+00  -4.5990549333246614e-05 9.1670568439094374e-04 0.0000000000000000e+00  -4.6094283401403219e-05 9.4838241821892043e-04 0.0000000000000000e+00  -4.6179532518129337e-05 9.8009702882752162e-04 0.0000000000000000e+00  -4.6258816481825099e-05 1.0118293908487500e-03 0.0000000000000000e+00  -4.6319056181329657e-05 1.0435777268001823e-03 0.0000000000000000e+00  -4.6371576784857520e-05 1.0753421551621782e-03 0.0000000000000000e+00  -2.5124373415818583e-05 1.1071284416681001e-03 0.0000000000000000e+00  1.7417658733020594e-05 1.1071399620860413e-03 0.0000000000000000e+00  3.8706420923125394e-05 1.0753781076916658e-03 0.0000000000000000e+00  3.8724639069901867e-05 1.0436067626358675e-03 0.0000000000000000e+00  3.8743283018346868e-05 1.0118444896732245e-03 0.0000000000000000e+00  3.8752961294963821e-05 9.8010048824697760e-04 0.0000000000000000e+00  3.8763972129724445e-05 9.4837467695449657e-04 0.0000000000000000e+00  3.8768622011644210e-05 9.1668488230562837e-04 0.0000000000000000e+00  3.8750821314472494e-05 8.8503106803238180e-04 0.0000000000000000e+00  3.8739233834751593e-05 8.5343257884091227e-04 0.0000000000000000e+00  3.8686119167157968e-05 8.2190083298165552e-04 0.0000000000000000e+00  3.8646085819805393e-05 7.9045789517754380e-04 0.0000000000000000e+00  3.8545840509021870e-05 7.5911532072877339e-04 0.0000000000000000e+00  3.8465707535316114e-05 7.2790390127884920e-04 0.0000000000000000e+00  3.8303856912624100e-05 6.9683578967513857e-04 0.0000000000000000e+00  3.8172550123674838e-05 6.6594994720629646e-04 0.0000000000000000e+00  3.7935454796945067e-05 6.3525821238264292e-04 0.0000000000000000e+00  3.7742824374161124e-05 6.0480691090990203e-04 0.0000000000000000e+00  3.7418324418046693e-05 5.7460779493643600e-04 0.0000000000000000e+00  3.7154522993765669e-05 5.4471416397940944e-04 0.0000000000000000e+00  3.6730342149401187e-05 5.1513697115257863e-04 0.0000000000000000e+00  3.6386308400180780e-05 4.8593507948681709e-04 0.0000000000000000e+00  3.5847971315811918e-05 4.5712266335364238e-04 0.0000000000000000e+00  3.5410356420997312e-05 4.2876503993434143e-04 0.0000000000000000e+00  3.4759242645793415e-05 4.0088515743782484e-04 0.0000000000000000e+00  3.4191803336426337e-05 3.7348122086851391e-04 0.0000000000000000e+00  3.3578179461441417e-05 3.4672694481734144e-04 0.0000000000000000e+00  3.2769960655699057e-05 3.2045335134508459e-04 0.0000000000000000e+00  3.2007815194993777e-05 2.9490638432865511e-04 0.0000000000000000e+00  3.1098975886881185e-05 2.7000894894320442e-04 0.0000000000000000e+00  3.0206746244809424e-05 2.4589154336684900e-04 0.0000000000000000e+00  2.9170390947091784e-05 2.2253428727940459e-04 0.0000000000000000e+00  2.8150025499932932e-05 2.0001313859221870e-04 0.0000000000000000e+00  2.6879985399074941e-05 1.7847411567101034e-04 0.0000000000000000e+00  2.5770818589247736e-05 1.5772330961129417e-04 0.0000000000000000e+00  2.4606177867258297e-05 1.3814122498277372e-04 0.0000000000000000e+00  2.3130367755293046e-05 1.1939170539038027e-04 0.0000000000000000e+00  2.1739546658634209e-05 1.0189070437244969e-04 0.0000000000000000e+00  2.0148444077551598e-05 8.5510611114242923e-05 0.0000000000000000e+00  1.8603378488893175e-05 7.0359948737820505e-05 0.0000000000000000e+00  1.6713442421522988e-05 5.6637061853910882e-05 0.0000000000000000e+00  1.5065376128740794e-05 4.4056524539742323e-05 0.0000000000000000e+00  1.3355509265565665e-05 3.3148422351411455e-05 0.0000000000000000e+00  1.1203248642239955e-05 2.3442613165292371e-05 0.0000000000000000e+00  9.2267124400946910e-06 1.5456085349959446e-05 0.0000000000000000e+00  6.8680397981374115e-06 9.1333034727782117e-06 0.0000000000000000e+00  4.7472261755472212e-06 4.5583816307569890e-06 0.0000000000000000e+00  2.2337889778293904e-06 1.7625839515051817e-06 0.0000000000000000e+00  -1.0484107200309248e-07 1.9449816766966724e-06 0.0000000000000000e+00  -4.3458827295250331e-06 1.0593933386912934e-03 0.0000000000000000e+00  -4.6028472655902287e-06 9.9869529690120823e-04 0.0000000000000000e+00  -4.0483887001781659e-06 8.9969672472097254e-04 0.0000000000000000e+00  -2.2725714178941699e-07 1.1044299795426643e-05 0.0000000000000000e+00  -3.4454802241913491e-06 8.3762580264019491e-04 0.0000000000000000e+00  -2.2391492219353235e-07 2.6340672052717169e-05 0.0000000000000000e+00  -3.2955374340813174e-06 7.7472534351610541e-04 0.0000000000000000e+00  -3.8367846686061528e-07 6.3083575634923888e-05 0.0000000000000000e+00  -7.9770425444119244e-07 9.2829121716913284e-05 0.0000000000000000e+00  -3.1277079130294589e-06 7.1228023881703335e-04 0.0000000000000000e+00  -8.6065551029586029e-07 1.8947966688932682e-04 0.0000000000000000e+00  -2.7503614760882879e-06 5.8953766733320931e-04 0.0000000000000000e+00  -6.4396841000964386e-07 1.2643593645430512e-04 0.0000000000000000e+00  -1.4354780389687715e-06 2.3363059081841987e-04 0.0000000000000000e+00  -2.5482995170996704e-06 5.2970543454397263e-04 0.0000000000000000e+00  -2.9448087714593992e-06 6.5047809782344294e-04 0.0000000000000000e+00  -1.6302959522191099e-06 2.8194231835773582e-04 0.0000000000000000e+00  -2.3400325742384324e-06 4.7125416043568438e-04 0.0000000000000000e+00  -1.3627532780462089e-06 3.3100845132927841e-04 0.0000000000000000e+00  -2.6130540715281191e-06 4.1563262818381652e-04 0.0000000000000000e+00  -1.9612911136273418e-06 3.7104078775572540e-04 0.0000000000000000e+00  -1.1486136533423970e-06 1.5552840815837658e-04 0.0000000000000000e+00  -3.5819630555563788e-06 9.5113662259057067e-04 0.0000000000000000e+00  -4.8774286958005936e-07 4.2469235672174284e-05 0.0000000000000000e+00  1.0450133511562386e-05 1.0288274014366775e-03 0.0000000000000000e+00  2.0013122071003422e-06 5.7107950174358320e-06 0.0000000000000000e+00  8.8533446431666493e-06 8.0613049194994720e-04 0.0000000000000000e+00  8.7766622071908873e-06 8.6919868656175207e-04 0.0000000000000000e+00  -3.9966141382306007e-06 1.8398300445051076e-05 0.0000000000000000e+00  -6.5667523440815560e-06 7.7166806315122688e-05 0.0000000000000000e+00  8.9823492991313432e-06 6.1989468107281410e-04 0.0000000000000000e+00  8.9188982370925855e-06 7.4343776450873226e-04 0.0000000000000000e+00  -1.0069744739422434e-05 2.1075886921665947e-04 0.0000000000000000e+00  8.9617723996620382e-06 5.5948090814599753e-04 0.0000000000000000e+00  -7.6373695309337117e-06 1.0993834011538126e-04 0.0000000000000000e+00  -1.0882318577377806e-05 2.5749049407394325e-04 0.0000000000000000e+00  8.8948584990959820e-06 5.0030882122493504e-04 0.0000000000000000e+00  8.9650088064380868e-06 6.8129114933087763e-04 0.0000000000000000e+00  -1.3807749146918907e-05 3.0700336228351219e-04 0.0000000000000000e+00  8.7809790354621104e-06 4.4266330103769953e-04 0.0000000000000000e+00  -4.3525229555979449e-07 4.2887112111842017e-07 0.0000000000000000e+00  3.2602188924399602e-07 3.5758165660257069e-07 0.0000000000000000e+00  -1.4166704074174020e-05 1.0843800702692633e-03 0.0000000000000000e+00  -2.5560331448513068e-06 5.7713137184301700e-06 0.0000000000000000e+00  1.1131397141081699e-05 3.9301537751876156e-04 0.0000000000000000