<?xml version="1.0"?>
<VTKFile type="UnstructuredGrid"  version="0.1"  >
<UnstructuredGrid>
<Piece  NumberOfPoints="1419" NumberOfCells="2698">
<Points>
<DataArray  type="Float64"  NumberOfComponents="3"  format="ascii">0 0 0  0 0.41 0  2.5 0 0  2.5 0.41 0  0.6 0.19 0  0.6 0.21 0  0.25 0.2 0  0.15 0.2 0  0.2489897948556636 0.21 0  0.2489897948556636 0.19 0  0.6 0.2 0  0 0.3807142857143437 0  0 0.3514285714286952 0  0 0.3221428571430699 0  0 0.29285714285744 0  0 0.2635714285718054 0  0 0.2342857142861561 0  0 0.2050000000005308 0  0 0.175714285714732 0  0 0.1464285714289574 0  0 0.1171428571431897 0  0 0.08785714285737878 0  0 0.05857142857161107 0  0 0.02928571428580012 0  0.03015443760436003 0 0  0.06140001986583606 0 0  0.09377624077125973 0 0  0.1273239957535082 0 0  0.1620856860351972 0 0  0.1981052433264291 0 0  0.235428184091502 0 0  0.2741016576309132 0 0  0.3141745521465447 0 0  0.3556974926295285 0 0  0.3987229542472677 0 0  0.4433053055141081 0 0  0.4895008759286886 0 0  0.5373680609405097 0 0  0.5869673343216626 0 0  0.6383613676634521 0 0  0.6916151138468254 0 0  0.7467958595648856 0 0  0.8039733463919316 0 0  0.8632198139502143 0 0  0.9246101326867038 0 0  0.9882218810934433 0 0  1.054135445558498 0 0  1.122434100542598 0 0  1.193204177141305 0 0  1.266535089879536 0 0  1.342519516046404 0 0  1.421253448503939 0 0  1.502836389106271 0 0  1.587371439758838 0 0  1.674965418777374 0 0  1.765729001825544 0 0  1.859776908880082 0 0  1.957227977487062 0 0  2.058205329869943 0 0  2.162836591189951 0 0  2.271253957290865 0 0  2.383594446803425 0 0  2.5 0.1024999999997612 0  2.5 0.2049999999994743 0  2.5 0.3074999999997183 0  2.383594446803656 0.41 0  2.271253957291315 0.41 0  2.162836591190598 0.41 0  2.058205329870775 0.41 0  1.957227977488067 0.41 0  1.859776908881246 0.41 0  1.765729001826854 0.41 0  1.674965418778818 0.41 0  1.58737143976041 0.41 0  1.502836389107956 0.41 0  1.421253448505726 0.41 0  1.342519516048286 0.41 0  1.266535089881505 0.41 0  1.193204177143353 0.41 0  1.122434100544716 0.41 0  1.05413544556068 0.41 0  0.9882218810956305 0.41 0  0.9246101326886647 0.41 0  0.8632198139519631 0.41 0  0.8039733463934788 0.41 0  0.7467958595662458 0.41 0  0.6916151138480078 0.41 0  0.6383613676644679 0.41 0  0.5869673343225223 0.41 0  0.5373680609412221 0.41 0  0.4895008759292634 0.41 0  0.4433053055145528 0.41 0  0.3987229542475914 0.41 0  0.3556974926297398 0.41 0  0.3141745521466497 0.41 0  0.2741016576310038 0.41 0  0.2354281840915826 0.41 0  0.1981052433265003 0.41 0  0.1620856860352591 0.41 0  0.1273239957535623 0.41 0  0.09377624077128965 0.41 0  0.06140001986584975 0.41 0  0.03015443760436654 0.41 0  0.2497468076502589 0.2050254481002335 0  0.2497468076502614 0.1949745518997913 0  0.2469965252529372 0.1829317073451959 0  0.2439893735792749 0.1762316384219906 0  0.2400332147834255 0.1700443375285386 0  0.2352133972704371 0.1645032867342007 0  0.2296339016332438 0.1597280261969788 0  0.2234150974217223 0.1558215752574715 0  0.2166911463437691 0.1528682099456123 0  0.2096071079204251 0.1509316448471593 0  0.2023158100364996 0.1500536585536553 0  0.194974551899914 0.1502531923497262 0  0.1877417105387872 0.1515259415822739 0  0.1807733240461124 0.153844448527136 0  0.1742197252835808 0.15715869474974 0  0.1682222986673531 0.1613971801805478 0  0.162910430003803 0.1664684656256651 0  0.1583987151779087 0.1722631454351573 0  0.1547844879126891 0.178656207771761 0  0.1521457199348551 0.1855097315605723 0  0.1505393388476355 0.1926758619366523 0  0.1505393388476328 0.2073241380633295 0  0.1521457199348437 0.2144902684393899 0  0.1547844879126531 0.221343792228163 0  0.1583987151778488 0.2277368545647528 0  0.1629104300036858 0.2335315343742052 0  0.1682222986671726 0.2386028198193036 0  0.1742197252833576 0.2428413052501257 0  0.1807733240458683 0.2461555514727623 0  0.1877417105384929 0.2484740584176516 0  0.1949745518995776 0.2497468076502398 0  0.202315810036185 0.2499463414463592 0  0.2096071079201568 0.2490683551528932 0  0.2166911463435495 0.2471317900544655 0  0.2234150974215506 0.2441784247426195 0  0.2296339016331197 0.2402719738031125 0  0.2352133972703547 0.2354967132658811 0  0.2400332147833751 0.2299556624715287 0  0.2439893735792577 0.2237683615780412 0  0.246996525252926 0.2170682926548348 0  0.25645809709277 0.21 0  0.2639263993298655 0.21 0  0.271394701566961 0.21 0  0.2788630038040554 0.21 0  0.2863313060411479 0.21 0  0.2937996082782405 0.21 0  0.301267910515333 0.21 0  0.3087362127524279 0.21 0  0.3162045149895234 0.21 0  0.3236728172265972 0.21 0  0.3311411194636928 0.21 0  0.3386094217007701 0.21 0  0.3460777239378666 0.21 0  0.3535460261749672 0.21 0  0.3610143284120516 0.21 0  0.3684826306491596 0.21 0  0.3759509328862226 0.21 0  0.383419235123329 0.21 0  0.3908875373604028 0.21 0  0.3983558395975142 0.21 0  0.4058241418345938 0.21 0  0.4132924440716992 0.21 0  0.4207607463087888 0.21 0  0.4282290485459029 0.21 0  0.4356973507830418 0.21 0  0.4431656530201649 0.21 0  0.4506339552573136 0.21 0  0.4581022574944306 0.21 0  0.4655705597315852 0.21 0  0.4730388619686996 0.21 0  0.480507164205851 0.21 0  0.4879754664429498 0.21 0  0.4954437686800938 0.21 0  0.502912070917267 0.21 0  0.5103803731544119 0.21 0  0.5178486753915261 0.21 0  0.5253169776286404 0.21 0  0.5327852798657868 0.21 0  0.5402535821029386 0.21 0  0.54772188434007 0.21 0  0.5551901865771842 0.21 0  0.5626584888143201 0.21 0  0.5701267910514778 0.21 0  0.5775950932886138 0.21 0  0.5850633955257281 0.21 0  0.5925316977628483 0.21 0  0.6 0.2050000000000054 0  0.6 0.1950000000000217 0  0.5925316977628897 0.19 0  0.5850633955257988 0.19 0  0.5775950932887378 0.19 0  0.5701267910515998 0.19 0  0.5626584888145268 0.19 0  0.5551901865773963 0.19 0  0.547721884340339 0.19 0  0.5402535821032429 0.19 0  0.5327852798661811 0.19 0  0.5253169776290537 0.19 0  0.5178486753919799 0.19 0  0.5103803731549078 0.19 0  0.502912070917822 0.19 0  0.4954437686807294 0.19 0  0.4879754664436223 0.19 0  0.4805071642065402 0.19 0  0.4730388619694271 0.19 0  0.4655705597323621 0.19 0  0.4581022574952563 0.19 0  0.4506339552581777 0.19 0  0.4431656530210671 0.19 0  0.4356973507839815 0.19 0  0.4282290485468779 0.19 0  0.4207607463097617 0.19 0  0.4132924440726327 0.19 0  0.4058241418354857 0.19 0  0.3983558395983636 0.19 0  0.3908875373612097 0.19 0  0.3834192351240934 0.19 0  0.3759509328869369 0.19 0  0.3684826306498175 0.19 0  0.361014328412667 0.19 0  0.3535460261755617 0.19 0  0.3460777239384295 0.19 0  0.3386094217012945 0.19 0  0.3311411194641595 0.19 0  0.3236728172270245 0.19 0  0.3162045149898895 0.19 0  0.3087362127527544 0.19 0  0.3012679105156187 0.19 0  0.2937996082784807 0.19 0  0.2863313060413428 0.19 0  0.2788630038042048 0.19 0  0.2713947015670686 0.19 0  0.2639263993299336 0.19 0  0.2564580970927985 0.19 0  0.2607803159922026 0.2000727136295815 0  0.5887803774232762 0.2001272386983733 0  0.5745072403740523 0.2002044435018727 0  0.5511891430099709 0.2001122610077113 0  0.2751288526855082 0.20000000000002 0  0.5365194309847112 0.1999999999999436 0  0.2894621222999649 0.1998691686390484 0  0.5215828265105155 0.1999999999999228 0  0.3127789816668748 0.1998657885438805 0  0.3274069683451451 0.2000000000000796 0  0.5066462220363641 0.199999999999908 0  0.3650630746574081 0.199866017807523 0  0.476773013087985 0.1999999999998713 0  0.3417402379596385 0.1998691686391011 0  0.3796850840047755 0.200000000000134 0  0.4618364086138087 0.1999999999998546 0  0.4917096175621762 0.1999999999998808 0  0.3946216884789568 0.2000000000001512 0  0.446899804139621 0.1999999999998389 0  0.4089549580935208 0.1998691686391595 0  0.4322718174608562 0.200127451265745 0  0.4201487168029707 0.1999966199048527 0  0.3528922713220932 0.2000185703532356 0  0.5633122436674589 0.1999814296467508 0  0.3006558810093873 0.1999966199048318 0  0.5815926498168407 0.1966545283159175 0  0.2677053789419034 0.1964246479135325 0  0.5290511287476175 0.1970915826863981 0  0.5439877332217911 0.197091582686394 0  0.2825131256993216 0.2035478995978015 0  0.3199386661080599 0.202908417313604 0  0.4842413153250809 0.1970915826863873 0  0.5141145242734466 0.1970915826863843 0  0.3722167817676917 0.2029084173136195 0  0.4693047108508938 0.1970915826863783 0  0.3348752705822316 0.202908417313609 0  0.3871533862418661 0.2029084173136212 0  0.4543681063767183 0.1970915826863795 0  0.4991779197992749 0.1970915826863902 0  0.4020059614928624 0.203547899597858 0  0.4394315019025246 0.1970915826863714 0  0.2550657455369551 0.2034088125358657 0  0.2548908499171161 0.1966940311614271 0  0.5946539510196798 0.2024302972968126 0  0.267698176732111 0.2039977513680092 0  0.4261685417851465 0.196409292431739 0  0.3590076176283495 0.196411355804271 0  0.5571672426447437 0.2036011176410121 0  0.3066757059912147 0.1964092924317024 0  0.594380730180568 0.1966558399668133 0  0.4842413153245942 0.2040749161535287 0  0.4693047108503577 0.2040749161535231 0  0.3871533862424271 0.1959250838464788 0  0.372246743208829 0.1959123236376545 0  0.5141145242731028 0.2040749161535395 0  0.4543681063761134 0.2040749161535186 0  0.4019979587101454 0.1959834479682427 0  0.4394608940728603 0.2040870543693135 0  0.5439623148931173 0.2040856076781014 0  0.5290511287473298 0.2040749161535501 0  0.4991779197988497 0.2040749161535382 0  0.3347912413592433 0.1959225448935183 0  0.3199680582793816 0.1959123018030061 0  0.2825051229162361 0.1959834479681729 0  0.3590471196690275 0.2036304442587945 0  0.5571594006495384 0.1963685282145804 0  0.3067669986803285 0.203627750582736 0  0.4262598344738712 0.2036568242185335 0  0.5814408164431408 0.2041285596160068 0  0.5688286748170428 0.1961819304477386 0  0.4145905603063645 0.2038180695522843 0  0.3473758401724931 0.2038180695522752 0  0.2950977245128307 0.2038180695522663 0  0.5688286748170693 0.203818069552238 0  0.2950977245127906 0.1961819304477774 0  0.3473758401723931 0.1961819304478349 0  0.4145905603061963 0.1961819304479011 0  0.2601812407614425 0.2056861609747042
[...]
<PointData  Vectors="f_40-1"> 
<DataArray  type="Float64"  Name="f_40-1"  NumberOfComponents="3" format="ascii">0.0000000000000000e+00 0.0000000000000000e+00 0.0000000000000000e+00  0.0000000000000000e+00 0.0000000000000000e+00 0.0000000000000000e+00  0.0000000000000000e+00 0.0000000000000000e+00 0.0000000000000000e+00  0.0000000000000000e+00 0.0000000000000000e+00 0.0000000000000000e+00  -9.1987466896357753e-06 -5.9354061892801974e-05 0.0000000000000000e+00  -4.7666527667962817e-06 -6.1537951858648966e-05 0.0000000000000000e+00  0.0000000000000000e+00 0.0000000000000000e+00 0.0000000000000000e+00  0.0000000000000000e+00 0.0000000000000000e+00 0.0000000000000000e+00  0.0000000000000000e+00 0.0000000000000000e+00 0.0000000000000000e+00  0.0000000000000000e+00 0.0000000000000000e+00 0.0000000000000000e+00  -7.1660473848959351e-06 -6.0444620276943258e-05 0.0000000000000000e+00  0.0000000000000000e+00 0.0000000000000000e+00 0.0000000000000000e+00  0.0000000000000000e+00 0.0000000000000000e+00 0.0000000000000000e+00  0.0000000000000000e+00 0.0000000000000000e+00 0.0000000000000000e+00  0.0000000000000000e+00 0.0000000000000000e+00 0.0000000000000000e+00  0.0000000000000000e+00 0.0000000000000000e+00 0.0000000000000000e+00  0.0000000000000000e+00 0.0000000000000000e+00 0.0000000000000000e+00  0.0000000000000000e+00 0.0000000000000000e+00 0.0000000000000000e+00  0.0000000000000000e+00 0.0000000000000000e+00 0.0000000000000000e+00  0.0000000000000000e+00 0.0000000000000000e+00 0.0000000000000000e+00  0.0000000000000000e+00 0.0000000000000000e+00 0.0000000000000000e+00  0.0000000000000000e+00 0.0000000000000000e+00 0.0000000000000000e+00  0.0000000000000000e+00 0.0000000000000000e+00 0.0000000000000000e+00  0.0000000000000000e+00 0.0000000000000000e+00 0.0000000000000000e+00  0.0000000000000000e+00 0.0000000000000000e+00 0.0000000000000000e+00  0.0000000000000000e+00 0.0000000000000000e+00 0.0000000000000000e+00  0.0000000000000000e+00 0.0000000000000000e+00 0.0000000000000000e+00  0.0000000000000000e+00 0.0000000000000000e+00 0.0000000000000000e+00  0.0000000000000000e+00 0.0000000000000000e+00 0.0000000000000000e+00  0.0000000000000000e+00 0.0000000000000000e+00 0.0000000000000000e+00  0.0000000000000000e+00 0.0000000000000000e+00 0.0000000000000000e+00  0.0000000000000000e+00 0.0000000000000000e+00 0.0000000000000000e+00  0.0000000000000000e+00 0.0000000000000000e+00 0.0000000000000000e+00  0.0000000000000000e+00 0.0000000000000000e+00 0.0000000000000000e+00  0.0000000000000000e+00 0.0000000000000000e+00 0.0000000000000000e+00  0.0000000000000000e+00 0.0000000000000000e+00 0.0000000000000000e+00  0.0000000000000000e+00 0.0000000000000000e+00 0.0000000000000000e+00  0.0000000000000000e+00 0.0000000000000000e+00 0.0000000000000000e+00  0.0000000000000000e+00 0.0000000000000000e+00 0.0000000000000000e+00  0.0000000000000000e+00 0.0000000000000000e+00 0.0000000000000000e+00  0.0000000000000000e+00 0.0000000000000000e+00 0.0000000000000000e+00  0.0000000000000000e+00 0.0000000000000000e+00 0.0000000000000000e+00  0.0000000000000000e+00 0.0000000000000000e+00 0.0000000000000000e+00  0.0000000000000000e+00 0.0000000000000000e+00 0.0000000000000000e+00  0.0000000000000000e+00 0.0000000000000000e+00 0.0000000000000000e+00  0.0000000000000000e+00 0.0000000000000000e+00 0.0000000000000000e+00  0.0000000000000000e+00 0.0000000000000000e+00 0.0000000000000000e+00  0.0000000000000000e+00 0.0000000000000000e+00 0.0000000000000000e+00  0.0000000000000000e+00 0.0000000000000000e+00 0.0000000000000000e+00  0.0000000000000000e+00 0.0000000000000000e+00 0.0000000000000000e+00  0.0000000000000000e+00 0.0000000000000000e+00 0.0000000000000000e+00  0.0000000000000000e+00 0.0000000000000000e+00 0.0000000000000000e+00  0.0000000000000000e+00 0.0000000000000000e+00 0.0000000000000000e+00  0.0000000000000000e+00 0.0000000000000000e+00 0.0000000000000000e+00  0.0000000000000000e+00 0.0000000000000000e+00 0.0000000000000000e+00  0.0000000000000000e+00 0.0000000000000000e+00 0.0000000000000000e+00  0.0000000000000000e+00 0.0000000000000000e+00 0.0000000000000000e+00  0.0000000000000000e+00 0.0000000000000000e+00 0.0000000000000000e+00  0.0000000000000000e+00 0.0000000000000000e+00 0.0000000000000000e+00  0.0000000000000000e+00 0.0000000000000000e+00 0.0000000000000000e+00  0.0000000000000000e+00 0.0000000000000000e+00 0.0000000000000000e+00  0.0000000000000000e+00 0.0000000000000000e+00 0.0000000000000000e+00  0.0000000000000000e+00 0.0000000000000000e+00 0.0000000000000000e+00  0.0000000000000000e+00 0.0000000000000000e+00 0.0000000000000000e+00  0.0000000000000000e+00 0.0000000000000000e+00 0.0000000000000000e+00  0.0000000000000000e+00 0.0000000000000000e+00 0.0000000000000000e+00  0.0000000000000000e+00 0.0000000000000000e+00 0.0000000000000000e+00  0.0000000000000000e+00 0.0000000000000000e+00 0.0000000000000000e+00  0.0000000000000000e+00 0.0000000000000000e+00 0.0000000000000000e+00  0.0000000000000000e+00 0.0000000000000000e+00 0.0000000000000000e+00  0.0000000000000000e+00 0.0000000000000000e+00 0.0000000000000000e+00  0.0000000000000000e+00 0.0000000000000000e+00 0.0000000000000000e+00  0.0000000000000000e+00 0.0000000000000000e+00 0.0000000000000000e+00  0.0000000000000000e+00 0.0000000000000000e+00 0.0000000000000000e+00  0.0000000000000000e+00 0.0000000000000000e+00 0.0000000000000000e+00  0.0000000000000000e+00 0.0000000000000000e+00 0.0000000000000000e+00  0.0000000000000000e+00 0.0000000000000000e+00 0.0000000000000000e+00  0.0000000000000000e+00 0.0000000000000000e+00 0.0000000000000000e+00  0.0000000000000000e+00 0.0000000000000000e+00 0.0000000000000000e+00  0.0000000000000000e+00 0.0000000000000000e+00 0.0000000000000000e+00  0.0000000000000000e+00 0.0000000000000000e+00 0.0000000000000000e+00  0.0000000000000000e+00 0.0000000000000000e+00 0.0000000000000000e+00  0.0000000000000000e+00 0.0000000000000000e+00 0.0000000000000000e+00  0.0000000000000000e+00 0.0000000000000000e+00 0.0000000000000000e+00  0.0000000000000000e+00 0.0000000000000000e+00 0.0000000000000000e+00  0.0000000000000000e+00 0.0000000000000000e+00 0.0000000000000000e+00  0.0000000000000000e+00 0.0000000000000000e+00 0.0000000000000000e+00  0.0000000000000000e+00 0.0000000000000000e+00 0.0000000000000000e+00  0.0000000000000000e+00 0.0000000000000000e+00 0.0000000000000000e+00  0.0000000000000000e+00 0.0000000000000000e+00 0.0000000000000000e+00  0.0000000000000000e+00 0.0000000000000000e+00 0.0000000000000000e+00  0.0000000000000000e+00 0.0000000000000000e+00 0.0000000000000000e+00  0.0000000000000000e+00 0.0000000000000000e+00 0.0000000000000000e+00  0.0000000000000000e+00 0.0000000000000000e+00 0.0000000000000000e+00  0.0000000000000000e+00 0.0000000000000000e+00 0.0000000000000000e+00  0.0000000000000000e+00 0.0000000000000000e+00 0.0000000000000000e+00  0.0000000000000000e+00 0.0000000000000000e+00 0.0000000000000000e+00  0.0000000000000000e+00 0.0000000000000000e+00 0.0000000000000000e+00  0.0000000000000000e+00 0.0000000000000000e+00 0.0000000000000000e+00  0.0000000000000000e+00 0.0000000000000000e+00 0.0000000000000000e+00  0.0000000000000000e+00 0.0000000000000000e+00 0.0000000000000000e+00  0.0000000000000000e+00 0.0000000000000000e+00 0.0000000000000000e+00  0.0000000000000000e+00 0.0000000000000000e+00 0.0000000000000000e+00  0.0000000000000000e+00 0.0000000000000000e+00 0.0000000000000000e+00  0.0000000000000000e+00 0.0000000000000000e+00 0.0000000000000000e+00  0.0000000000000000e+00 0.0000000000000000e+00 0.0000000000000000e+00  0.0000000000000000e+00 0.0000000000000000e+00 0.0000000000000000e+00  0.0000000000000000e+00 0.0000000000000000e+00 0.0000000000000000e+00  0.0000000000000000e+00 0.0000000000000000e+00 0.0000000000000000e+00  0.0000000000000000e+00 0.0000000000000000e+00 0.0000000000000000e+00  0.0000000000000000e+00 0.0000000000000000e+00 0.0000000000000000e+00  0.0000000000000000e+00 0.0000000000000000e+00 0.0000000000000000e+00  0.0000000000000000e+00 0.0000000000000000e+00 0.0000000000000000e+00  0.0000000000000000e+00 0.0000000000000000e+00 0.0000000000000000e+00  0.0000000000000000e+00 0.0000000000000000e+00 0.0000000000000000e+00  0.0000000000000000e+00 0.0000000000000000e+00 0.0000000000000000e+00  0.0000000000000000e+00 0.0000000000000000e+00 0.0000000000000000e+00  0.0000000000000000e+00 0.0000000000000000e+00 0.0000000000000000e+00  0.0000000000000000e+00 0.0000000000000000e+00 0.0000000000000000e+00  0.0000000000000000e+00 0.0000000000000000e+00 0.0000000000000000e+00  0.0000000000000000e+00 0.0000000000000000e+00 0.0000000000000000e+00  0.0000000000000000e+00 0.0000000000000000e+00 0.0000000000000000e+00  0.0000000000000000e+00 0.0000000000000000e+00 0.0000000000000000e+00  0.0000000000000000e+00 0.0000000000000000e+00 0.0000000000000000e+00  0.0000000000000000e+00 0.0000000000000000e+00 0.0000000000000000e+00  0.0000000000000000e+00 0.0000000000000000e+00 0.0000000000000000e+00  0.0000000000000000e+00 0.0000000000000000e+00 0.0000000000000000e+00  0.0000000000000000e+00 0.0000000000000000e+00 0.0000000000000000e+00  0.0000000000000000e+00 0.0000000000000000e+00 0.0000000000000000e+00  0.0000000000000000e+00 0.0000000000000000e+00 0.0000000000000000e+00  0.0000000000000000e+00 0.0000000000000000e+00 0.0000000000000000e+00  0.0000000000000000e+00 0.0000000000000000e+00 0.0000000000000000e+00  0.0000000000000000e+00 0.0000000000000000e+00 0.0000000000000000e+00  0.0000000000000000e+00 0.0000000000000000e+00 0.0000000000000000e+00  0.0000000000000000e+00 0.0000000000000000e+00 0.0000000000000000e+00  0.0000000000000000e+00 0.0000000000000000e+00 0.0000000000000000e+00  0.0000000000000000e+00 0.0000000000000000e+00 0.0000000000000000e+00  0.0000000000000000e+00 0.0000000000000000e+00 0.0000000000000000e+00  0.0000000000000000e+00 0.0000000000000000e+00 0.0000000000000000e+00  0.0000000000000000e+00 0.0000000000000000e+00 0.0000000000000000e+00  0.0000000000000000e+00 0.0000000000000000e+00 0.0000000000000000e+00  0.0000000000000000e+00 0.0000000000000000e+00 0.0000000000000000e+00  0.0000000000000000e+00 0.0000000000000000e+00 0.0000000000000000e+00  3.6775597420425963e-07 -1.9593505055152529e-06 0.0000000000000000e+00  5.2404530207125738e-07 -2.3369763008432499e-06 0.0000000000000000e+00  8.5367850982166076e-07 -2.6076706706774037e-06 0.0000000000000000e+00  1.2161200682992833e-06 -2.9759349199439800e-06 0.0000000000000000e+00  1.5606901817253433e-06 -3.4489995810066170e-06 0.0000000000000000e+00  1.8827380992281443e-06 -4.0161289241101099e-06 0.0000000000000000e+00  2.1807720348246335e-06 -4.6702114474131779e-06 0.0000000000000000e+00  2.4552465032186862e-06 -5.4064989706456044e-06 0.0000000000000000e+00  2.7052040343734047e-06 -6.2202358151941960e-06 0.0000000000000000e+00  2.9305752389183897e-06 -7.1062883854266706e-06 0.0000000000000000e+00  3.1313491020741980e-06 -8.0601848372187161e-06 0.0000000000000000e+00  3.3075132431823729e-06 -9.0770652690680549e-06 0.0000000000000000e+00  3.4590631021105660e-06 -1.0152724708459027e-05 0.0000000000000000e+00  3.5859746406226742e-06 -1.1282666951874006e-05 0.0000000000000000e+00  3.6888949429664274e-06 -1.2462886723133124e-05 0.0000000000000000e+00  3.7674685868312329e-06 -1.3689744088535735e-05 0.0000000000000000e+00  3.8220300933913976e-06 -1.4959100498966569e-05 0.0000000000000000e+00  3.8527361771295459e-06 -1.6267778057868854e-05 0.0000000000000000e+00  3.8598516114803829e-06 -1.7612101016244242e-05 0.0000000000000000e+00  3.8435166010329395e-06 -1.8989199451781853e-05 0.0000000000000000e+00  3.8039879332132762e-06 -2.0395893720160324e-05 0.0000000000000000e+00  3.7413972400461790e-06 -2.1829531043482921e-05 0.0000000000000000e+00  3.6559295531974175e-06 -2.3287421955029568e-05 0.0000000000000000e+00  3.5480436506511302e-06 -2.4767106251514811e-05 0.0000000000000000e+00  3.4176420547814163e-06 -2.6266578440600742e-05 0.0000000000000000e+00  3.2650061062044890e-06 -2.7783455536857335e-05 0.0000000000000000e+00  3.0902984764000446e-06 -2.9316027986317049e-05 0.0000000000000000e+00  2.8937627037666856e-06 -3.0862379292273401e-05 0.0000000000000000e+00  2.6754545723238995e-06 -3.2420953014764914e-05 0.0000000000000000e+00  2.4356380627118946e-06 -3.3990299063891258e-05 0.0000000000000000e+00  2.1743722158088381e-06 -3.5568958688683109e-05 0.0000000000000000e+00  1.8917984251153322e-06 -3.7155849857837112e-05 0.0000000000000000e+00  1.5880986263891642e-06 -3.8749785114110800e-05 0.0000000000000000e+00  1.2632563359294826e-06 -4.0349743492090643e-05 0.0000000000000000e+00  9.1733833860722642e-07 -4.1954981593468852e-05 0.0000000000000000e+00  5.5049755963968066e-07 -4.3564614421666416e-05 0.0000000000000000e+00  1.6270392169382396e-07 -4.5177933241985201e-05 0.0000000000000000e+00  -2.4601663815332123e-07 -4.6794344623764170e-05 0.0000000000000000e+00  -6.7572810632850006e-07 -4.8413213190368617e-05 0.0000000000000000e+00  -1.1265124676406724e-06 -5.0034155700112690e-05 0.0000000000000000e+00  -1.5984333114815736e-06 -5.1656620688321922e-05 0.0000000000000000e+00  -2.0918110681360284e-06 -5.3280171358480734e-05 0.0000000000000000e+00  -2.6069047728238525e-06 -5.4904289488490377e-05 0.0000000000000000e+00  -3.1442102368215993e-06 -5.6527674412923805e-05 0.0000000000000000e+00  -3.7008615734393067e-06 -5.8148168697073102e-05 0.0000000000000000e+00  -4.2582286052861680e-06 -5.9776526853555552e-05 0.0000000000000000e+00  -6.0269393243495457e-06 -6.0986422200221841e-05 0.0000000000000000e+00  -8.2389376174829032e-06 -5.9905305868816525e-05 0.0000000000000000e+00  -8.6837628442424743e-06 -5.7805760384142539e-05 0.0000000000000000e+00  -8.1274092156355224e-06 -5.6128016218449938e-05 0.0000000000000000e+00  -7.5688583078859483e-06 -5.4442443912998745e-05 0.0000000000000000e+00  -7.0289855373116212e-06 -5.2761476490118316e-05 0.0000000000000000e+00  -6.5107551029621832e-06 -5.1083276270090713e-05 0.0000000000000000e+00  -6.0135409428805718e-06 -4.9406987958353386e-05 0.0000000000000000e+00  -5.5368896485125930e-06 -4.7732578272047065e-05 0.0000000000000000e+00  -5.0803620898998570e-06 -4.6060415433129455e-05 0.0000000000000000e+00  -4.6437448704615479e-06 -4.4390670931058771e-05 0.0000000000000000e+00  -4.2267358819107719e-06 -4.2723903785276257e-05 0.0000000000000000e+00  -3.8291729078483380e-06 -4.1060430248444799e-05 0.0000000000000000e+00  -3.4507965123451283e-06 -3.9401010779274294e-05 0.0000000000000000e+00  -3.0914290329966635e-06 -3.7746134451395954e-05 0.0000000000000000e+00  -2.7508288725365722e-06 -3.6096730524832881e-05 0.0000000000000000e+00  -2.4288470249060532e-06 -3.4453476821517434e-05 0.0000000000000000e+00  -2.1252277267421851e-06 -3.2817523808608312e-05 0.0000000000000000e+00  -1.8398314009414444e-06 -3.1189733925347954e-05 0.0000000000000000e+00  -1.5723964642179056e-06 -2.9571546872849961e-05 0.0000000000000000e+00  -1.3227455368233493e-06 -2.7964081874548166e-05 0.0000000000000000e+00  -1.0906024585071747e-06 -2.6369037723647625e-05 0.0000000000000000e+00  -8.7579888638240936e-07 -2.4787785280184508e-05 0.0000000000000000e+00  -6.7804635489696535e-07 -2.3222335347793197e-05 0.0000000000000000e+00  -4.9715100086625901e-07 -2.1674345572336063e-05 0.0000000000000000e+00  -3.3274570269619082e-07 -2.0146229299090515e-05 0.0000000000000000e+00  -1.8484191706456148e-07 -1.8640014123328898e-05 0.0000000000000000e+00  -5.2931099452796862e-08 -1.7158136375350568e-05 0.0000000000000000e+00  6.3243804564496211e-08 -1.5703233103964864e-05 0.0000000000000000e+00  1.6390217886115814e-07 -1.4278156956511910e-05 0.0000000000000000e+00  2.4937531046766214e-07 -1.2885788963746581e-05 0.0000000000000000e+00  3.1991970095427372e-07 -1.1529408678320510e-05 0.0000000000000000e+00  3.7591135497543814e-07 -1.0212297799482417e-05 0.0000000000000000e+00  4.1765131614047829e-07 -8.9380460601235749e-06 0.0000000000000000e+00  4.4564394296979382e-07 -7.7105439880774663e-06 0.0000000000000000e+00  4.5976009626819796e-07 -6.5336717369103154e-06 0.0000000000000000e+00  4.6078839169048821e-07 -5.4113188577359406e-06 0.0000000000000000e+00  4.4908225218017070e-07 -4.3481716315740184e-06 0.0000000000000000e+00  4.2497342620409070e-07 -3.3486277388421901e-06 0.0000000000000000e+00  3.8902073738983299e-07 -2.4175692819680856e-06 0.0000000000000000e+00  3.4171539520506042e-07 -1.5597817128836720e-06 0.0000000000000000e+00  2.8395555502010939e-07 -7.8090456975777141e-07 0.0000000000000000e+00  2.1585794939947884e-07 -8.6112208786084186e-08 0.0000000000000000e+00  1.3864003730937074e-07 5.1907858131143469e-07 0.0000000000000000e+00  5.3735363124275520e-08 1.0301847742697388e-06 0.0000000000000000e+00  -3.3727399106198105e-08 1.4472691410991821e-06 0.0000000000000000e+00  -7.2875554502595252e-08 1.7506122256996501e-06 0.0000000000000000e+00  7.2289248500523580e-08 1.7277282962719445e-06 0.0000000000000000e+00  -3.8864049166013212e-08 -1.5252733215558694e-07 0.0000000000000000e+00  -6.2187926114770787e-06 -5.7972921734554066e-05 0.0000000000000000e+00  -5.1123244676591645e-06 -5.4822835855444339e-05 0.0000000000000000e+00  -3.5497290641200043e-06 -4.9660145453932755e-05 0.0000000000000000e+00  5.0657543021258766e-07 -7.0217027311119518e-07 0.0000000000000000e+00  -2.6836825372433071e-06 -4.6412761988730864e-05 0.0000000000000000e+00  9.0809376999034424e-07 -1.6187074313800190e-06 0.0000000000000000e+00  -1.8576459965050557e-06 -4.3129041861316910e-05 0.0000000000000000e+00  1.4452378415580188e-06 -3.8553473467556150e-06 0.0000000000000000e+00  1.7143342467239107e-06 -5.6680465326572582e-06 0.0000000000000000e+00  -1.1122115144279085e-06 -3.9859288352526846e-05 0.0000000000000000e+00  2.0202067697007750e-06 -1.1322575711272896e-05 0.0000000000000000e+00  1.3965158108516284e-07 -3.3385055384643418e-05 0.0000000000000000e+00  1.8764286633814046e-06 -7.6397377908318710e-06 0.0000000000000000e+00  2.0401025483134362e-06 -1.3883099295802233e-05 0.0000000000000000e+00  6.4701831531492193e-07 -3.0196212008514352e-05 0.0000000000000000e+00  -4.4662293233943215e-07 -3.6608976603419220e-05 0.0000000000000000e+00  1.9615560399370826e-06 -1.6622821158549674e-05 0.0000000000000000e+00  1.0757975517857790e-06 -2.7053181395752399e-05 0.0000000000000000e+00  1.7881160256547441e-06 -1.9348233525764869e-05 0.0000000000000000e+00  1.4457570810753333e-06 -2.4051474316958544e-05 0.0000000000000000e+00  1.6475143210914076e-06 -2.1580501130310995e-05 0.0000000000000000e+00  1.9916460134711748e-06 -9.3662468280361660e-06 0.0000000000000000e+00  -4.3754023757554055e-06 -5.2323388890416845e-05 0.0000000000000000e+00  1.1979470164212031e-06 -2.6162651363232273e-06 0.0000000000000000e+00  -6.4195331258520574e-06 -5.6027737996525948e-05 0.0000000000000000e+00  1.3496918403653494e-07 3.7534656151201040e-07 0.0000000000000000e+00  -2.8972345071421341e-06 -4.4416402953951059e-05 0.0000000000000000e+00  -3.7659898843215885e-06 -4.7720210273431571e-05 0.0000000000000000e+00  9.5584485348538820e-07 -1.8575893442370658e-06 0.0000000000000000e+00  1.9443698423860755e-06 -5.2752462572617691e-06 0.0000000000000000e+00  -7.6807104590603779e-07 -3.4597073972138562e-05 0.0000000000000000e+00  -2.1087301886649091e-06 -4.1124555697720378e-05 0.0000000000000000e+00  2.5528345435873360e-06 -1.3072027928500459e-05 0.0000000000000000e+00  -2.1419096540575318e-07 -3.1375346043764732e-05 0.0000000000000000e+00  2.2199902063060836e-06 -7.2192543926715542e-06 0.0000000000000000e+00  2.5423973242049875e-06 -1.5725959038048987e-05 0.0000000000000000e+00  2.6306393409807361e-07 -2.8193882493820918e-05 0.0000000000000000e+00  -1.3993174074338759e-06 -3.7849393609673111e-05 0.0000000000000000e+00  2.5736101479700889e-06 -1.8605636333999984e-05 0.0000000000000000e+00  6.6442445079567185e-07 -2.5064491308377404e-05 0.0000000000000000e+00  -1.7164111013185404e-07 -5.9725225080875943e-07 0.0000000000000000e+00  -2.4156888485069916e-07 5.0382476048847805e-07 0.0000000000000000e+00  -6.1885501480855024e-06 -5.9497485122527459e-05 0.0000000000000000e+00  4.1629079315129654e-07 