<?xml version="1.0"?>
<VTKFile type="UnstructuredGrid"  version="0.1"  >
<UnstructuredGrid>
<Piece  NumberOfPoints="1419" NumberOfCells="2698">
<Points>
<DataArray  type="Float64"  NumberOfComponents="3"  format="ascii">0 0 0  0 0.41 0  2.5 0 0  2.5 0.41 0  0.6 0.19 0  0.6 0.21 0  0.25 0.2 0  0.15 0.2 0  0.2489897948556636 0.21 0  0.2489897948556636 0.19 0  0.6 0.2 0  0 0.3807142857143437 0  0 0.3514285714286952 0  0 0.3221428571430699 0  0 0.29285714285744 0  0 0.2635714285718054 0  0 0.2342857142861561 0  0 0.2050000000005308 0  0 0.175714285714732 0  0 0.1464285714289574 0  0 0.1171428571431897 0  0 0.08785714285737878 0  0 0.05857142857161107 0  0 0.02928571428580012 0  0.03015443760436003 0 0  0.06140001986583606 0 0  0.09377624077125973 0 0  0.1273239957535082 0 0  0.1620856860351972 0 0  0.1981052433264291 0 0  0.235428184091502 0 0  0.2741016576309132 0 0  0.3141745521465447 0 0  0.3556974926295285 0 0  0.3987229542472677 0 0  0.4433053055141081 0 0  0.4895008759286886 0 0  0.5373680609405097 0 0  0.5869673343216626 0 0  0.6383613676634521 0 0  0.6916151138468254 0 0  0.7467958595648856 0 0  0.8039733463919316 0 0  0.8632198139502143 0 0  0.9246101326867038 0 0  0.9882218810934433 0 0  1.054135445558498 0 0  1.122434100542598 0 0  1.193204177141305 0 0  1.266535089879536 0 0  1.342519516046404 0 0  1.421253448503939 0 0  1.502836389106271 0 0  1.587371439758838 0 0  1.674965418777374 0 0  1.765729001825544 0 0  1.859776908880082 0 0  1.957227977487062 0 0  2.058205329869943 0 0  2.162836591189951 0 0  2.271253957290865 0 0  2.383594446803425 0 0  2.5 0.1024999999997612 0  2.5 0.2049999999994743 0  2.5 0.3074999999997183 0  2.383594446803656 0.41 0  2.271253957291315 0.41 0  2.162836591190598 0.41 0  2.058205329870775 0.41 0  1.957227977488067 0.41 0  1.859776908881246 0.41 0  1.765729001826854 0.41 0  1.674965418778818 0.41 0  1.58737143976041 0.41 0  1.502836389107956 0.41 0  1.421253448505726 0.41 0  1.342519516048286 0.41 0  1.266535089881505 0.41 0  1.193204177143353 0.41 0  1.122434100544716 0.41 0  1.05413544556068 0.41 0  0.9882218810956305 0.41 0  0.9246101326886647 0.41 0  0.8632198139519631 0.41 0  0.8039733463934788 0.41 0  0.7467958595662458 0.41 0  0.6916151138480078 0.41 0  0.6383613676644679 0.41 0  0.5869673343225223 0.41 0  0.5373680609412221 0.41 0  0.4895008759292634 0.41 0  0.4433053055145528 0.41 0  0.3987229542475914 0.41 0  0.3556974926297398 0.41 0  0.3141745521466497 0.41 0  0.2741016576310038 0.41 0  0.2354281840915826 0.41 0  0.1981052433265003 0.41 0  0.1620856860352591 0.41 0  0.1273239957535623 0.41 0  0.09377624077128965 0.41 0  0.06140001986584975 0.41 0  0.03015443760436654 0.41 0  0.2497468076502589 0.2050254481002335 0  0.2497468076502614 0.1949745518997913 0  0.2469965252529372 0.1829317073451959 0  0.2439893735792749 0.1762316384219906 0  0.2400332147834255 0.1700443375285386 0  0.2352133972704371 0.1645032867342007 0  0.2296339016332438 0.1597280261969788 0  0.2234150974217223 0.1558215752574715 0  0.2166911463437691 0.1528682099456123 0  0.2096071079204251 0.1509316448471593 0  0.2023158100364996 0.1500536585536553 0  0.194974551899914 0.1502531923497262 0  0.1877417105387872 0.1515259415822739 0  0.1807733240461124 0.153844448527136 0  0.1742197252835808 0.15715869474974 0  0.1682222986673531 0.1613971801805478 0  0.162910430003803 0.1664684656256651 0  0.1583987151779087 0.1722631454351573 0  0.1547844879126891 0.178656207771761 0  0.1521457199348551 0.1855097315605723 0  0.1505393388476355 0.1926758619366523 0  0.1505393388476328 0.2073241380633295 0  0.1521457199348437 0.2144902684393899 0  0.1547844879126531 0.221343792228163 0  0.1583987151778488 0.2277368545647528 0  0.1629104300036858 0.2335315343742052 0  0.1682222986671726 0.2386028198193036 0  0.1742197252833576 0.2428413052501257 0  0.1807733240458683 0.2461555514727623 0  0.1877417105384929 0.2484740584176516 0  0.1949745518995776 0.2497468076502398 0  0.202315810036185 0.2499463414463592 0  0.2096071079201568 0.2490683551528932 0  0.2166911463435495 0.2471317900544655 0  0.2234150974215506 0.2441784247426195 0  0.2296339016331197 0.2402719738031125 0  0.2352133972703547 0.2354967132658811 0  0.2400332147833751 0.2299556624715287 0  0.2439893735792577 0.2237683615780412 0  0.246996525252926 0.2170682926548348 0  0.25645809709277 0.21 0  0.2639263993298655 0.21 0  0.271394701566961 0.21 0  0.2788630038040554 0.21 0  0.2863313060411479 0.21 0  0.2937996082782405 0.21 0  0.301267910515333 0.21 0  0.3087362127524279 0.21 0  0.3162045149895234 0.21 0  0.3236728172265972 0.21 0  0.3311411194636928 0.21 0  0.3386094217007701 0.21 0  0.3460777239378666 0.21 0  0.3535460261749672 0.21 0  0.3610143284120516 0.21 0  0.3684826306491596 0.21 0  0.3759509328862226 0.21 0  0.383419235123329 0.21 0  0.3908875373604028 0.21 0  0.3983558395975142 0.21 0  0.4058241418345938 0.21 0  0.4132924440716992 0.21 0  0.4207607463087888 0.21 0  0.4282290485459029 0.21 0  0.4356973507830418 0.21 0  0.4431656530201649 0.21 0  0.4506339552573136 0.21 0  0.4581022574944306 0.21 0  0.4655705597315852 0.21 0  0.4730388619686996 0.21 0  0.480507164205851 0.21 0  0.4879754664429498 0.21 0  0.4954437686800938 0.21 0  0.502912070917267 0.21 0  0.5103803731544119 0.21 0  0.5178486753915261 0.21 0  0.5253169776286404 0.21 0  0.5327852798657868 0.21 0  0.5402535821029386 0.21 0  0.54772188434007 0.21 0  0.5551901865771842 0.21 0  0.5626584888143201 0.21 0  0.5701267910514778 0.21 0  0.5775950932886138 0.21 0  0.5850633955257281 0.21 0  0.5925316977628483 0.21 0  0.6 0.2050000000000054 0  0.6 0.1950000000000217 0  0.5925316977628897 0.19 0  0.5850633955257988 0.19 0  0.5775950932887378 0.19 0  0.5701267910515998 0.19 0  0.5626584888145268 0.19 0  0.5551901865773963 0.19 0  0.547721884340339 0.19 0  0.5402535821032429 0.19 0  0.5327852798661811 0.19 0  0.5253169776290537 0.19 0  0.5178486753919799 0.19 0  0.5103803731549078 0.19 0  0.502912070917822 0.19 0  0.4954437686807294 0.19 0  0.4879754664436223 0.19 0  0.4805071642065402 0.19 0  0.4730388619694271 0.19 0  0.4655705597323621 0.19 0  0.4581022574952563 0.19 0  0.4506339552581777 0.19 0  0.4431656530210671 0.19 0  0.4356973507839815 0.19 0  0.4282290485468779 0.19 0  0.4207607463097617 0.19 0  0.4132924440726327 0.19 0  0.4058241418354857 0.19 0  0.3983558395983636 0.19 0  0.3908875373612097 0.19 0  0.3834192351240934 0.19 0  0.3759509328869369 0.19 0  0.3684826306498175 0.19 0  0.361014328412667 0.19 0  0.3535460261755617 0.19 0  0.3460777239384295 0.19 0  0.3386094217012945 0.19 0  0.3311411194641595 0.19 0  0.3236728172270245 0.19 0  0.3162045149898895 0.19 0  0.3087362127527544 0.19 0  0.3012679105156187 0.19 0  0.2937996082784807 0.19 0  0.2863313060413428 0.19 0  0.2788630038042048 0.19 0  0.2713947015670686 0.19 0  0.2639263993299336 0.19 0  0.2564580970927985 0.19 0  0.2607803159922026 0.2000727136295815 0  0.5887803774232762 0.2001272386983733 0  0.5745072403740523 0.2002044435018727 0  0.5511891430099709 0.2001122610077113 0  0.2751288526855082 0.20000000000002 0  0.5365194309847112 0.1999999999999436 0  0.2894621222999649 0.1998691686390484 0  0.5215828265105155 0.1999999999999228 0  0.3127789816668748 0.1998657885438805 0  0.3274069683451451 0.2000000000000796 0  0.5066462220363641 0.199999999999908 0  0.3650630746574081 0.199866017807523 0  0.476773013087985 0.1999999999998713 0  0.3417402379596385 0.1998691686391011 0  0.3796850840047755 0.200000000000134 0  0.4618364086138087 0.1999999999998546 0  0.4917096175621762 0.1999999999998808 0  0.3946216884789568 0.2000000000001512 0  0.446899804139621 0.1999999999998389 0  0.4089549580935208 0.1998691686391595 0  0.4322718174608562 0.200127451265745 0  0.4201487168029707 0.1999966199048527 0  0.3528922713220932 0.2000185703532356 0  0.5633122436674589 0.1999814296467508 0  0.3006558810093873 0.1999966199048318 0  0.5815926498168407 0.1966545283159175 0  0.2677053789419034 0.1964246479135325 0  0.5290511287476175 0.1970915826863981 0  0.5439877332217911 0.197091582686394 0  0.2825131256993216 0.2035478995978015 0  0.3199386661080599 0.202908417313604 0  0.4842413153250809 0.1970915826863873 0  0.5141145242734466 0.1970915826863843 0  0.3722167817676917 0.2029084173136195 0  0.4693047108508938 0.1970915826863783 0  0.3348752705822316 0.202908417313609 0  0.3871533862418661 0.2029084173136212 0  0.4543681063767183 0.1970915826863795 0  0.4991779197992749 0.1970915826863902 0  0.4020059614928624 0.203547899597858 0  0.4394315019025246 0.1970915826863714 0  0.2550657455369551 0.2034088125358657 0  0.2548908499171161 0.1966940311614271 0  0.5946539510196798 0.2024302972968126 0  0.267698176732111 0.2039977513680092 0  0.4261685417851465 0.196409292431739 0  0.3590076176283495 0.196411355804271 0  0.5571672426447437 0.2036011176410121 0  0.3066757059912147 0.1964092924317024 0  0.594380730180568 0.1966558399668133 0  0.4842413153245942 0.2040749161535287 0  0.4693047108503577 0.2040749161535231 0  0.3871533862424271 0.1959250838464788 0  0.372246743208829 0.1959123236376545 0  0.5141145242731028 0.2040749161535395 0  0.4543681063761134 0.2040749161535186 0  0.4019979587101454 0.1959834479682427 0  0.4394608940728603 0.2040870543693135 0  0.5439623148931173 0.2040856076781014 0  0.5290511287473298 0.2040749161535501 0  0.4991779197988497 0.2040749161535382 0  0.3347912413592433 0.1959225448935183 0  0.3199680582793816 0.1959123018030061 0  0.2825051229162361 0.1959834479681729 0  0.3590471196690275 0.2036304442587945 0  0.5571594006495384 0.1963685282145804 0  0.3067669986803285 0.203627750582736 0  0.4262598344738712 0.2036568242185335 0  0.5814408164431408 0.2041285596160068 0  0.5688286748170428 0.1961819304477386 0  0.4145905603063645 0.2038180695522843 0  0.3473758401724931 0.2038180695522752 0  0.2950977245128307 0.2038180695522663 0  0.5688286748170693 0.203818069552238 0  0.2950977245127906 0.1961819304477774 0  0.3473758401723931 0.1961819304478349 0  0.4145905603061963 0.1961819304479011 0  0.2601812407614425 0.2056861609747042
[...]
<PointData  Vectors="f_40-0"> 
<DataArray  type="Float64"  Name="f_40-0"  NumberOfComponents="3" format="ascii">0.0000000000000000e+00 0.0000000000000000e+00 0.0000000000000000e+00  0.0000000000000000e+00 0.0000000000000000e+00 0.0000000000000000e+00  0.0000000000000000e+00 0.0000000000000000e+00 0.0000000000000000e+00  0.0000000000000000e+00 0.0000000000000000e+00 0.0000000000000000e+00  -2.4809309378507282e-05 -2.3114506113858775e-05 0.0000000000000000e+00  -2.3872297588898573e-05 -2.8483396720782552e-05 0.0000000000000000e+00  0.0000000000000000e+00 0.0000000000000000e+00 0.0000000000000000e+00  0.0000000000000000e+00 0.0000000000000000e+00 0.0000000000000000e+00  0.0000000000000000e+00 0.0000000000000000e+00 0.0000000000000000e+00  0.0000000000000000e+00 0.0000000000000000e+00 0.0000000000000000e+00  -2.4691205514186138e-05 -2.5795917726113723e-05 0.0000000000000000e+00  4.9093216945748632e-03 0.0000000000000000e+00 0.0000000000000000e+00  9.0633631284465031e-03 0.0000000000000000e+00 0.0000000000000000e+00  1.2462124301613944e-02 0.0000000000000000e+00 0.0000000000000000e+00  1.5105605214081120e-02 0.0000000000000000e+00 0.0000000000000000e+00  1.6993805865847689e-02 0.0000000000000000e+00 0.0000000000000000e+00  1.8126726256913542e-02 0.0000000000000000e+00 0.0000000000000000e+00  1.8504366387277538e-02 0.0000000000000000e+00 0.0000000000000000e+00  1.8126726256936447e-02 0.0000000000000000e+00 0.0000000000000000e+00  1.6993805865887036e-02 0.0000000000000000e+00 0.0000000000000000e+00  1.5105605214129843e-02 0.0000000000000000e+00 0.0000000000000000e+00  1.2462124301660230e-02 0.0000000000000000e+00 0.0000000000000000e+00  9.0633631284860027e-03 0.0000000000000000e+00 0.0000000000000000e+00  4.9093216945971189e-03 0.0000000000000000e+00 0.0000000000000000e+00  0.0000000000000000e+00 0.0000000000000000e+00 0.0000000000000000e+00  0.0000000000000000e+00 0.0000000000000000e+00 0.0000000000000000e+00  0.0000000000000000e+00 0.0000000000000000e+00 0.0000000000000000e+00  0.0000000000000000e+00 0.0000000000000000e+00 0.0000000000000000e+00  0.0000000000000000e+00 0.0000000000000000e+00 0.0000000000000000e+00  0.0000000000000000e+00 0.0000000000000000e+00 0.0000000000000000e+00  0.0000000000000000e+00 0.0000000000000000e+00 0.0000000000000000e+00  0.0000000000000000e+00 0.0000000000000000e+00 0.0000000000000000e+00  0.0000000000000000e+00 0.0000000000000000e+00 0.0000000000000000e+00  0.0000000000000000e+00 0.0000000000000000e+00 0.0000000000000000e+00  0.0000000000000000e+00 0.0000000000000000e+00 0.0000000000000000e+00  0.0000000000000000e+00 0.0000000000000000e+00 0.0000000000000000e+00  0.0000000000000000e+00 0.0000000000000000e+00 0.0000000000000000e+00  0.0000000000000000e+00 0.0000000000000000e+00 0.0000000000000000e+00  0.0000000000000000e+00 0.0000000000000000e+00 0.0000000000000000e+00  0.0000000000000000e+00 0.0000000000000000e+00 0.0000000000000000e+00  0.0000000000000000e+00 0.0000000000000000e+00 0.0000000000000000e+00  0.0000000000000000e+00 0.0000000000000000e+00 0.0000000000000000e+00  0.0000000000000000e+00 0.0000000000000000e+00 0.0000000000000000e+00  0.0000000000000000e+00 0.0000000000000000e+00 0.0000000000000000e+00  0.0000000000000000e+00 0.0000000000000000e+00 0.0000000000000000e+00  0.0000000000000000e+00 0.0000000000000000e+00 0.0000000000000000e+00  0.0000000000000000e+00 0.0000000000000000e+00 0.0000000000000000e+00  0.0000000000000000e+00 0.0000000000000000e+00 0.0000000000000000e+00  0.0000000000000000e+00 0.0000000000000000e+00 0.0000000000000000e+00  0.0000000000000000e+00 0.0000000000000000e+00 0.0000000000000000e+00  0.0000000000000000e+00 0.0000000000000000e+00 0.0000000000000000e+00  0.0000000000000000e+00 0.0000000000000000e+00 0.0000000000000000e+00  0.0000000000000000e+00 0.0000000000000000e+00 0.0000000000000000e+00  0.0000000000000000e+00 0.0000000000000000e+00 0.0000000000000000e+00  0.0000000000000000e+00 0.0000000000000000e+00 0.0000000000000000e+00  0.0000000000000000e+00 0.0000000000000000e+00 0.0000000000000000e+00  0.0000000000000000e+00 0.0000000000000000e+00 0.0000000000000000e+00  0.0000000000000000e+00 0.0000000000000000e+00 0.0000000000000000e+00  0.0000000000000000e+00 0.0000000000000000e+00 0.0000000000000000e+00  0.0000000000000000e+00 0.0000000000000000e+00 0.0000000000000000e+00  0.0000000000000000e+00 0.0000000000000000e+00 0.0000000000000000e+00  0.0000000000000000e+00 0.0000000000000000e+00 0.0000000000000000e+00  1.2465376145261109e-02 7.2714435340747767e-05 0.0000000000000000e+00  1.2983722280446806e-02 8.1139089233783076e-06 0.0000000000000000e+00  1.2446456871789371e-02 -4.8065760165274689e-05 0.0000000000000000e+00  0.0000000000000000e+00 0.0000000000000000e+00 0.0000000000000000e+00  0.0000000000000000e+00 0.0000000000000000e+00 0.0000000000000000e+00  0.0000000000000000e+00 0.0000000000000000e+00 0.0000000000000000e+00  0.0000000000000000e+00 0.0000000000000000e+00 0.0000000000000000e+00  0.0000000000000000e+00 0.0000000000000000e+00 0.0000000000000000e+00  0.0000000000000000e+00 0.0000000000000000e+00 0.0000000000000000e+00  0.0000000000000000e+00 0.0000000000000000e+00 0.0000000000000000e+00  0.0000000000000000e+00 0.0000000000000000e+00 0.0000000000000000e+00  0.0000000000000000e+00 0.0000000000000000e+00 0.0000000000000000e+00  0.0000000000000000e+00 0.0000000000000000e+00 0.0000000000000000e+00  0.0000000000000000e+00 0.0000000000000000e+00 0.0000000000000000e+00  0.0000000000000000e+00 0.0000000000000000e+00 0.0000000000000000e+00  0.0000000000000000e+00 0.0000000000000000e+00 0.0000000000000000e+00  0.0000000000000000e+00 0.0000000000000000e+00 0.0000000000000000e+00  0.0000000000000000e+00 0.0000000000000000e+00 0.0000000000000000e+00  0.0000000000000000e+00 0.0000000000000000e+00 0.0000000000000000e+00  0.0000000000000000e+00 0.0000000000000000e+00 0.0000000000000000e+00  0.0000000000000000e+00 0.0000000000000000e+00 0.0000000000000000e+00  0.0000000000000000e+00 0.0000000000000000e+00 0.0000000000000000e+00  0.0000000000000000e+00 0.0000000000000000e+00 0.0000000000000000e+00  0.0000000000000000e+00 0.0000000000000000e+00 0.0000000000000000e+00  0.0000000000000000e+00 0.0000000000000000e+00 0.0000000000000000e+00  0.0000000000000000e+00 0.0000000000000000e+00 0.0000000000000000e+00  0.0000000000000000e+00 0.0000000000000000e+00 0.0000000000000000e+00  0.0000000000000000e+00 0.0000000000000000e+00 0.0000000000000000e+00  0.0000000000000000e+00 0.0000000000000000e+00 0.0000000000000000e+00  0.0000000000000000e+00 0.0000000000000000e+00 0.0000000000000000e+00  0.0000000000000000e+00 0.0000000000000000e+00 0.0000000000000000e+00  0.0000000000000000e+00 0.0000000000000000e+00 0.0000000000000000e+00  0.0000000000000000e+00 0.0000000000000000e+00 0.0000000000000000e+00  0.0000000000000000e+00 0.0000000000000000e+00 0.0000000000000000e+00  0.0000000000000000e+00 0.0000000000000000e+00 0.0000000000000000e+00  0.0000000000000000e+00 0.0000000000000000e+00 0.0000000000000000e+00  0.0000000000000000e+00 0.0000000000000000e+00 0.0000000000000000e+00  0.0000000000000000e+00 0.0000000000000000e+00 0.0000000000000000e+00  0.0000000000000000e+00 0.0000000000000000e+00 0.0000000000000000e+00  0.0000000000000000e+00 0.0000000000000000e+00 0.0000000000000000e+00  0.0000000000000000e+00 0.0000000000000000e+00 0.0000000000000000e+00  0.0000000000000000e+00 0.0000000000000000e+00 0.0000000000000000e+00  0.0000000000000000e+00 0.0000000000000000e+00 0.0000000000000000e+00  0.0000000000000000e+00 0.0000000000000000e+00 0.0000000000000000e+00  0.0000000000000000e+00 0.0000000000000000e+00 0.0000000000000000e+00  0.0000000000000000e+00 0.0000000000000000e+00 0.0000000000000000e+00  0.0000000000000000e+00 0.0000000000000000e+00 0.0000000000000000e+00  0.0000000000000000e+00 0.0000000000000000e+00 0.0000000000000000e+00  0.0000000000000000e+00 0.0000000000000000e+00 0.0000000000000000e+00  0.0000000000000000e+00 0.0000000000000000e+00 0.0000000000000000e+00  0.0000000000000000e+00 0.0000000000000000e+00 0.0000000000000000e+00  0.0000000000000000e+00 0.0000000000000000e+00 0.0000000000000000e+00  0.0000000000000000e+00 0.0000000000000000e+00 0.0000000000000000e+00  0.0000000000000000e+00 0.0000000000000000e+00 0.0000000000000000e+00  0.0000000000000000e+00 0.0000000000000000e+00 0.0000000000000000e+00  0.0000000000000000e+00 0.0000000000000000e+00 0.0000000000000000e+00  0.0000000000000000e+00 0.0000000000000000e+00 0.0000000000000000e+00  0.0000000000000000e+00 0.0000000000000000e+00 0.0000000000000000e+00  0.0000000000000000e+00 0.0000000000000000e+00 0.0000000000000000e+00  0.0000000000000000e+00 0.0000000000000000e+00 0.0000000000000000e+00  0.0000000000000000e+00 0.0000000000000000e+00 0.0000000000000000e+00  0.0000000000000000e+00 0.0000000000000000e+00 0.0000000000000000e+00  0.0000000000000000e+00 0.0000000000000000e+00 0.0000000000000000e+00  0.0000000000000000e+00 0.0000000000000000e+00 0.0000000000000000e+00  0.0000000000000000e+00 0.0000000000000000e+00 0.0000000000000000e+00  0.0000000000000000e+00 0.0000000000000000e+00 0.0000000000000000e+00  0.0000000000000000e+00 0.0000000000000000e+00 0.0000000000000000e+00  0.0000000000000000e+00 0.0000000000000000e+00 0.0000000000000000e+00  0.0000000000000000e+00 0.0000000000000000e+00 0.0000000000000000e+00  0.0000000000000000e+00 0.0000000000000000e+00 0.0000000000000000e+00  0.0000000000000000e+00 0.0000000000000000e+00 0.0000000000000000e+00  0.0000000000000000e+00 0.0000000000000000e+00 0.0000000000000000e+00  0.0000000000000000e+00 0.0000000000000000e+00 0.0000000000000000e+00  0.0000000000000000e+00 0.0000000000000000e+00 0.0000000000000000e+00  0.0000000000000000e+00 0.0000000000000000e+00 0.0000000000000000e+00  0.0000000000000000e+00 0.0000000000000000e+00 0.0000000000000000e+00  0.0000000000000000e+00 0.0000000000000000e+00 0.0000000000000000e+00  0.0000000000000000e+00 0.0000000000000000e+00 0.0000000000000000e+00  0.0000000000000000e+00 0.0000000000000000e+00 0.0000000000000000e+00  0.0000000000000000e+00 0.0000000000000000e+00 0.0000000000000000e+00  0.0000000000000000e+00 0.0000000000000000e+00 0.0000000000000000e+00  4.6300083606531971e-07 -4.5423023703309184e-06 0.0000000000000000e+00  3.8867299678296334e-07 -5.2202076419215207e-06 0.0000000000000000e+00  7.1813317553306464e-07 -5.4919093009940907e-06 0.0000000000000000e+00  1.1255274889413575e-06 -5.8465978273438131e-06 0.0000000000000000e+00  1.4934965662848699e-06 -6.3036840801787538e-06 0.0000000000000000e+00  1.8128256056977769e-06 -6.8388314697906910e-06 0.0000000000000000e+00  2.0817892160566292e-06 -7.4368284105033104e-06 0.0000000000000000e+00  2.3021006477790449e-06 -8.0881353478090504e-06 0.0000000000000000e+00  2.4724479887867558e-06 -8.7835364503289526e-06 0.0000000000000000e+00  2.5932314883991006e-06 -9.5136341976104466e-06 0.0000000000000000e+00  2.6646906418866850e-06 -1.0270182325142776e-05 0.0000000000000000e+00  2.6871993222290544e-06 -1.1044867157911835e-05 0.0000000000000000e+00  2.6609968687381974e-06 -1.1830479973683301e-05 0.0000000000000000e+00  2.5865575649155610e-06 -1.2620096238121812e-05 0.0000000000000000e+00  2.4652856280060799e-06 -1.3407434341118528e-05 0.0000000000000000e+00  2.2971398366911438e-06 -1.4187601401378157e-05 0.0000000000000000e+00  2.0831900335813585e-06 -1.4954953913051528e-05 0.0000000000000000e+00  1.8239695120156449e-06 -1.5706092423912441e-05 0.0000000000000000e+00  1.5205468224144944e-06 -1.6437161516831006e-05 0.0000000000000000e+00  1.1733950750584041e-06 -1.7145783719708209e-05 0.0000000000000000e+00  7.8337105524423308e-07 -1.7829632342063363e-05 0.0000000000000000e+00  3.5075673238215745e-07 -1.8487335904179534e-05 0.0000000000000000e+00  -1.2368401587540049e-07 -1.9118310598829231e-05 0.0000000000000000e+00  -6.3963382404158039e-07 -1.9721435741591335e-05 0.0000000000000000e+00  -1.1968997628340701e-06 -2.0297243757288374e-05 0.0000000000000000e+00  -1.7952721009937626e-06 -2.0845202157348995e-05 0.0000000000000000e+00  -2.4346704461288239e-06 -2.1366527518793067e-05 0.0000000000000000e+00  -3.1147460740523598e-06 -2.1861233890947469e-05 0.0000000000000000e+00  -3.8359513921887842e-06 -2.2330497145300365e-05 0.0000000000000000e+00  -4.5978497321984969e-06 -2.2775602904741300e-05 0.0000000000000000e+00  -5.4007791149594032e-06 -2.3197219865553706e-05 0.0000000000000000e+00  -6.2448509319193248e-06 -2.3597376791339365e-05 0.0000000000000000e+00  -7.1297582381805301e-06 -2.3977154013242166e-05 0.0000000000000000e+00  -8.0562971794847175e-06 -2.4338133733732628e-05 0.0000000000000000e+00  -9.0247590781873988e-06 -2.4682857518485065e-05 0.0000000000000000e+00  -1.0034941229445186e-05 -2.5013100981731612e-05 0.0000000000000000e+00  -1.1087427435158803e-05 -2.5330673561680996e-05 0.0000000000000000e+00  -1.2182694993720202e-05 -2.5637772194107711e-05 0.0000000000000000e+00  -1.3321582667172642e-05 -2.5935930534269012e-05 0.0000000000000000e+00  -1.4504938745528996e-05 -2.6227773455423316e-05 0.0000000000000000e+00  -1.5733252951620740e-05 -2.6514533892126232e-05 0.0000000000000000e+00  -1.7008148957201263e-05 -2.6797850618272248e-05 0.0000000000000000e+00  -1.8330848159680620e-05 -2.7078867444102619e-05 0.0000000000000000e+00  -1.9702710040600736e-05 -2.7356342354781264e-05 0.0000000000000000e+00  -2.1118469166629165e-05 -2.7627635231540541e-05 0.0000000000000000e+00  -2.2540488813602931e-05 -2.7917182609579107e-05 0.0000000000000000e+00  -2.4400387128925013e-05 -2.7131140508429464e-05 0.0000000000000000e+00  -2.4860517879908607e-05 -2.4465823096168321e-05 0.0000000000000000e+00  -2.3463340748990746e-05 -2.2981662073753371e-05 0.0000000000000000e+00  -2.2044241625600924e-05 -2.2581126565853409e-05 0.0000000000000000e+00  -2.0627107421809906e-05 -2.2162202894092541e-05 0.0000000000000000e+00  -1.9255197360883683e-05 -2.1751542050005639e-05 0.0000000000000000e+00  -1.7935264256080888e-05 -2.1344462204967585e-05 0.0000000000000000e+00  -1.6666072518971293e-05 -2.0937861511929774e-05 0.0000000000000000e+00  -1.5447328141581693e-05 -2.0529638937625026e-05 0.0000000000000000e+00  -1.4278214120819321e-05 -2.0118504895089444e-05 0.0000000000000000e+00  -1.3158253012434741e-05 -1.9701830741251418e-05 0.0000000000000000e+00  -1.2087036311367314e-05 -1.9277952773613937e-05 0.0000000000000000e+00  -1.1064210472075308e-05 -1.8844398706850187e-05 0.0000000000000000e+00  -1.0089201361036807e-05 -1.8399526512977319e-05 0.0000000000000000e+00  -9.1614501426108480e-06 -1.7940855360247493e-05 0.0000000000000000e+00  -8.2803356135667282e-06 -1.7466643214625630e-05 0.0000000000000000e+00  -7.4453932197276606e-06 -1.6974502668139931e-05 0.0000000000000000e+00  -6.6560050438939629e-06 -1.6462953728927701e-05 0.0000000000000000e+00  -5.9117904872133640e-06 -1.5930005538041286e-05 0.0000000000000000e+00  -5.2121239847165139e-06 -1.5374691305839490e-05 0.0000000000000000e+00  -4.5564736121542548e-06 -1.4795440597383962e-05 0.0000000000000000e+00  -3.9441525634431476e-06 -1.4191465226900893e-05 0.0000000000000000e+00  -3.3747409017665374e-06 -1.3561366867152140e-05 0.0000000000000000e+00  -2.8476535025074125e-06 -1.2904806977285702e-05 0.0000000000000000e+00  -2.3624988295232348e-06 -1.2220917666273968e-05 0.0000000000000000e+00  -1.9185369523576662e-06 -1.1510081292452108e-05 0.0000000000000000e+00  -1.5150857644894202e-06 -1.0771903405206611e-05 0.0000000000000000e+00  -1.1514104467965279e-06 -1.0007291624861147e-05 0.0000000000000000e+00  -8.2658929570173183e-07 -9.2166945589128433e-06 0.0000000000000000e+00  -5.3988540222406615e-07 -8.4019410475217726e-06 0.0000000000000000e+00  -2.9026534439682833e-07 -7.5647006291504985e-06 0.0000000000000000e+00  -7.6861158842443650e-08 -6.7081355322129626e-06 0.0000000000000000e+00  1.0163367490865444e-07 -5.8353371199505373e-06 0.0000000000000000e+00  2.4622421449668940e-07 -4.9506756427897170e-06 0.0000000000000000e+00  3.5838662150469319e-07 -4.0589417881606277e-06 0.0000000000000000e+00  4.3845621987604760e-07 -3.1657983996564286e-06 0.0000000000000000e+00  4.8810541449124754e-07 -2.2770174319706360e-06 0.0000000000000000e+00  5.0854493516568561e-07 -1.4002977462376616e-06 0.0000000000000000e+00  5.0076931848059899e-07 -5.4285280727009248e-07 0.0000000000000000e+00  4.6623734799054652e-07 2.8665726282711430e-07 0.0000000000000000e+00  4.0613664501092838e-07 1.0798669977459129e-06 0.0000000000000000e+00  3.2241701372617618e-07 1.8262779348495914e-06 0.0000000000000000e+00  2.1538163615948100e-07 2.5163825531135561e-06 0.0000000000000000e+00  8.7161601527851866e-08 3.1398223800333149e-06 0.0000000000000000e+00  -5.9788907072769527e-08 3.6889419664762654e-06 0.0000000000000000e+00  -2.1461100430044661e-07 4.1665187544514820e-06 0.0000000000000000e+00  -2.5858822024110945e-07 4.5270992536128097e-06 0.0000000000000000e+00  1.3220509983807645e-07 4.2596893165357753e-06 0.0000000000000000e+00  -4.6109353947648397e-07 -2.1289345942907454e-07 0.0000000000000000e+00  -2.2384359639771286e-05 -2.5307026834463586e-05 0.0000000000000000e+00  -1.9625888801680013e-05 -2.4670756938125863e-05 0.0000000000000000e+00  -1.5575421859428737e-05 -2.3574383692010081e-05 0.0000000000000000e+00  3.5975525494434679e-07 -8.0216314830043768e-07 0.0000000000000000e+00  -1.3271394246926213e-05 -2.2853634404148703e-05 0.0000000000000000e+00  8.4722042627838669e-07 -1.7111199282449239e-06 0.0000000000000000e+00  -1.1104436017701096e-05 -2.2124513661120373e-05 0.0000000000000000e+00  1.3709750684210316e-06 -3.8161964629585661e-06 0.0000000000000000e+00  1.5331573873876020e-06 -5.4142913584920670e-06 0.0000000000000000e+00  -9.1189211648429259e-06 -2.1351257634285416e-05 0.0000000000000000e+00  1.2209587480977289e-06 -9.5802557243103405e-06 0.0000000000000000e+00  -5.6776199339957006e-06 -1.9607194289675765e-05 0.0000000000000000e+00  1.5227234151964220e-06 -6.9478733154519690e-06 0.0000000000000000e+00  8.4944754494409928e-07 -1.1245538275015345e-05 0.0000000000000000e+00  -4.2158143759895112e-06 -1.8608031745588690e-05 0.0000000000000000e+00  -7.3110595326754668e-06 -2.0517344201972287e-05 0.0000000000000000e+00  2.9610654796076125e-07 -1.2816442774443209e-05 0.0000000000000000e+00  -2.9232011495904159e-06 -1.7509894173885066e-05 0.0000000000000000e+00  -3.9938000523470429e-07 -1.4183949681526698e-05 0.0000000000000000e+00  -1.8085248535975353e-06 -1.6378829172860538e-05 0.0000000000000000e+00  -1.0249568309672234e-06 -1.5273508544179103e-05 0.0000000000000000e+00  1.4429733502665315e-06 -8.2735844441738651e-06 0.0000000000000000e+00  -1.7629174251703903e-05 -2.4097267296498862e-05 0.0000000000000000e+00  1.1524193240401165e-06 -2.7147059385258742e-06 0.0000000000000000e+00  -2.1117628130389808e-05 -2.4090781952701000e-05 0.0000000000000000e+00  -1.0141534206176731e-07 1.3347611641992684e-06 0.0000000000000000e+00  -1.2305538154842364e-05 -2.1621412683142608e-05 0.0000000000000000e+00  -1.4559278014021303e-05 -2.2369260757186092e-05 0.0000000000000000e+00  8.6491348673387165e-07 -2.9540450136224503e-06 0.0000000000000000e+00  1.7741294285151440e-06 -5.9281811139871100e-06 0.0000000000000000e+00  -6.6481879976932496e-06 -1.9100459708898745e-05 0.0000000000000000e+00  -1.0238480970407628e-05 -2.0838400036354204e-05 0.0000000000000000e+00  1.3849428090693926e-06 -1.1637058460321847e-05 0.0000000000000000e+00  -5.1178403234188207e-06 -1.8114768620203200e-05 0.0000000000000000e+00  1.8710923699060833e-06 -7.5194832694226474e-06 0.0000000000000000e+00  8.9921687458201901e-07 -1.3216936426729761e-05 0.0000000000000000e+00  -3.7598127130002205e-06 -1.7035165399972278e-05 0.0000000000000000e+00  -8.3539489399915600e-06 -2.0003535235675352e-05 0.0000000000000000e+00  3.1672811703668892e-07 -1.4954424500392160e-05 0.0000000000000000e+00  -2.5711492668210037e-06 -1.5852845713000617e-05 0.0000000000000000e+00  -6.2991993957709901e-07 -1.3928660477456522e-06 0.0000000000000000e+00  -7.0565668464028191e-07 1.2284176065121910e-06 0.0000000000000000e+00  -2.3480398042645830e-05 -2.6142306918481991e-05 0.0000000000000000e+0