<?xml version="1.0"?>
<VTKFile type="UnstructuredGrid"  version="0.1"  >
<UnstructuredGrid>
<Piece  NumberOfPoints="718" NumberOfCells="1330">
<Points>
<DataArray  type="Float64"  NumberOfComponents="3"  format="ascii">0.3535460261755617 0.19 0  0.3528922713220932 0.2000185703532356 0  0.3590076176283495 0.196411355804271 0  0.3012679105156187 0.19 0  0.3006558810093873 0.1999966199048318 0  0.3066757059912147 0.1964092924317024 0  0.3473758401723931 0.1961819304478349 0  0.2950977245127906 0.1961819304477774 0  0.3535460261749672 0.21 0  0.3473758401724931 0.2038180695522752 0  0.301267910515333 0.21 0  0.2950977245128307 0.2038180695522663 0  0.3590471196690275 0.2036304442587945 0  0.3067669986803285 0.203627750582736 0  0.2607803159922026 0.2000727136295815 0  0.2677053789419034 0.1964246479135325 0  0.267698176732111 0.2039977513680092 0  0.2751288526855082 0.20000000000002 0  0.2603913042767976 0.1945999920783741 0  0.2639263993299336 0.19 0  0.25 0.2 0  0.2497468076502589 0.2050254481002335 0  0.2550657455369551 0.2034088125358657 0  0.3650630746574081 0.199866017807523 0  0.3722167817676917 0.2029084173136195 0  0.372246743208829 0.1959123236376545 0  0.3274069683451451 0.2000000000000796 0  0.3348752705822316 0.202908417313609 0  0.3347912413592433 0.1959225448935183 0  0.3127789816668748 0.1998657885438805 0  0.3199386661080599 0.202908417313604 0  0.3199680582793816 0.1959123018030061 0  0.2825131256993216 0.2035478995978015 0  0.2825051229162361 0.1959834479681729 0  0.2894621222999649 0.1998691686390484 0  0.3417402379596385 0.1998691686391011 0  0.2713947015670686 0.19 0  0.2788630038040554 0.21 0  0.2863313060411479 0.21 0  0.3162045149895234 0.21 0  0.3236728172265972 0.21 0  0.3311411194636928 0.21 0  0.3386094217007701 0.21 0  0.3460777239384295 0.19 0  0.2937996082784807 0.19 0  0.2937996082782405 0.21 0  0.3460777239378666 0.21 0  0.2601812407614425 0.2056861609747042 0  0.3087362127527544 0.19 0  0.361014328412667 0.19 0  0.2497468076502614 0.1949745518997913 0  0.2548908499171161 0.1966940311614271 0  0.2751288526855081 0.205697194228819 0  0.3647484795312433 0.1943028057712484 0  0.3274069683455914 0.1943028057712305 0  0.3124703638713219 0.1943028057712193 0  0.2751288526856362 0.1943028057711959 0  0.3610143284120516 0.21 0  0.3087362127524279 0.21 0  0.2895549462647731 0.1944069323160756 0  0.341834128962283 0.1943988119061815 0  0.3684826306491596 0.21 0  0.3650260178642469 0.2054197153269502 0  0.3274069683451451 0.2056971942288527 0  0.312746837849954 0.2054193256016435 0  0.2564580970927985 0.19 0  0.2525889069107169 0.1926036384190297 0  0.341845332858566 0.2054104280253135 0  0.2897864851748124 0.2055930218738881 0  0.25645809709277 0.21 0  0.25261805618068 0.2074135021971937 0  0.2639263993298655 0.21 0  0.271394701566961 0.21 0  0.3759509328869369 0.19 0  0.3684826306498175 0.19 0  0.3386094217012945 0.19 0  0.3311411194641595 0.19 0  0.3236728172270245 0.19 0  0.3162045149898895 0.19 0  0.2863313060413428 0.19 0  0.2788630038042048 0.19 0  0.2489897948556636 0.19 0  0.2489897948556636 0.21 0  0.3411792619035872 0.1007807988883264 0  0.3223547013037051 0.0811661342953541 0  0.3444094697767079 0.06991525711561337 0  0.3605639237643 0.2793006923612668 0  0.3754967205959606 0.2925860795314694 0  0.3727949441736886 0.2687069143756727 0  0.1123698019379044 0.2058991360802581 0  0.1106531987626008 0.1894643335925837 0  0.09638298985168356 0.2000713960717276 0  0.0534241021414831 0.2075428856341382 0  0.07538638723190919 0.1915913195394167 0  0.06726459509928774 0.2147740778951952 0  0.3265012756581966 0.2702065959162994 0  0.3425185051143286 0.277559411241074 0  0.3236350239119228 0.2946877384927431 0  0.3871536388992142 0.2768042805511501 0  0.05117116986370451 0.1453484941029572 0  0.028576868323113 0.1257840022252348 0  0.02526469030969892 0.1581631046774197 0  0.2731077660562961 0.05508844879223635 0  0.2987388406956894 0.03154986994134981 0  0.2542757755299287 0.02753888901404131 0  0.3578728954606922 0.1299960675997348 0  0.3428550702839791 0.1207298864326248 0  0.3606088315611094 0.1037277084934985 0  0.3655464778159961 0.1466879707354811 0  0.3738358170836363 0.1565872175614931 0  0.383930166391577 0.149077512173999 0  0.1643783325218296 0.1320455275536215 0  0.1492552100538899 0.1320415135830948 0  0.1603037058708973 0.1432581839427922 0  0.07781603907681035 0.1514291067465787 0  0.06748599119092742 0.1295390004813558 0  0.2286913662688903 0.3133959500822503 0  0.2457579136251883 0.3036253283210157 0  0.2370120387482942 0.3305347050441392 0  0.1133943915886014 0.3302098901172357 0  0.1085927601152855 0.3576703429582752 0  0.1291050229147523 0.3369598757086243 0  0.1876570762350594 0.2701429686523801 0  0.1759534499456636 0.268744809012302 0  0.1862475166430347 0.2806184243256064 0  0.2767628315692916 0.1210799475693868 0  0.260361447596534 0.1229759280558447 0  0.2739511166480145 0.1012903426171407 0  0.228090483983057 0.1360461642521307 0  0.2156274396954392 0.1428329882811742 0  0.2231096629876289 0.1473860403476538 0  0.3642910294882131 0.08514217524358583 0  0.04799687037553593 0.1900185470502504 0  0.1704873609912336 0.2583583661241701 0  0.1801707401936674 0.2578452677740249 0  0 0.3514285714286952 0  0.03215830272795324 0.3311110896359255 0  0.02400550655420258 0.3538155845945724 0  0.09145562669711395 0.175668370620234 0  0.09635163646555502 0.1596076048115481 0  0.07646146193815946 0.1687797331838 0  0 0.05857142857161107 0  0 0.02928571428580012 0  0.02797905238142366 0.04239836249189064 0  0.3009672322348927 0.299853464475565 0  0.2860802002973516 0.3223921533999551 0  0.2799076752212695 0.2955946972235118 0  0.1521457199348437 0.2144902684393899 0  0.1547844879126531 0.221343792228163 0  0.1460074103989341 0.2155962236814484 0  0.06224717571675014 0.16049953533406 0  0.2004289920815778 0.2885787263743592 0  0.2083656065158181 0.2774025780460683 0  0.2175887234644184 0.2860477873464338 0  0 0.1464285714289574 0  0.3656958473839882 0.2539056765427533 0  0.3826544750917113 0.2574975795502557 0  0.3742999258550256 0.2455889756585279 0  0.1340109150974826 0.1326286508362426 0  0.1230381620938855 0.1450531231009962 0  0.1371388187715824 0.1487519394947238 0  0.09921229729781815 0.216694589313852 0  0.1987596795720009 0.2706417532988148 0  0 0.3221428571430699 0  0.1502170850938848 0.1478553695050668 0  0.1022962111550141 0.273832470550381 0  0.1121786756446853 0.257597694764058 0  0.1185619469878228 0.2730177051871591 0  0.09898678642452967 0.1862327908870533 0  0.1843109002236991 0.1108412192449581 0  0.1663792634974669 0.1129031590983526 0  0.1730791557496665 0.09449610930120438 0  0.05939492550527375 0.3149957962361826 0  0.03411173555592004 0.3013214948275056 0  0.1949745518995776 0.2497468076502398 0  0.202315810036185 0.2499463414463592 0  0.1988936168129591 0.2591743361304991 0  0.1497148406801674 0.1059683048239758 0  0.1319376419904144 0.1078314072630599 0  0.1422873301607691 0.09099989767432708 0  0.3684404229859068 0.05879875930223131 0  0.3866266297147894 0.03466711669742863 0  0.3886771468199661 0.07134613381357163 0  0.1503920612246686 0.252658552798053 0  0.1407371787724462 0.2442700623456801 0  0.1431093770171943 0.2599228455937608 0  0.09191660917863548 0.3399083220637153 0  0.1291780217515827 0.2400382025520897 0  0.1325512871714925 0.2548933203634119 0  0.05400790163887537 0.1101452894911868 0  0.03212895351398194 0.09444182905744057 0  0.3119706532029335 0.280741853274607 0  0.1613699074131162 0.2874965309748423 0  0.1497954449456231 0.3068853213507886 0  0.1704962809759384 0.2989815459796012 0  0.1292063859387973 0.160179270973018 0  0.29813678539982 0.236276478175315 0  0.3103932646053297 0.2435733951751842 0  0.2950877208402625 0.2480324151406079 0  0.2571393426600714 0.09909224058133874 0  0.2802365149396702 0.2293267412254819 0  0.2888197773682229 0.2217624015035644 0  0.2799011483571476 0.2201540359780956 0  0.1273239957535623 0.41 0  0.1550887940203835 0.3759695678273732 0  0.1305531867707806 0.3723894882772687 0  0.2328041563607919 0.2914013345123573 0  0.2145757352600842 0.3012314566270872 0  0.3718691980658081 0.1185113859721947 0  0.06140001986584975 0.41 0  0.08484979611354741 0.3801877867628078 0  0.05922009696123734 0.3774661510110062 0  0.1314207338941352 0.2277905748945162 0  0.1208839583881551 0.2181173442085023 0  0.1226326835593179 0.232510509637589 0  0.2199699516855607 0.2730509421907208 0  0.2088779690661671 0.2650057074514391 0  0.2335552553807713 0.3548019770067952 0  0.216380800632318 0.3798697230577418 0  0.2537725505472335 0.3777585525832137 0  0.09377624077128965 0.41 0  0.09380266644077194 0.2576101652245613 0  0.3141745521466497 0.41 0  0.3098481778850767 0.3708824362367037 0  0.2803555148413351 0.3762695151888899 0  0.3830052789765099 0.2465504596596307 0  0.1712191068054211 0.2792458170307043 0  0.2798983539554935 0.1725715317274126 0  0.2887875715604008 0.1784526411902859 0  0.2798265752054099 0.1801908109055989 0  0.3750556316230105 0.1339831864103567 0  0.1315669208937715 0.2153401624373302 0  0.08319468457824891 0.2132940804249223 0  0.05506284017382649 0.2425906156552861 0  0.03234799839792719 0.2322323714096635 0  0.03317213267821684 0.2576605437337542 0  0.235428184091502 0 0  0.2269089833956681 0.04173965335049001 0  0.2054867233040618 0.02496467843107029 0  0.0655461589766832 0.3354809920423228 0  0.3938502830802056 0.3095497484347601 0  0.3641563190507836 0.3179653487982807 0  0.3934922780344484 0.3350540779420794 0  0.132972307375135 0.2702075053542861 0  0.1310410255455362 0.2846992571580754 0  0.3236197880522565 0.342390365483443 0  0.3436434970543172 0.3743236175823911 0  0.2607466101664424 0.2266930975791233 0  0.271385042995999 0.2220255791858506 0  0.2640363109795177 0.2179944263838653 0  0.1877417105387872 0.1515259415822739 0  0.1807733240461124 0.153844448527136 0  0.1810237202008071 0.1443964565620037 0  0.05202618668915951 0.3533574174069209 0  0.0341778808147269 0.3756898840960821 0  0.3418128
[...]
<PointData  Vectors="u"> 
<DataArray  type="Float64"  Name="u"  NumberOfComponents="3" format="ascii">2.1775905671748586e-08 1.3524816091806073e-07 0.0000000000000000e+00  -1.0451147804238748e-09 1.3316600013737987e-07 0.0000000000000000e+00  7.3516829641212735e-09 1.4749486100528764e-07 0.0000000000000000e+00  1.3000763417691255e-08 3.8166564969702734e-08 0.0000000000000000e+00  -4.1969329126712091e-10 3.6604689827422010e-08 0.0000000000000000e+00  4.7327822323988855e-09 4.5203111659984710e-08 0.0000000000000000e+00  7.4010167523637074e-09 1.2090053222608056e-07 0.0000000000000000e+00  4.2072752614168131e-09 2.9558857095182589e-08 0.0000000000000000e+00  -2.3794277935195905e-08 1.3504579920390655e-07 0.0000000000000000e+00  -9.2658946773339554e-09 1.2082656941914854e-07 0.0000000000000000e+00  -1.3862620996693486e-08 3.8032087159981380e-08 0.0000000000000000e+00  -4.9527737149143133e-09 2.9510553958151052e-08 0.0000000000000000e+00  -9.6134479041508025e-09 1.4751452134103602e-07 0.0000000000000000e+00  -5.7579991436001523e-09 4.5289258043061195e-08 0.0000000000000000e+00  -1.1565743200358642e-10 1.8554757213232771e-09 0.0000000000000000e+00  1.6904497298002708e-09 5.0775312520125961e-09 0.0000000000000000e+00  -2.1969308744350427e-09 5.0636648533894989e-09 0.0000000000000000e+00  -2.0257024275854318e-10 9.7096609901201416e-09 0.0000000000000000e+00  1.5751656561307290e-09 2.0152497823785921e-09 0.0000000000000000e+00  4.0401064099158343e-09 3.9922713363220829e-09 0.0000000000000000e+00  0.0000000000000000e+00 0.0000000000000000e+00 0.0000000000000000e+00  0.0000000000000000e+00 0.0000000000000000e+00 0.0000000000000000e+00  -5.2218575941142487e-10 4.3801265441124196e-10 0.0000000000000000e+00  -8.3591768415992661e-10 1.6198826690942277e-07 0.0000000000000000e+00  -8.5855943630565468e-09 1.7982989119462828e-07 0.0000000000000000e+00  9.0410627819776964e-09 1.8001756605796146e-07 0.0000000000000000e+00  -6.9862857497746414e-10 7.9967108294979818e-08 0.0000000000000000e+00  -6.5511217068506587e-09 9.4485447652009404e-08 0.0000000000000000e+00  7.2995240811610812e-09 9.4424422418127446e-08 0.0000000000000000e+00  -3.3113681531759810e-10 5.4494576355333904e-08 0.0000000000000000e+00  -5.6094871993813903e-09 6.6486118075643571e-08 0.0000000000000000e+00  6.4026262795082161e-09 6.6643946547339774e-08 0.0000000000000000e+00  -3.4568092997384537e-09 1.5946418619806678e-08 0.0000000000000000e+00  3.3523170503590946e-09 1.6010271267243096e-08 0.0000000000000000e+00  -1.8291445681497060e-10 2.2897780137097259e-08 0.0000000000000000e+00  -5.9035496385324997e-10 1.0861705298490048e-07 0.0000000000000000e+00  6.0305439570867820e-09 7.9675983590021114e-09 0.0000000000000000e+00  -8.3925913938715031e-09 1.3331937989253096e-08 0.0000000000000000e+00  -1.0309121280031128e-08 2.0224203664441041e-08 0.0000000000000000e+00  -1.7096216825071731e-08 6.0603991063519674e-08 0.0000000000000000e+00  -1.8587386335040193e-08 7.3564372548258641e-08 0.0000000000000000e+00  -2.0001069228500608e-08 8.7550982451229011e-08 0.0000000000000000e+00  -2.1340622446207299e-08 1.0249596086332768e-07 0.0000000000000000e+00  2.0783103392345699e-08 1.1854513525850387e-07 0.0000000000000000e+00  1.1411341585362270e-08 2.8590675099521713e-08 0.0000000000000000e+00  -1.2135621899290546e-08 2.8460301429244386e-08 0.0000000000000000e+00  -2.2608476771662330e-08 1.1834797212419595e-07 0.0000000000000000e+00  -1.8080626499576249e-09 1.9194205747192224e-09 0.0000000000000000e+00  1.4523644783111150e-08 4.8862881685794552e-08 0.0000000000000000e+00  2.2730544372600692e-08 1.5276261691078172e-07 0.0000000000000000e+00  0.0000000000000000e+00 0.0000000000000000e+00 0.0000000000000000e+00  3.9165789236371351e-10 4.2072443180056696e-10 0.0000000000000000e+00  -4.2686183701326323e-09 9.9432102606556978e-09 0.0000000000000000e+00  1.2671474650245964e-08 1.6142560329124415e-07 0.0000000000000000e+00  9.8709450120680591e-09 8.0200323262438796e-08 0.0000000000000000e+00  8.4192182566911517e-09 5.4246270405429622e-08 0.0000000000000000e+00  3.8622331290874356e-09 1.0003970629115527e-08 0.0000000000000000e+00  -2.4933615743274849e-08 1.5254561910991596e-07 0.0000000000000000e+00  -1.5526338236001995e-08 4.8718230049367747e-08 0.0000000000000000e+00  5.6740149781734183e-09 2.3257808048221573e-08 0.0000000000000000e+00  1.0886720265450822e-08 1.0902969928289802e-07 0.0000000000000000e+00  -2.5996429197779779e-08 1.7078413909847592e-07 0.0000000000000000e+00  -1.4332771513911295e-08 1.6197087379193264e-07 0.0000000000000000e+00  -1.1267076623552890e-08 8.0105893894021926e-08 0.0000000000000000e+00  -9.0930435121042081e-09 5.4585089150613014e-08 0.0000000000000000e+00  1.9928293746210796e-09 1.5506907461760677e-09 0.0000000000000000e+00  5.5795813642415828e-10 4.7038390549106777e-10 0.0000000000000000e+00  -1.2216461186701574e-08 1.0893992540452116e-07 0.0000000000000000e+00  -6.3538240825117305e-09 2.3445863143510899e-08 0.0000000000000000e+00  -2.1054130027292582e-09 1.4457635326093987e-09 0.0000000000000000e+00  -6.2191966192232855e-10 4.2648391071254228e-10 0.0000000000000000e+00  -4.2759297275772401e-09 3.8802042604085894e-09 0.0000000000000000e+00  -6.3831347937609670e-09 7.8545572785776196e-09 0.0000000000000000e+00  2.4392739602026479e-08 1.8995640287835666e-07 0.0000000000000000e+00  2.3596406786381056e-08 1.7101392660654488e-07 0.0000000000000000e+00  1.9696183512562862e-08 1.0268095467591326e-07 0.0000000000000000e+00  1.8528247344593621e-08 8.7722882098274291e-08 0.0000000000000000e+00  1.7278954027238714e-08 7.3726011222142379e-08 0.0000000000000000e+00  1.5945060588781642e-08 6.0752584185262769e-08 0.0000000000000000e+00  9.7157033710700270e-09 2.0338473353616977e-08 0.0000000000000000e+00  7.9226000459760458e-09 1.3439938071374106e-08 0.0000000000000000e+00  0.0000000000000000e+00 0.0000000000000000e+00 0.0000000000000000e+00  0.0000000000000000e+00 0.0000000000000000e+00 0.0000000000000000e+00  3.3257190988589275e-01 2.9220630408196460e-02 0.0000000000000000e+00  3.5675673883831310e-01 2.1435415540589524e-02 0.0000000000000000e+00  3.4010954763516493e-01 2.0486488273839431e-02 0.0000000000000000e+00  2.6523129030313197e-01 -2.8247335147588513e-02 0.0000000000000000e+00  3.1297830129704846e-01 -2.7372234353432435e-02 0.0000000000000000e+00  2.2171064092385584e-01 -2.5085267777391368e-02 0.0000000000000000e+00  1.8502615554043314e-01 2.0673723668555070e-02 0.0000000000000000e+00  1.9198199683506439e-01 -3.0737150889361534e-02 0.0000000000000000e+00  2.2557396231329982e-01 1.6818149065057342e-03 0.0000000000000000e+00  2.8177713409043309e-01 6.3148844586686055e-03 0.0000000000000000e+00  2.6014230583860432e-01 -9.1704611586331253e-03 0.0000000000000000e+00  2.7063620596559879e-01 1.6020913880487795e-02 0.0000000000000000e+00  2.1654892962706274e-01 -2.8255000057111207e-02 0.0000000000000000e+00  2.5594762675220722e-01 -2.8999678046648422e-02 0.0000000000000000e+00  3.2763854145751820e-01 -2.6169632374893576e-02 0.0000000000000000e+00  2.5908051786025721e-01 -2.5531137491263990e-02 0.0000000000000000e+00  2.6812963429307357e-01 -2.8281419842743315e-02 0.0000000000000000e+00  2.5470697524631064e-01 -1.6183777867864724e-02 0.0000000000000000e+00  2.8207619974785458e-01 -1.0762665028196228e-02 0.0000000000000000e+00  3.2037316592915238e-01 2.6340019317491622e-03 0.0000000000000000e+00  2.2581496383993546e-01 6.2223050772783998e-03 0.0000000000000000e+00  2.0794540281820564e-01 2.4632906981671582e-04 0.0000000000000000e+00  2.2806129384292223e-01 2.8256443378943442e-02 0.0000000000000000e+00  2.6628454719730155e-01 3.1140686054229497e-02 0.0000000000000000e+00  3.2211096800054950e-01 2.9318717085297936e-02 0.0000000000000000e+00  1.5628377475996821e-01 2.0342376459807372e-02 0.0000000000000000e+00  1.1915860719552256e-01 1.3904896627436639e-02 0.0000000000000000e+00  1.5582718106254481e-01 1.7308861355132339e-02 0.0000000000000000e+00  3.3365886710560944e-01 -1.7430854213098110e-01 0.0000000000000000e+00  3.0387906793815500e-01 -1.6967812816019112e-01 0.0000000000000000e+00  2.8863480909101358e-01 -1.9057621335254224e-01 0.0000000000000000e+00  2.6021617567009186e-01 -4.8287139483646727e-02 0.0000000000000000e+00  2.5589585215645444e-01 -4.3943497620947930e-02 0.0000000000000000e+00  3.8916671889082682e-01 4.0578241875965260e-02 0.0000000000000000e+00  3.9004964509493412e-01 1.9899016096864407e-02 0.0000000000000000e+00  3.6162151323396308e-01 2.6805626662128934e-02 0.0000000000000000e+00  2.3287697281036868e-01 5.5329010624953073e-02 0.0000000000000000e+00  1.7673174906791744e-01 2.9740495493461302e-02 0.0000000000000000e+00  2.3724248608891302e-01 5.4793260712493845e-02 0.0000000000000000e+00  3.4605149202225960e-01 1.1012454377037079e-01 0.0000000000000000e+00  3.5208716232217957e-01 1.5319298689435784e-01 0.0000000000000000e+00  3.8555336778665289e-01 1.2306507141133091e-01 0.0000000000000000e+00  2.7007288294698650e-01 2.4793355695032913e-02 0.0000000000000000e+00  2.6605399971417365e-01 1.9741555856174913e-02 0.0000000000000000e+00  3.5731278026459445e-01 1.2441086435631724e-02 0.0000000000000000e+00  1.7784120021143990e-01 1.2322850562886043e-02 0.0000000000000000e+00  1.1112994551280193e-01 9.0390745687040364e-03 0.0000000000000000e+00  5.9924117290523042e-02 1.2726814603563329e-02 0.0000000000000000e+00  3.4442838979371071e-01 2.5273596475960298e-02 0.0000000000000000e+00  2.8419859506296941e-01 -5.4910555193850158e-03 0.0000000000000000e+00  2.9532907536818120e-01 1.6233292005749794e-01 0.0000000000000000e+00  2.5252806668056521e-01 1.0580766254627975e-01 0.0000000000000000e+00  1.4693877550994527e-01 0.0000000000000000e+00 0.0000000000000000e+00  1.8949660102939109e-01 1.4420265848959906e-02 0.0000000000000000e+00  1.4389009212901518e-01 7.0249800533077212e-03 0.0000000000000000e+00  2.4108394742956873e-01 -4.0418356158039660e-02 0.0000000000000000e+00  2.4484769587922986e-01 -6.5739097329568133e-02 0.0000000000000000e+00  2.6017700203161986e-01 -3.4810696064772592e-02 0.0000000000000000e+00  1.4693877551058568e-01 0.0000000000000000e+00 0.0000000000000000e+00  7.9591836734909230e-02 0.0000000000000000e+00 0.0000000000000000e+00  1.1405033109661780e-01 -5.7950609821743769e-03 0.0000000000000000e+00  3.5132753281624446e-01 -1.9520119865471010e-02 0.0000000000000000e+00  3.7603575058710714e-01 -4.3097142686901796e-03 0.0000000000000000e+00  3.4991281231755594e-01 -1.3349771433271325e-02 0.0000000000000000e+00  0.0000000000000000e+00 0.0000000000000000e+00 0.0000000000000000e+00  0.0000000000000000e+00 0.0000000000000000e+00 0.0000000000000000e+00  4.2227288149335941e-02 8.2376548733991722e-02 0.0000000000000000e+00  2.6965298750115485e-01 -3.0027268533726524e-02 0.0000000000000000e+00  3.9571664449891003e-01 8.7895996901833737e-02 0.0000000000000000e+00  3.4788526855187818e-01 5.4093230678352443e-02 0.0000000000000000e+00  3.7611853300143222e-01 4.6584342271935086e-02 0.0000000000000000e+00  2.7551020408195548e-01 0.0000000000000000e+00 0.0000000000000000e+00  1.5219047666804117e-01 -1.9621022717496901e-02 0.0000000000000000e+00  1.7627904680661521e-01 -1.9820884810188188e-02 0.0000000000000000e+00  1.2136580216398321e-01 -1.4406063814206043e-02 0.0000000000000000e+00  2.7706688698700721e-01 -1.4325937856517021e-01 0.0000000000000000e+00  2.4977305920242623e-01 -1.2737334773134018e-01 0.0000000000000000e+00  2.4755017104317142e-01 -1.6828969875423927e-01 0.0000000000000000e+00  2.2607584474988746e-01 3.7704230912236292e-02 0.0000000000000000e+00  3.2212980063204250e-01 6.7910672246584813e-02 0.0000000000000000e+00  2.0204081632617479e-01 0.0000000000000000e+00 0.0000000000000000e+00  2.6131825221765043e-01 -1.9636664516295088e-01 0.0000000000000000e+00  2.6759935879850766e-01 8.6683808185936517e-02 0.0000000000000000e+00  2.5941924628569202e-01 1.0626653495856520e-01 0.0000000000000000e+00  2.7535422347212057e-01 1.1246992171061226e-01 0.0000000000000000e+00  2.2292016777546411e-01 -2.8679591787865964e-02 0.0000000000000000e+00  3.7817194627685202e-01 -1.1452839815658505e-01 0.0000000000000000e+00  3.4759843868331924e-01 -1.3527533035345543e-01 0.0000000000000000e+00  3.3802202688596428e-01 -9.7130398585893937e-02 0.0000000000000000e+00  2.2225248496254479e-01 3.2863466015011618e-02 0.0000000000000000e+00  2.3547727531976881e-01 1.9954559623915409e-02 0.0000000000000000e+00  0.0000000000000000e+00 0.0000000000000000e+00 0.0000000000000000e+00  0.0000000000000000e+00 0.0000000000000000e+00 0.0000000000000000e+00  1.7854445083157561e-01 2.5339824706511048e-02 0.0000000000000000e+00  3.0916636720122986e-01 -1.1717621402436477e-01 0.0000000000000000e+00  2.8129712529463019e-01 -1.0549115630300354e-01 0.0000000000000000e+00  2.8169877098776475e-01 -8.8867203162324507e-02 0.0000000000000000e+00  3.0991678587884730e-01 1.7112999763686344e-02 0.0000000000000000e+00  2.1164912721741175e-01 7.5230011498705713e-03 0.0000000000000000e+00  3.2878011914117927e-01 2.0178383360357221e-02 0.0000000000000000e+00  2.7040220624588290e-01 2.0079113021087788e-01 0.0000000000000000e+00  2.2811716643496321e-01 1.8534807012089927e-01 0.0000000000000000e+00  2.8492491469858017e-01 1.7831975909819386e-01 0.0000000000000000e+00  1.9946448500837735e-01 3.7733978484849051e-02 0.0000000000000000e+00  2.1742196909607694e-01 1.4587305850794899e-01 0.0000000000000000e+00  2.6077214435430246e-01 1.5670284724594466e-01 0.0000000000000000e+00  2.3843034446260539e-01 -3.2366092074847717e-02 0.0000000000000000e+00  2.1468805427756130e-01 -1.6801813787438280e-02 0.0000000000000000e+00  2.7137209085129693e-01 -2.8132978777961594e-02 0.0000000000000000e+00  3.4652489408605919e-01 1.3996686016472071e-01 0.0000000000000000e+00  3.0825828637286612e-01 1.0034051368370667e-01 0.0000000000000000e+00  3.5389418116995486e-01 1.1578119311630035e-01 0.0000000000000000e+00  2.1162829732913838e-01 -1.4191610622273307e-01 0.0000000000000000e+00  3.7074966559327412e-02 -1.0221416320059119e-02 0.0000000000000000e+00  7.2876172842837955e-02 -1.5592496664910449e-02 0.0000000000000000e+00  8.3245414167215870e-02 -1.7548267071502630e-02 0.0000000000000000e+00  3.7234626676953519e-01 -1.2838698470273183e-03 0.0000000000000000e+00  8.3955780483938262e-03 -4.2228834489070020e-03 0.0000000000000000e+00  5.9531876674675925e-04 -2.1331643527941887e-03 0.0000000000000000e+00  -3.1608754953429646e-03 -1.1050163928226595e-03 0.0000000000000000e+00  0.0000000000000000e+00 0.0000000000000000e+00 0.0000000000000000e+00  1.6921877936910543e-01 1.8031665174339306e-02 0.0000000000000000e+00  1.5847197233063626e-01 2.0404655812319858e-02 0.0000000000000000e+00  3.7634578647422606e-01 2.6226182835438854e-02 0.0000000000000000e+00  3.9812699402989027e-01 6.1232106094385529e-02 0.0000000000000000e+00  2.7734481351019774e-01 2.8987939540236984e-02 0.0000000000000000e+00  0.0000000000000000e+00 0.0000000000000000e+00 0.0000000000000000e+00  1.0389983555419903e-01 9.9140294782641639e-03 0.0000000000000000e+00  9.9157520865108609e-02 8.0171556138987719e-03 0.0000000000000000e+00  1.6793148126362117e-01 1.3179325306356365e-01 0.0000000000000000e+00  1.7183002743983911e-01 7.3010908031492086e-02 0.0000000000000000e+00  2.0315170103767091e-01 1.1475968961139255e-01 0.0000000000000000e+00  2.8655024305859927e-01 1.6726182838759981e-02 0.0000000000000000e+00  2.2836253265603446e-01 1.8533665888806877e-02 0.0000000000000000e+00  2.9925434948326401e-01 1.6708393974715241e-02 0.0000000000000000e+00  1.9963773792737113e-01 7.7431824760583606e-03 0.0000000000000000e+00  2.2280544355268661e-01 1.4542623653966316e-03 0.0000000000000000e+00  0.0000000000000000e+00 0.0000000000000000e+00 0.0000000000000000e+00  2.6252934947809409e-01 7.4699630045091364e-02 0.0000000000000000e+00  0.0000000000000000e+00 0.0000000000000000e+00 0.0000000000000000e+00  2.5356159052865074e-01 -6.4779980509090647e-03 0.0000000000000000e+00  2.3213004088671341e-01 -2.4529829552737571e-03 0.0000000000000000e+00  1.3020182583798603e-01 -1.4307879391396191e-02 0.0000000000000000e+00  3.6831118270486207e-01 1.5253364822992849e-01 0.0000000000000000e+00  7.1146721498020057e-03 3.9391446164545379e-03 0.0000000000000000e+00  2.3402166006095907e-03 2.3123690805160199e-03 0.0000000000000000e+00  -1.9758231428192619e-03 1.2310742274534209e-03 0.0000000000000000e+00  2.1620141148741176e-01 2.5161170610452362e-02 0.0000000000000000e+00  1.2185410132485368e-01 8.5344630081515438e-02 0.0000000000000000e+00  2.5145004457003101e-01 2.0794561453872408e-02 0.0000000000000000e+00  2.7830492082234209e-01 2.8831104716860748e-02 0.0000000000000000e+00  2.8992170378689919e-01 1.2544662339636659e-02 0.0000000000000000e+00  2.7776244493053970e-01 1.8820354965843906e-02 0.0000000000000000e+00  0.0000000000000000e+00 0.0000000000000000e+00 0.0000000000000000e+00  2.6224504542140675e-01 -1.1739014648708268e-02 0.0000000000000000e+00  1.7810827093545070e-01 -6.8834117301226679e-03 0.0000000000000000e+00  1.9227594541884011e-01 2.8325919699631573e-02 0.0000000000000000e+00  3.4382382875886136e-01 -2.4070405949392644e-02 0.0000000000000000e+00  3.5582964894975988e-01 -2.2906381152489167e-02 0.0000000000000000e+00  3.3788532034533492e-01 -1.8500110034079906e-02 0.0000000000000000e+00  2.8730342743624560e-01 1.4164577976809023e-01 0.0000000000000000e+00  2.9218263720229437e-01 1.1930417985902492e-01 0.0000000000000000e+00  3.4190070681881424e-01 -1.3141511446759862e-02 0.0000000000000000e+00  2.2949349384814319e-01 -7.7107500443382463e-03 0.0000000000000000e+00  -1.5838391453921951e-03 1.5063819298485493e-03 0.0000000000000000e+00  -3.6842037635370709e-03 -4.8945551904147470e-04 0.0000000000000000e+00  -4.7742097295523549e-03 6.8880132440031646e-04 0.0000000000000000e+00  0.0000000000000000e+00 0.0000000000000000e+00 0.0000000000000000e+00  0.0000000000000000e+00 0.0000000000000000e+00 0.0000000000000000e+00  2.1011722435086422e-01 -8.5146061661361544e-02 0.0000000000000000e+00  1.5233114419737706e-01 1.5776214947599398e-02 0.0000000000000000e+00  9.5952462499556496e-02 5.0255710304858122e-03 0.0000000000000000e+00  7.3377718167928763e-02 -1.1924206137734159e-02 0.0000000000000000e+00  1.0563624753126524e-01 -1.5262070467257971e-02 0.0000000000000000e+00  1.2149623692093625e-01 -1.9211276009356362e-02 0.0000000000000000e+00  3.1383970732047339e-01 1.2726445872513784e-01 0.0000000000000000e+00  4.3149977362876381e-02 -8.4566116903762312e-03 0.0000000000000000e+00  3.5845394691636390e-02 -7.9374388985568069e-03 0.0000000000000000e+00  1.2574615211654623e-02 -1.5676984495490455e-03 0.0000000000000000e+00  8.5830339195075683e-02 1.2525203817054137e-01 0.0000000000000000e+00  1.8373077190709125e-03 2.5787556311200298e-03 0.0000000000000000e+00  -2.6318919516276572e-03 3.8146624424412298e-03 0.0000000000000000e+00  4.1317937193557579e-02 1.1186196751743946e-02 0.0000000000000000e+00  7.8233593554754899e-02 1.6845814997110700e-02 0.0000000000000000e+00  8.8105014941564849e-02 1.9221845018229648e-02 0.0000000000000000e+00  6.0377961130426549e-03 -2.1579061218654967e-05 0.0000000000000000e+00  4.8905863931862373e-02 -9.9654456540565917e-03 0.0000000000000000e+00  1.6792882784594506e-02 -2.2423835045861495e-03 0.0000000000000000e+00  1.5874009624850177e-01 1.7277552478701214e-01 0.0000000000000000e+00  1.3694706364957382e-01 1.5457839253697100e-01 0.0000000000000000e+00  2.1266499893287760e-01 1.9802761672151820e-01 0.0000000000000000e+00  3.6678655642994817e-01 1.4171684399241416e-02 0.0000000000000000e+00  2.5862889943922163e-01 -2.6047720446183899e-02 0.0000000000000000e+00  2.3305849736714643e-01 1.6621483142830219e-02 0.0000000000000000e+00  1.5080334907030976e-01 2.1953051062581046e-02 0.0000000000000000e+00  1.0980412192540058e-01 1.8656780405174444e-02 0.0000000000000000e+00  -4.3167510491225490e-04 -9.0419013867177320e-04 0.0000000000000000e+00  -2.7779873280804565e-03 7.0648261286392663e-04 0.0000000000000000e+00  -4.2186146561907093e-03 -5.2684713900306946e-04 0.0000000000000000e+00  3.8569496992054531e-01 -8.71390