<?xml version="1.0"?>
<VTKFile type="UnstructuredGrid"  version="0.1"  >
<UnstructuredGrid>
<Piece  NumberOfPoints="718" NumberOfCells="1330">
<Points>
<DataArray  type="Float64"  NumberOfComponents="3"  format="ascii">0.3535460261755617 0.19 0  0.3528922713220932 0.2000185703532356 0  0.3590076176283495 0.196411355804271 0  0.3012679105156187 0.19 0  0.3006558810093873 0.1999966199048318 0  0.3066757059912147 0.1964092924317024 0  0.3473758401723931 0.1961819304478349 0  0.2950977245127906 0.1961819304477774 0  0.3535460261749672 0.21 0  0.3473758401724931 0.2038180695522752 0  0.301267910515333 0.21 0  0.2950977245128307 0.2038180695522663 0  0.3590471196690275 0.2036304442587945 0  0.3067669986803285 0.203627750582736 0  0.2607803159922026 0.2000727136295815 0  0.2677053789419034 0.1964246479135325 0  0.267698176732111 0.2039977513680092 0  0.2751288526855082 0.20000000000002 0  0.2603913042767976 0.1945999920783741 0  0.2639263993299336 0.19 0  0.25 0.2 0  0.2497468076502589 0.2050254481002335 0  0.2550657455369551 0.2034088125358657 0  0.3650630746574081 0.199866017807523 0  0.3722167817676917 0.2029084173136195 0  0.372246743208829 0.1959123236376545 0  0.3274069683451451 0.2000000000000796 0  0.3348752705822316 0.202908417313609 0  0.3347912413592433 0.1959225448935183 0  0.3127789816668748 0.1998657885438805 0  0.3199386661080599 0.202908417313604 0  0.3199680582793816 0.1959123018030061 0  0.2825131256993216 0.2035478995978015 0  0.2825051229162361 0.1959834479681729 0  0.2894621222999649 0.1998691686390484 0  0.3417402379596385 0.1998691686391011 0  0.2713947015670686 0.19 0  0.2788630038040554 0.21 0  0.2863313060411479 0.21 0  0.3162045149895234 0.21 0  0.3236728172265972 0.21 0  0.3311411194636928 0.21 0  0.3386094217007701 0.21 0  0.3460777239384295 0.19 0  0.2937996082784807 0.19 0  0.2937996082782405 0.21 0  0.3460777239378666 0.21 0  0.2601812407614425 0.2056861609747042 0  0.3087362127527544 0.19 0  0.361014328412667 0.19 0  0.2497468076502614 0.1949745518997913 0  0.2548908499171161 0.1966940311614271 0  0.2751288526855081 0.205697194228819 0  0.3647484795312433 0.1943028057712484 0  0.3274069683455914 0.1943028057712305 0  0.3124703638713219 0.1943028057712193 0  0.2751288526856362 0.1943028057711959 0  0.3610143284120516 0.21 0  0.3087362127524279 0.21 0  0.2895549462647731 0.1944069323160756 0  0.341834128962283 0.1943988119061815 0  0.3684826306491596 0.21 0  0.3650260178642469 0.2054197153269502 0  0.3274069683451451 0.2056971942288527 0  0.312746837849954 0.2054193256016435 0  0.2564580970927985 0.19 0  0.2525889069107169 0.1926036384190297 0  0.341845332858566 0.2054104280253135 0  0.2897864851748124 0.2055930218738881 0  0.25645809709277 0.21 0  0.25261805618068 0.2074135021971937 0  0.2639263993298655 0.21 0  0.271394701566961 0.21 0  0.3759509328869369 0.19 0  0.3684826306498175 0.19 0  0.3386094217012945 0.19 0  0.3311411194641595 0.19 0  0.3236728172270245 0.19 0  0.3162045149898895 0.19 0  0.2863313060413428 0.19 0  0.2788630038042048 0.19 0  0.2489897948556636 0.19 0  0.2489897948556636 0.21 0  0.3411792619035872 0.1007807988883264 0  0.3223547013037051 0.0811661342953541 0  0.3444094697767079 0.06991525711561337 0  0.3605639237643 0.2793006923612668 0  0.3754967205959606 0.2925860795314694 0  0.3727949441736886 0.2687069143756727 0  0.1123698019379044 0.2058991360802581 0  0.1106531987626008 0.1894643335925837 0  0.09638298985168356 0.2000713960717276 0  0.0534241021414831 0.2075428856341382 0  0.07538638723190919 0.1915913195394167 0  0.06726459509928774 0.2147740778951952 0  0.3265012756581966 0.2702065959162994 0  0.3425185051143286 0.277559411241074 0  0.3236350239119228 0.2946877384927431 0  0.3871536388992142 0.2768042805511501 0  0.05117116986370451 0.1453484941029572 0  0.028576868323113 0.1257840022252348 0  0.02526469030969892 0.1581631046774197 0  0.2731077660562961 0.05508844879223635 0  0.2987388406956894 0.03154986994134981 0  0.2542757755299287 0.02753888901404131 0  0.3578728954606922 0.1299960675997348 0  0.3428550702839791 0.1207298864326248 0  0.3606088315611094 0.1037277084934985 0  0.3655464778159961 0.1466879707354811 0  0.3738358170836363 0.1565872175614931 0  0.383930166391577 0.149077512173999 0  0.1643783325218296 0.1320455275536215 0  0.1492552100538899 0.1320415135830948 0  0.1603037058708973 0.1432581839427922 0  0.07781603907681035 0.1514291067465787 0  0.06748599119092742 0.1295390004813558 0  0.2286913662688903 0.3133959500822503 0  0.2457579136251883 0.3036253283210157 0  0.2370120387482942 0.3305347050441392 0  0.1133943915886014 0.3302098901172357 0  0.1085927601152855 0.3576703429582752 0  0.1291050229147523 0.3369598757086243 0  0.1876570762350594 0.2701429686523801 0  0.1759534499456636 0.268744809012302 0  0.1862475166430347 0.2806184243256064 0  0.2767628315692916 0.1210799475693868 0  0.260361447596534 0.1229759280558447 0  0.2739511166480145 0.1012903426171407 0  0.228090483983057 0.1360461642521307 0  0.2156274396954392 0.1428329882811742 0  0.2231096629876289 0.1473860403476538 0  0.3642910294882131 0.08514217524358583 0  0.04799687037553593 0.1900185470502504 0  0.1704873609912336 0.2583583661241701 0  0.1801707401936674 0.2578452677740249 0  0 0.3514285714286952 0  0.03215830272795324 0.3311110896359255 0  0.02400550655420258 0.3538155845945724 0  0.09145562669711395 0.175668370620234 0  0.09635163646555502 0.1596076048115481 0  0.07646146193815946 0.1687797331838 0  0 0.05857142857161107 0  0 0.02928571428580012 0  0.02797905238142366 0.04239836249189064 0  0.3009672322348927 0.299853464475565 0  0.2860802002973516 0.3223921533999551 0  0.2799076752212695 0.2955946972235118 0  0.1521457199348437 0.2144902684393899 0  0.1547844879126531 0.221343792228163 0  0.1460074103989341 0.2155962236814484 0  0.06224717571675014 0.16049953533406 0  0.2004289920815778 0.2885787263743592 0  0.2083656065158181 0.2774025780460683 0  0.2175887234644184 0.2860477873464338 0  0 0.1464285714289574 0  0.3656958473839882 0.2539056765427533 0  0.3826544750917113 0.2574975795502557 0  0.3742999258550256 0.2455889756585279 0  0.1340109150974826 0.1326286508362426 0  0.1230381620938855 0.1450531231009962 0  0.1371388187715824 0.1487519394947238 0  0.09921229729781815 0.216694589313852 0  0.1987596795720009 0.2706417532988148 0  0 0.3221428571430699 0  0.1502170850938848 0.1478553695050668 0  0.1022962111550141 0.273832470550381 0  0.1121786756446853 0.257597694764058 0  0.1185619469878228 0.2730177051871591 0  0.09898678642452967 0.1862327908870533 0  0.1843109002236991 0.1108412192449581 0  0.1663792634974669 0.1129031590983526 0  0.1730791557496665 0.09449610930120438 0  0.05939492550527375 0.3149957962361826 0  0.03411173555592004 0.3013214948275056 0  0.1949745518995776 0.2497468076502398 0  0.202315810036185 0.2499463414463592 0  0.1988936168129591 0.2591743361304991 0  0.1497148406801674 0.1059683048239758 0  0.1319376419904144 0.1078314072630599 0  0.1422873301607691 0.09099989767432708 0  0.3684404229859068 0.05879875930223131 0  0.3866266297147894 0.03466711669742863 0  0.3886771468199661 0.07134613381357163 0  0.1503920612246686 0.252658552798053 0  0.1407371787724462 0.2442700623456801 0  0.1431093770171943 0.2599228455937608 0  0.09191660917863548 0.3399083220637153 0  0.1291780217515827 0.2400382025520897 0  0.1325512871714925 0.2548933203634119 0  0.05400790163887537 0.1101452894911868 0  0.03212895351398194 0.09444182905744057 0  0.3119706532029335 0.280741853274607 0  0.1613699074131162 0.2874965309748423 0  0.1497954449456231 0.3068853213507886 0  0.1704962809759384 0.2989815459796012 0  0.1292063859387973 0.160179270973018 0  0.29813678539982 0.236276478175315 0  0.3103932646053297 0.2435733951751842 0  0.2950877208402625 0.2480324151406079 0  0.2571393426600714 0.09909224058133874 0  0.2802365149396702 0.2293267412254819 0  0.2888197773682229 0.2217624015035644 0  0.2799011483571476 0.2201540359780956 0  0.1273239957535623 0.41 0  0.1550887940203835 0.3759695678273732 0  0.1305531867707806 0.3723894882772687 0  0.2328041563607919 0.2914013345123573 0  0.2145757352600842 0.3012314566270872 0  0.3718691980658081 0.1185113859721947 0  0.06140001986584975 0.41 0  0.08484979611354741 0.3801877867628078 0  0.05922009696123734 0.3774661510110062 0  0.1314207338941352 0.2277905748945162 0  0.1208839583881551 0.2181173442085023 0  0.1226326835593179 0.232510509637589 0  0.2199699516855607 0.2730509421907208 0  0.2088779690661671 0.2650057074514391 0  0.2335552553807713 0.3548019770067952 0  0.216380800632318 0.3798697230577418 0  0.2537725505472335 0.3777585525832137 0  0.09377624077128965 0.41 0  0.09380266644077194 0.2576101652245613 0  0.3141745521466497 0.41 0  0.3098481778850767 0.3708824362367037 0  0.2803555148413351 0.3762695151888899 0  0.3830052789765099 0.2465504596596307 0  0.1712191068054211 0.2792458170307043 0  0.2798983539554935 0.1725715317274126 0  0.2887875715604008 0.1784526411902859 0  0.2798265752054099 0.1801908109055989 0  0.3750556316230105 0.1339831864103567 0  0.1315669208937715 0.2153401624373302 0  0.08319468457824891 0.2132940804249223 0  0.05506284017382649 0.2425906156552861 0  0.03234799839792719 0.2322323714096635 0  0.03317213267821684 0.2576605437337542 0  0.235428184091502 0 0  0.2269089833956681 0.04173965335049001 0  0.2054867233040618 0.02496467843107029 0  0.0655461589766832 0.3354809920423228 0  0.3938502830802056 0.3095497484347601 0  0.3641563190507836 0.3179653487982807 0  0.3934922780344484 0.3350540779420794 0  0.132972307375135 0.2702075053542861 0  0.1310410255455362 0.2846992571580754 0  0.3236197880522565 0.342390365483443 0  0.3436434970543172 0.3743236175823911 0  0.2607466101664424 0.2266930975791233 0  0.271385042995999 0.2220255791858506 0  0.2640363109795177 0.2179944263838653 0  0.1877417105387872 0.1515259415822739 0  0.1807733240461124 0.153844448527136 0  0.1810237202008071 0.1443964565620037 0  0.05202618668915951 0.3533574174069209 0  0.0341778808147269 0.3756898840960821 0  0.3418128
[...]
<PointData  Vectors="u"> 
<DataArray  type="Float64"  Name="u"  NumberOfComponents="3" format="ascii">7.2224415279162576e-06 6.1601357286284199e-05 0.0000000000000000e+00  -2.6941528171632480e-06 6.1831678294804504e-05 0.0000000000000000e+00  8.8627153031389289e-07 6.7672004086912122e-05 0.0000000000000000e+00  4.7736970842893623e-06 1.7546728673919680e-05 0.0000000000000000e+00  -1.5172339880157174e-06 1.8020441314258734e-05 0.0000000000000000e+00  7.3949244834790555e-07 2.1658647655430095e-05 0.0000000000000000e+00  1.0672299542101617e-06 5.6017523191865695e-05 0.0000000000000000e+00  8.1921168089897189e-07 1.4200592403043988e-05 0.0000000000000000e+00  -1.2643294357699589e-05 6.3690759098008107e-05 0.0000000000000000e+00  -6.2587008530235953e-06 5.6828240476095605e-05 0.0000000000000000e+00  -7.8892735653480244e-06 1.9902334228631195e-05 0.0000000000000000e+00  -3.5310760164160619e-06 1.5108861163895546e-05 0.0000000000000000e+00  -6.4517024855706334e-06 6.8456338185804864e-05 0.0000000000000000e+00  -4.1582295982686554e-06 2.2564164716845926e-05 0.0000000000000000e+00  -1.5946275892821293e-07 1.0190784700139250e-06 0.0000000000000000e+00  4.6421269930145897e-07 2.1996584908611719e-06 0.0000000000000000e+00  -1.4600466911571065e-06 3.1676487383121473e-06 0.0000000000000000e+00  -7.0473640634412210e-07 4.9860152691702905e-06 0.0000000000000000e+00  6.4321115210677829e-07 4.0113604168597587e-07 0.0000000000000000e+00  1.7213247592972371e-06 8.6881066362616178e-07 0.0000000000000000e+00  0.0000000000000000e+00 0.0000000000000000e+00 0.0000000000000000e+00  0.0000000000000000e+00 0.0000000000000000e+00 0.0000000000000000e+00  -1.9605808777426701e-07 6.0347883702102306e-07 0.0000000000000000e+00  -2.6874433105935216e-06 7.4302735515730564e-05 0.0000000000000000e+00  -6.0112177717053475e-06 8.2243074730337199e-05 0.0000000000000000e+00  1.4801871051256958e-06 8.1590662006650449e-05 0.0000000000000000e+00  -2.2106731886521175e-06 3.8140863989777262e-05 0.0000000000000000e+00  -4.9505386637676351e-06 4.5025943901543552e-05 0.0000000000000000e+00  1.2480039625193952e-06 4.4201935785967622e-05 0.0000000000000000e+00  -1.7584429344248743e-06 2.6417116419958161e-05 0.0000000000000000e+00  -4.3230180636063569e-06 3.2317544671463946e-05 0.0000000000000000e+00  1.1706434872937218e-06 3.1568211213303195e-05 0.0000000000000000e+00  -2.5015529691948852e-06 8.5069961642188827e-06 0.0000000000000000e+00  7.9441484018296506e-07 7.6010645760085561e-06 0.0000000000000000e+00  -1.1112401513080160e-06 1.1440367434472504e-05 0.0000000000000000e+00  -2.3753419560125171e-06 5.0996737971266267e-05 0.0000000000000000e+00  2.4762067289081895e-06 2.8897301272152969e-06 0.0000000000000000e+00  -4.8273845853801433e-06 8.0570899267285385e-06 0.0000000000000000e+00  -5.9230747001114842e-06 1.1417557616000335e-05 0.0000000000000000e+00  -9.5733755708785618e-06 3.0436517385074512e-05 0.0000000000000000e+00  -1.0312397245226870e-05 3.6368312263781694e-05 0.0000000000000000e+00  -1.0986218513952717e-05 4.2694537146741543e-05 0.0000000000000000e+00  -1.1598043292912413e-05 4.9377561207454828e-05 0.0000000000000000e+00  6.9569810144739780e-06 5.4256795842313420e-05 0.0000000000000000e+00  4.2794036786415894e-06 1.2997767870123788e-05 0.0000000000000000e+00  -6.9436467736703284e-06 1.5382877802626911e-05 0.0000000000000000e+00  -1.2149589270126027e-05 5.6387227179971491e-05 0.0000000000000000e+00  -1.0488850821296135e-06 1.7748259337549756e-06 0.0000000000000000e+00  5.2267680210092856e-06 2.2610615180046876e-05 0.0000000000000000e+00  7.4710306183656311e-06 6.9212999171197238e-05 0.0000000000000000e+00  0.0000000000000000e+00 0.0000000000000000e+00 0.0000000000000000e+00  2.6715480935086485e-07 -8.5823531439523101e-08 0.0000000000000000e+00  -2.7027247523380385e-06 5.8174753276012093e-06 0.0000000000000000e+00  3.1041632429773008e-06 7.3453370041310788e-05 0.0000000000000000e+00  2.5652236019001669e-06 3.7579591383122933e-05 0.0000000000000000e+00  2.2910697957589942e-06 2.5635374299895404e-05 0.0000000000000000e+00  1.2795271975082145e-06 4.4206212119504655e-06 0.0000000000000000e+00  -1.3085099513646111e-05 7.1261315399994622e-05 0.0000000000000000e+00  -8.7670178074346558e-06 2.4933523961113775e-05 0.0000000000000000e+00  1.6877994623716049e-06 1.0944366171058300e-05 0.0000000000000000e+00  2.7008289385532982e-06 5.0555536425498462e-05 0.0000000000000000e+00  -1.3474287216059572e-05 7.9074091868926050e-05 0.0000000000000000e+00  -8.4866750605159635e-06 7.4867438187542200e-05 0.0000000000000000e+00  -7.0018577741125581e-06 3.8850407077801984e-05 0.0000000000000000e+00  -5.8177641566761699e-06 2.7112899528678765e-05 0.0000000000000000e+00  8.0271981036233182e-07 -2.7759194598705279e-07 0.0000000000000000e+00  2.8832799800437374e-07 -2.8256355272253200e-07 0.0000000000000000e+00  -7.5355480121743433e-06 5.1747914505516125e-05 0.0000000000000000e+00  -4.0813729647615717e-06 1.2408919597714132e-05 0.0000000000000000e+00  -1.2866760577308812e-06 1.9588494864895138e-06 0.0000000000000000e+00  -3.1601811914762784e-07 8.0371163351688426e-07 0.0000000000000000e+00  -2.4436121021446375e-06 3.3491646771857075e-06 0.0000000000000000e+00  -3.6580716689901408e-06 5.3524484076501492e-06 0.0000000000000000e+00  7.9196323056751616e-06 8.5136131661381917e-05 0.0000000000000000e+00  7.7021826872705594e-06 7.7066480173059961e-05 0.0000000000000000e+00  6.6687635057462374e-06 4.7206654190560232e-05 0.0000000000000000e+00  6.3547980048877241e-06 4.0483020940272470e-05 0.0000000000000000e+00  6.0125311125147849e-06 3.4118574470044615e-05 0.0000000000000000e+00  5.6377133713590502e-06 2.8148760874208727e-05 0.0000000000000000e+00  3.7348819400398094e-06 9.0069916610646587e-06 0.0000000000000000e+00  3.1358064277793756e-06 5.6226887606247032e-06 0.0000000000000000e+00  0.0000000000000000e+00 0.0000000000000000e+00 0.0000000000000000e+00  0.0000000000000000e+00 0.0000000000000000e+00 0.0000000000000000e+00  3.2309242811020866e-01 3.3159675609389407e-02 0.0000000000000000e+00  3.4692202709819692e-01 2.5244862071293905e-02 0.0000000000000000e+00  3.3097686812853683e-01 2.2784687072791882e-02 0.0000000000000000e+00  2.6423926664582897e-01 -3.2625587185410830e-02 0.0000000000000000e+00  3.0376483423159611e-01 -3.0732005173804419e-02 0.0000000000000000e+00  2.2812196898345080e-01 -2.8499146040326526e-02 0.0000000000000000e+00  1.8413863156966120e-01 2.0043348813200162e-02 0.0000000000000000e+00  1.9115998541089493e-01 -3.1399222275493736e-02 0.0000000000000000e+00  2.2484328738684720e-01 1.1514213574221198e-03 0.0000000000000000e+00  2.8157487952346499e-01 6.1409002498150293e-03 0.0000000000000000e+00  2.5969588651540715e-01 -9.6670929501735513e-03 0.0000000000000000e+00  2.7026022084620716e-01 1.5877266951483650e-02 0.0000000000000000e+00  2.2070686502902559e-01 -3.4299041509929351e-02 0.0000000000000000e+00  2.5599956985306532e-01 -3.4440042623063855e-02 0.0000000000000000e+00  3.1878657338154159e-01 -3.2287023909988562e-02 0.0000000000000000e+00  2.5989417666309211e-01 -2.8178337572120630e-02 0.0000000000000000e+00  2.6795527586517481e-01 -2.9008810624046779e-02 0.0000000000000000e+00  2.5467699930556403e-01 -1.6544496872203846e-02 0.0000000000000000e+00  2.8205238898345142e-01 -1.0971922068872451e-02 0.0000000000000000e+00  3.2011138210443696e-01 5.0531483287246928e-03 0.0000000000000000e+00  2.2897244242480269e-01 7.1678757730738955e-03 0.0000000000000000e+00  2.1363402742987911e-01 9.6367809742700574e-04 0.0000000000000000e+00  2.3235711081751786e-01 3.1607641933790925e-02 0.0000000000000000e+00  2.6514762854994217e-01 3.5436774175673397e-02 0.0000000000000000e+00  3.1292845471265679e-01 3.2225103013114043e-02 0.0000000000000000e+00  1.6970393814498247e-01 2.2662854820017918e-02 0.0000000000000000e+00  1.3598499812918935e-01 1.5297886802385993e-02 0.0000000000000000e+00  1.7110343106579834e-01 1.8566996032925394e-02 0.0000000000000000e+00  3.3040327688662618e-01 -1.7342815484250698e-01 0.0000000000000000e+00  3.0141483273901726e-01 -1.6981305922131090e-01 0.0000000000000000e+00  2.8577147404938663e-01 -1.8937486836203687e-01 0.0000000000000000e+00  2.5969642180456382e-01 -4.9374669351660516e-02 0.0000000000000000e+00  2.5551789769758143e-01 -4.5207236463525008e-02 0.0000000000000000e+00  3.8282565733669632e-01 3.7284986140325875e-02 0.0000000000000000e+00  3.8233450872562419e-01 1.4940964686072738e-02 0.0000000000000000e+00  3.5720905934064101e-01 2.4284674194860641e-02 0.0000000000000000e+00  2.3223010345499970e-01 5.7672601414590172e-02 0.0000000000000000e+00  1.7824975624004216e-01 3.1850034473219109e-02 0.0000000000000000e+00  2.3699358183572047e-01 5.7028092791568293e-02 0.0000000000000000e+00  3.4145111370177900e-01 1.0804058675152448e-01 0.0000000000000000e+00  3.4746964623465049e-01 1.5117072472893156e-01 0.0000000000000000e+00  3.8044724901968541e-01 1.2097566419321225e-01 0.0000000000000000e+00  2.6911476203720419e-01 3.0519148281069761e-02 0.0000000000000000e+00  2.6551977247438235e-01 2.4770434727697833e-02 0.0000000000000000e+00  3.5059453155677445e-01 1.7800791480758221e-02 0.0000000000000000e+00  1.7859942632959341e-01 1.4301504449939243e-02 0.0000000000000000e+00  1.1150447145917326e-01 9.6654364481462383e-03 0.0000000000000000e+00  6.0941965949712608e-02 1.3399497269837697e-02 0.0000000000000000e+00  3.3219975159787091e-01 2.7311936232813420e-02 0.0000000000000000e+00  2.8405531833476810e-01 -5.7898116995265181e-03 0.0000000000000000e+00  2.9139836368920297e-01 1.6027006626285123e-01 0.0000000000000000e+00  2.4913470407265920e-01 1.0422113608456375e-01 0.0000000000000000e+00  1.4693877550994527e-01 0.0000000000000000e+00 0.0000000000000000e+00  1.8944117117265488e-01 1.4986655603131872e-02 0.0000000000000000e+00  1.4389055499884718e-01 7.4030763758873991e-03 0.0000000000000000e+00  2.4041305409063549e-01 -4.1218011965011264e-02 0.0000000000000000e+00  2.4404331207345470e-01 -6.6782333031113153e-02 0.0000000000000000e+00  2.5970943388719608e-01 -3.5622405754256257e-02 0.0000000000000000e+00  1.4693877551058568e-01 0.0000000000000000e+00 0.0000000000000000e+00  7.9591836734909230e-02 0.0000000000000000e+00 0.0000000000000000e+00  1.1413792634474373e-01 -6.2528236987004311e-03 0.0000000000000000e+00  3.4160583409444439e-01 -2.5985315891033957e-02 0.0000000000000000e+00  3.6619723561199224e-01 -9.3040956794955120e-03 0.0000000000000000e+00  3.4225912155980742e-01 -1.9891970657322244e-02 0.0000000000000000e+00  0.0000000000000000e+00 0.0000000000000000e+00 0.0000000000000000e+00  0.0000000000000000e+00 0.0000000000000000e+00 0.0000000000000000e+00  4.1760054074011267e-02 8.1299897022302434e-02 0.0000000000000000e+00  2.6936695928888121e-01 -3.0783493334893060e-02 0.0000000000000000e+00  3.9015349920330705e-01 8.5278290007037030e-02 0.0000000000000000e+00  3.4353383923547853e-01 5.1378176169250368e-02 0.0000000000000000e+00  3.7077232730050114e-01 4.3058375162467070e-02 0.0000000000000000e+00  2.7551020408195548e-01 0.0000000000000000e+00 0.0000000000000000e+00  1.6689405056284048e-01 -2.2697411798135558e-02 0.0000000000000000e+00  1.9009948586317885e-01 -2.2199297547132395e-02 0.0000000000000000e+00  1.3943757131573950e-01 -1.6448977947256502e-02 0.0000000000000000e+00  2.7519690602699820e-01 -1.4415060157549406e-01 0.0000000000000000e+00  2.4832643121883599e-01 -1.2830380209481673e-01 0.0000000000000000e+00  2.4578697423336346e-01 -1.6850506783097310e-01 0.0000000000000000e+00  2.2521570130634982e-01 3.7351157087759691e-02 0.0000000000000000e+00  3.1817450253719659e-01 6.5869578160448444e-02 0.0000000000000000e+00  2.0204081632617479e-01 0.0000000000000000e+00 0.0000000000000000e+00  2.5905666958207807e-01 -1.9568090086094253e-01 0.0000000000000000e+00  2.6622806022855866e-01 8.7660078103058856e-02 0.0000000000000000e+00  2.5781637958686970e-01 1.0657658006846542e-01 0.0000000000000000e+00  2.7343645266456074e-01 1.1316480336360252e-01 0.0000000000000000e+00  2.2217539444521739e-01 -2.9366851466797100e-02 0.0000000000000000e+00  3.7436844536775082e-01 -1.1346437280937184e-01 0.0000000000000000e+00  3.4460309918449994e-01 -1.3526699743753942e-01 0.0000000000000000e+00  3.3562684315679814e-01 -9.7509914842876480e-02 0.0000000000000000e+00  2.2193019557124860e-01 3.4193145481918721e-02 0.0000000000000000e+00  2.3539775112535424e-01 2.0411928078706620e-02 0.0000000000000000e+00  0.0000000000000000e+00 0.0000000000000000e+00 0.0000000000000000e+00  0.0000000000000000e+00 0.0000000000000000e+00 0.0000000000000000e+00  1.7696576986480306e-01 2.4631492163976487e-02 0.0000000000000000e+00  3.0703194689035562e-01 -1.1831927560154416e-01 0.0000000000000000e+00  2.7964442652261268e-01 -1.0720343019201752e-01 0.0000000000000000e+00  2.8036296239912589e-01 -9.0678804410154412e-02 0.0000000000000000e+00  3.0261416851114181e-01 1.7826378066648899e-02 0.0000000000000000e+00  2.1131615306852239e-01 7.1691208921377206e-03 0.0000000000000000e+00  3.1728654326359185e-01 2.0418865415183840e-02 0.0000000000000000e+00  2.6735739637759964e-01 1.9913612186518423e-01 0.0000000000000000e+00  2.2581637859739156e-01 1.8396837865540311e-01 0.0000000000000000e+00  2.8206726183821779e-01 1.7749086928677013e-01 0.0000000000000000e+00  1.9938954894563396e-01 4.0006815409596913e-02 0.0000000000000000e+00  2.1561526397084471e-01 1.4504463549744878e-01 0.0000000000000000e+00  2.5848200177652658e-01 1.5621336027463661e-01 0.0000000000000000e+00  2.3822474687054435e-01 -3.3525314916470671e-02 0.0000000000000000e+00  2.1464114552965438e-01 -1.7379541238693418e-02 0.0000000000000000e+00  2.6954738392457878e-01 -3.4823354065818830e-02 0.0000000000000000e+00  3.4278803843758049e-01 1.3962834226840903e-01 0.0000000000000000e+00  3.0563458633436852e-01 1.0140324663277693e-01 0.0000000000000000e+00  3.5005531110466759e-01 1.1552989228922944e-01 0.0000000000000000e+00  2.1031741306905041e-01 -1.4229956582454906e-01 0.0000000000000000e+00  4.5842795078387816e-02 -1.3153019119378178e-02 0.0000000000000000e+00  8.4067153574761105e-02 -1.9592365985590356e-02 0.0000000000000000e+00  9.2086080776321841e-02 -2.2300205227820693e-02 0.0000000000000000e+00  3.6599827715614353e-01 3.5329317826051166e-03 0.0000000000000000e+00  1.2905565049574698e-02 -5.9095798318316633e-03 0.0000000000000000e+00  4.2035293616211186e-03 -2.8629839197179519e-03 0.0000000000000000e+00  -9.7904076079280986e-04 -1.6248484400834986e-03 0.0000000000000000e+00  0.0000000000000000e+00 0.0000000000000000e+00 0.0000000000000000e+00  1.7460599058558554e-01 1.9027427188304587e-02 0.0000000000000000e+00  1.6239834220787605e-01 2.1833233622061035e-02 0.0000000000000000e+00  3.7037462946771460e-01 2.1737492673699232e-02 0.0000000000000000e+00  3.9201283184889374e-01 5.8160888069912840e-02 0.0000000000000000e+00  2.7487366176659522e-01 3.1434407925466000e-02 0.0000000000000000e+00  0.0000000000000000e+00 0.0000000000000000e+00 0.0000000000000000e+00  1.0600305306672397e-01 1.0930726848071734e-02 0.0000000000000000e+00  1.0004390882379140e-01 8.8848138997145356e-03 0.0000000000000000e+00  1.6651251141083395e-01 1.3064064975720807e-01 0.0000000000000000e+00  1.7074135665126908e-01 7.2235103085924374e-02 0.0000000000000000e+00  2.0169679414813674e-01 1.1406574583195002e-01 0.0000000000000000e+00  2.8423666445047580e-01 1.3993211933262362e-02 0.0000000000000000e+00  2.2676017261456333e-01 1.7128121564514438e-02 0.0000000000000000e+00  3.0094438930081052e-01 1.5589219901578867e-02 0.0000000000000000e+00  2.0638348762752948e-01 7.5875054242752543e-03 0.0000000000000000e+00  2.2858859515511015e-01 6.6788814700646348e-04 0.0000000000000000e+00  0.0000000000000000e+00 0.0000000000000000e+00 0.0000000000000000e+00  2.6146081772579216e-01 7.5272791016718674e-02 0.0000000000000000e+00  0.0000000000000000e+00 0.0000000000000000e+00 0.0000000000000000e+00  2.5528734825767857e-01 -7.7874216559425920e-03 0.0000000000000000e+00  2.3654270475516528e-01 -3.5105486266410707e-03 0.0000000000000000e+00  1.4858909929042932e-01 -1.6047083831095165e-02 0.0000000000000000e+00  3.6384758891813923e-01 1.5116572002000717e-01 0.0000000000000000e+00  1.0920132668253837e-02 5.3028301830746055e-03 0.0000000000000000e+00  5.7190328325191619e-03 3.0156477907657638e-03 0.0000000000000000e+00  2.3362530233393746e-05 1.7197436095250543e-03 0.0000000000000000e+00  2.2323586175363100e-01 2.7336340072729875e-02 0.0000000000000000e+00  1.2089923161639154e-01 8.4245278542051175e-02 0.0000000000000000e+00  2.5084850115979335e-01 2.0546394026209010e-02 0.0000000000000000e+00  2.7803940967970392e-01 2.9045782193126070e-02 0.0000000000000000e+00  2.8986118466866045e-01 1.2561889721044914e-02 0.0000000000000000e+00  2.7768918533393672e-01 1.8982449972439225e-02 0.0000000000000000e+00  0.0000000000000000e+00 0.0000000000000000e+00 0.0000000000000000e+00  2.6728613901220266e-01 -1.1038103442068079e-02 0.0000000000000000e+00  1.8488862262865660e-01 -6.8188141630209521e-03 0.0000000000000000e+00  1.9208547066949949e-01 3.0033754656921423e-02 0.0000000000000000e+00  3.2793315195378686e-01 -2.5893414181509318e-02 0.0000000000000000e+00  3.4033736695601130e-01 -2.6135921575517914e-02 0.0000000000000000e+00  3.2359391114290159e-01 -1.9388731525396483e-02 0.0000000000000000e+00  2.8482304947802917e-01 1.4178754960402987e-01 0.0000000000000000e+00  2.8980624617379969e-01 1.2011974920560665e-01 0.0000000000000000e+00  3.3397979156134000e-01 -1.6296572730238847e-02 0.0000000000000000e+00  2.3021399602044323e-01 -8.4044387990174149e-03 0.0000000000000000e+00  -1.1923889925781994e-04 6.4570780955248877e-04 0.0000000000000000e+00  -1.9309929531179406e-03 -1.1188410562998942e-03 0.0000000000000000e+00  -4.2588060206480566e-03 4.7235838566562517e-04 0.0000000000000000e+00  0.0000000000000000e+00 0.0000000000000000e+00 0.0000000000000000e+00  0.0000000000000000e+00 0.0000000000000000e+00 0.0000000000000000e+00  2.0764331895637969e-01 -8.4076230177795461e-02 0.0000000000000000e+00  1.5244476808284471e-01 1.7039388479263173e-02 0.0000000000000000e+00  9.6166373462969260e-02 5.5079278262383383e-03 0.0000000000000000e+00  8.8825762005066256e-02 -1.4433144713322753e-02 0.0000000000000000e+00  1.2214216976267382e-01 -1.8081855822459400e-02 0.0000000000000000e+00  1.3552483270137961e-01 -2.3141321332534645e-02 0.0000000000000000e+00  3.1091999994776065e-01 1.2778588369926916e-01 0.0000000000000000e+00  4.6740839507052989e-02 -1.1319039831912705e-02 0.0000000000000000e+00  4.0397723079758030e-02 -1.1036487511663457e-02 0.0000000000000000e+00  1.5327281364760116e-02 -3.4942696668183310e-03 0.0000000000000000e+00  8.4913311068353495e-02 1.2378417356246810e-01 0.0000000000000000e+00  3.1454788566452250e-03 1.5399391791015107e-03 0.0000000000000000e+00  -2.2508598068270175e-03 3.5230730964245591e-03 0.0000000000000000e+00  4.9532314194302866e-02 1.3943805657567950e-02 0.0000000000000000e+00  8.8586338023775829e-02 2.0506452039203336e-02 0.0000000000000000e+00  9.6234419160585533e-02 2.3598259361412972e-02 0.0000000000000000e+00  7.2548001091498997e-03 -1.0672823919123410e-03 0.0000000000000000e+00  5.1886991418789094e-02 -1.2396738351198451e-02 0.0000000000000000e+00  1.9139376492228275e-02 -4.1036996416408938e-03 0.0000000000000000e+00  1.5706483795298964e-01 1.7106391417552139e-01 0.0000000000000000e+00  1.3527240607318441e-01 1.5278580855567653e-01 0.0000000000000000e+00  2.1023137388873597e-01 1.9609513950499080e-01 0.0000000000000000e+00  3.6105401795826675e-01 1.0761602570396007e-02 0.0000000000000000e+00  2.5823353500713159e-01 -3.2921824037798045e-02 0.0000000000000000e+00  2.3359283509753925e-01 2.0617906996374138e-02 0.0000000000000000e+00  1.5424594248547338e-01 2.6288597012191894e-02 0.0000000000000000e+00  1.1301565649705760e-01 2.1856175690245026e-02 0.0000000000000000e+00  9.3944359426084147e-04 -7.8540738850251790e-05 0.0000000000000000e+00  -1.2142661622385280e-03 1.2775071196720980e-03 0.0000000000000000e+00  -3.7228802936743787e-03 -3.1104315801698898e-04 0.0000000000000000e+00  3.8130780469123954e-01 -8.51269