<?xml version="1.0"?>
<VTKFile type="UnstructuredGrid"  version="0.1"  >
<UnstructuredGrid>
<Piece  NumberOfPoints="718" NumberOfCells="1330">
<Points>
<DataArray  type="Float64"  NumberOfComponents="3"  format="ascii">0.3535460261755617 0.19 0  0.3528922713220932 0.2000185703532356 0  0.3590076176283495 0.196411355804271 0  0.3012679105156187 0.19 0  0.3006558810093873 0.1999966199048318 0  0.3066757059912147 0.1964092924317024 0  0.3473758401723931 0.1961819304478349 0  0.2950977245127906 0.1961819304477774 0  0.3535460261749672 0.21 0  0.3473758401724931 0.2038180695522752 0  0.301267910515333 0.21 0  0.2950977245128307 0.2038180695522663 0  0.3590471196690275 0.2036304442587945 0  0.3067669986803285 0.203627750582736 0  0.2607803159922026 0.2000727136295815 0  0.2677053789419034 0.1964246479135325 0  0.267698176732111 0.2039977513680092 0  0.2751288526855082 0.20000000000002 0  0.2603913042767976 0.1945999920783741 0  0.2639263993299336 0.19 0  0.25 0.2 0  0.2497468076502589 0.2050254481002335 0  0.2550657455369551 0.2034088125358657 0  0.3650630746574081 0.199866017807523 0  0.3722167817676917 0.2029084173136195 0  0.372246743208829 0.1959123236376545 0  0.3274069683451451 0.2000000000000796 0  0.3348752705822316 0.202908417313609 0  0.3347912413592433 0.1959225448935183 0  0.3127789816668748 0.1998657885438805 0  0.3199386661080599 0.202908417313604 0  0.3199680582793816 0.1959123018030061 0  0.2825131256993216 0.2035478995978015 0  0.2825051229162361 0.1959834479681729 0  0.2894621222999649 0.1998691686390484 0  0.3417402379596385 0.1998691686391011 0  0.2713947015670686 0.19 0  0.2788630038040554 0.21 0  0.2863313060411479 0.21 0  0.3162045149895234 0.21 0  0.3236728172265972 0.21 0  0.3311411194636928 0.21 0  0.3386094217007701 0.21 0  0.3460777239384295 0.19 0  0.2937996082784807 0.19 0  0.2937996082782405 0.21 0  0.3460777239378666 0.21 0  0.2601812407614425 0.2056861609747042 0  0.3087362127527544 0.19 0  0.361014328412667 0.19 0  0.2497468076502614 0.1949745518997913 0  0.2548908499171161 0.1966940311614271 0  0.2751288526855081 0.205697194228819 0  0.3647484795312433 0.1943028057712484 0  0.3274069683455914 0.1943028057712305 0  0.3124703638713219 0.1943028057712193 0  0.2751288526856362 0.1943028057711959 0  0.3610143284120516 0.21 0  0.3087362127524279 0.21 0  0.2895549462647731 0.1944069323160756 0  0.341834128962283 0.1943988119061815 0  0.3684826306491596 0.21 0  0.3650260178642469 0.2054197153269502 0  0.3274069683451451 0.2056971942288527 0  0.312746837849954 0.2054193256016435 0  0.2564580970927985 0.19 0  0.2525889069107169 0.1926036384190297 0  0.341845332858566 0.2054104280253135 0  0.2897864851748124 0.2055930218738881 0  0.25645809709277 0.21 0  0.25261805618068 0.2074135021971937 0  0.2639263993298655 0.21 0  0.271394701566961 0.21 0  0.3759509328869369 0.19 0  0.3684826306498175 0.19 0  0.3386094217012945 0.19 0  0.3311411194641595 0.19 0  0.3236728172270245 0.19 0  0.3162045149898895 0.19 0  0.2863313060413428 0.19 0  0.2788630038042048 0.19 0  0.2489897948556636 0.19 0  0.2489897948556636 0.21 0  0.3411792619035872 0.1007807988883264 0  0.3223547013037051 0.0811661342953541 0  0.3444094697767079 0.06991525711561337 0  0.3605639237643 0.2793006923612668 0  0.3754967205959606 0.2925860795314694 0  0.3727949441736886 0.2687069143756727 0  0.1123698019379044 0.2058991360802581 0  0.1106531987626008 0.1894643335925837 0  0.09638298985168356 0.2000713960717276 0  0.0534241021414831 0.2075428856341382 0  0.07538638723190919 0.1915913195394167 0  0.06726459509928774 0.2147740778951952 0  0.3265012756581966 0.2702065959162994 0  0.3425185051143286 0.277559411241074 0  0.3236350239119228 0.2946877384927431 0  0.3871536388992142 0.2768042805511501 0  0.05117116986370451 0.1453484941029572 0  0.028576868323113 0.1257840022252348 0  0.02526469030969892 0.1581631046774197 0  0.2731077660562961 0.05508844879223635 0  0.2987388406956894 0.03154986994134981 0  0.2542757755299287 0.02753888901404131 0  0.3578728954606922 0.1299960675997348 0  0.3428550702839791 0.1207298864326248 0  0.3606088315611094 0.1037277084934985 0  0.3655464778159961 0.1466879707354811 0  0.3738358170836363 0.1565872175614931 0  0.383930166391577 0.149077512173999 0  0.1643783325218296 0.1320455275536215 0  0.1492552100538899 0.1320415135830948 0  0.1603037058708973 0.1432581839427922 0  0.07781603907681035 0.1514291067465787 0  0.06748599119092742 0.1295390004813558 0  0.2286913662688903 0.3133959500822503 0  0.2457579136251883 0.3036253283210157 0  0.2370120387482942 0.3305347050441392 0  0.1133943915886014 0.3302098901172357 0  0.1085927601152855 0.3576703429582752 0  0.1291050229147523 0.3369598757086243 0  0.1876570762350594 0.2701429686523801 0  0.1759534499456636 0.268744809012302 0  0.1862475166430347 0.2806184243256064 0  0.2767628315692916 0.1210799475693868 0  0.260361447596534 0.1229759280558447 0  0.2739511166480145 0.1012903426171407 0  0.228090483983057 0.1360461642521307 0  0.2156274396954392 0.1428329882811742 0  0.2231096629876289 0.1473860403476538 0  0.3642910294882131 0.08514217524358583 0  0.04799687037553593 0.1900185470502504 0  0.1704873609912336 0.2583583661241701 0  0.1801707401936674 0.2578452677740249 0  0 0.3514285714286952 0  0.03215830272795324 0.3311110896359255 0  0.02400550655420258 0.3538155845945724 0  0.09145562669711395 0.175668370620234 0  0.09635163646555502 0.1596076048115481 0  0.07646146193815946 0.1687797331838 0  0 0.05857142857161107 0  0 0.02928571428580012 0  0.02797905238142366 0.04239836249189064 0  0.3009672322348927 0.299853464475565 0  0.2860802002973516 0.3223921533999551 0  0.2799076752212695 0.2955946972235118 0  0.1521457199348437 0.2144902684393899 0  0.1547844879126531 0.221343792228163 0  0.1460074103989341 0.2155962236814484 0  0.06224717571675014 0.16049953533406 0  0.2004289920815778 0.2885787263743592 0  0.2083656065158181 0.2774025780460683 0  0.2175887234644184 0.2860477873464338 0  0 0.1464285714289574 0  0.3656958473839882 0.2539056765427533 0  0.3826544750917113 0.2574975795502557 0  0.3742999258550256 0.2455889756585279 0  0.1340109150974826 0.1326286508362426 0  0.1230381620938855 0.1450531231009962 0  0.1371388187715824 0.1487519394947238 0  0.09921229729781815 0.216694589313852 0  0.1987596795720009 0.2706417532988148 0  0 0.3221428571430699 0  0.1502170850938848 0.1478553695050668 0  0.1022962111550141 0.273832470550381 0  0.1121786756446853 0.257597694764058 0  0.1185619469878228 0.2730177051871591 0  0.09898678642452967 0.1862327908870533 0  0.1843109002236991 0.1108412192449581 0  0.1663792634974669 0.1129031590983526 0  0.1730791557496665 0.09449610930120438 0  0.05939492550527375 0.3149957962361826 0  0.03411173555592004 0.3013214948275056 0  0.1949745518995776 0.2497468076502398 0  0.202315810036185 0.2499463414463592 0  0.1988936168129591 0.2591743361304991 0  0.1497148406801674 0.1059683048239758 0  0.1319376419904144 0.1078314072630599 0  0.1422873301607691 0.09099989767432708 0  0.3684404229859068 0.05879875930223131 0  0.3866266297147894 0.03466711669742863 0  0.3886771468199661 0.07134613381357163 0  0.1503920612246686 0.252658552798053 0  0.1407371787724462 0.2442700623456801 0  0.1431093770171943 0.2599228455937608 0  0.09191660917863548 0.3399083220637153 0  0.1291780217515827 0.2400382025520897 0  0.1325512871714925 0.2548933203634119 0  0.05400790163887537 0.1101452894911868 0  0.03212895351398194 0.09444182905744057 0  0.3119706532029335 0.280741853274607 0  0.1613699074131162 0.2874965309748423 0  0.1497954449456231 0.3068853213507886 0  0.1704962809759384 0.2989815459796012 0  0.1292063859387973 0.160179270973018 0  0.29813678539982 0.236276478175315 0  0.3103932646053297 0.2435733951751842 0  0.2950877208402625 0.2480324151406079 0  0.2571393426600714 0.09909224058133874 0  0.2802365149396702 0.2293267412254819 0  0.2888197773682229 0.2217624015035644 0  0.2799011483571476 0.2201540359780956 0  0.1273239957535623 0.41 0  0.1550887940203835 0.3759695678273732 0  0.1305531867707806 0.3723894882772687 0  0.2328041563607919 0.2914013345123573 0  0.2145757352600842 0.3012314566270872 0  0.3718691980658081 0.1185113859721947 0  0.06140001986584975 0.41 0  0.08484979611354741 0.3801877867628078 0  0.05922009696123734 0.3774661510110062 0  0.1314207338941352 0.2277905748945162 0  0.1208839583881551 0.2181173442085023 0  0.1226326835593179 0.232510509637589 0  0.2199699516855607 0.2730509421907208 0  0.2088779690661671 0.2650057074514391 0  0.2335552553807713 0.3548019770067952 0  0.216380800632318 0.3798697230577418 0  0.2537725505472335 0.3777585525832137 0  0.09377624077128965 0.41 0  0.09380266644077194 0.2576101652245613 0  0.3141745521466497 0.41 0  0.3098481778850767 0.3708824362367037 0  0.2803555148413351 0.3762695151888899 0  0.3830052789765099 0.2465504596596307 0  0.1712191068054211 0.2792458170307043 0  0.2798983539554935 0.1725715317274126 0  0.2887875715604008 0.1784526411902859 0  0.2798265752054099 0.1801908109055989 0  0.3750556316230105 0.1339831864103567 0  0.1315669208937715 0.2153401624373302 0  0.08319468457824891 0.2132940804249223 0  0.05506284017382649 0.2425906156552861 0  0.03234799839792719 0.2322323714096635 0  0.03317213267821684 0.2576605437337542 0  0.235428184091502 0 0  0.2269089833956681 0.04173965335049001 0  0.2054867233040618 0.02496467843107029 0  0.0655461589766832 0.3354809920423228 0  0.3938502830802056 0.3095497484347601 0  0.3641563190507836 0.3179653487982807 0  0.3934922780344484 0.3350540779420794 0  0.132972307375135 0.2702075053542861 0  0.1310410255455362 0.2846992571580754 0  0.3236197880522565 0.342390365483443 0  0.3436434970543172 0.3743236175823911 0  0.2607466101664424 0.2266930975791233 0  0.271385042995999 0.2220255791858506 0  0.2640363109795177 0.2179944263838653 0  0.1877417105387872 0.1515259415822739 0  0.1807733240461124 0.153844448527136 0  0.1810237202008071 0.1443964565620037 0  0.05202618668915951 0.3533574174069209 0  0.0341778808147269 0.3756898840960821 0  0.3418128
[...]
<PointData  Vectors="u"> 
<DataArray  type="Float64"  Name="u"  NumberOfComponents="3" format="ascii">7.7824958370580654e-06 4.0420827090906427e-05 0.0000000000000000e+00  1.9186639943429954e-06 4.1021604196490195e-05 0.0000000000000000e+00  4.2576708244027412e-06 4.4287164136849638e-05 0.0000000000000000e+00  4.9008120005395677e-06 1.2473007201555106e-05 0.0000000000000000e+00  6.0360439462915742e-07 1.3234290487436828e-05 0.0000000000000000e+00  2.3294315506720156e-06 1.5570648837569259e-05 0.0000000000000000e+00  3.9336095962195590e-06 3.7393851288228934e-05 0.0000000000000000e+00  2.0189115503257041e-06 1.0423403943920195e-05 0.0000000000000000e+00  -3.9122496562949523e-06 4.2477397298436622e-05 0.0000000000000000e+00  -4.4943184425887189e-07 3.8193559906479801e-05 0.0000000000000000e+00  -3.7251277214267100e-06 1.4882349470859968e-05 0.0000000000000000e+00  -9.8563739642731823e-07 1.1359761752018051e-05 0.0000000000000000e+00  4.9197257435254653e-09 4.5042124734139670e-05 0.0000000000000000e+00  -9.4410293680078225e-07 1.6469386848004552e-05 0.0000000000000000e+00  2.9463963855489436e-07 8.7013068713256434e-07 0.0000000000000000e+00  9.5128497336094172e-07 1.6626031647756759e-06 0.0000000000000000e+00  -4.7563423315487392e-07 2.6890484016349907e-06 0.0000000000000000e+00  3.1780644273979230e-07 3.9185807615131978e-06 0.0000000000000000e+00  8.7177994225245398e-07 1.8258943321958369e-07 0.0000000000000000e+00  1.7806368064666623e-06 3.7603292755406536e-07 0.0000000000000000e+00  0.0000000000000000e+00 0.0000000000000000e+00 0.0000000000000000e+00  0.0000000000000000e+00 0.0000000000000000e+00 0.0000000000000000e+00  8.6153585004673460e-08 6.0716040144666929e-07 0.0000000000000000e+00  2.4488036004569147e-06 4.8257470453660582e-05 0.0000000000000000e+00  9.0112877215152383e-07 5.2871249427566630e-05 0.0000000000000000e+00  5.0984445273816430e-06 5.2206943926944455e-05 0.0000000000000000e+00  1.1596756271692966e-06 2.6519907912172311e-05 0.0000000000000000e+00  -2.3705260625396996e-07 3.0959439417078170e-05 0.0000000000000000e+00  3.5974204159438493e-06 3.0159437482073724e-05 0.0000000000000000e+00  8.8590380465769852e-07 1.8903078122195082e-05 0.0000000000000000e+00  -4.9819279113118185e-07 2.2893247169930173e-05 0.0000000000000000e+00  3.0468999911432770e-06 2.2121941542944400e-05 0.0000000000000000e+00  -7.3116353844657415e-07 6.6473369442006520e-06 0.0000000000000000e+00  1.6223667720602292e-06 5.6940651828879662e-06 0.0000000000000000e+00  4.9519409305531803e-07 8.6208914464079942e-06 0.0000000000000000e+00  1.6397599405988634e-06 3.4514555148312752e-05 0.0000000000000000e+00  2.5454754980806543e-06 1.9338507531366927e-06 0.0000000000000000e+00  -2.5642243196191122e-06 6.5454236024398226e-06 0.0000000000000000e+00  -3.0392512926314150e-06 8.9692008399232378e-06 0.0000000000000000e+00  -4.0976660690762171e-06 2.1911409205870768e-05 0.0000000000000000e+00  -4.1773825633755367e-06 2.5745190860484581e-05 0.0000000000000000e+00  -4.1930224959672797e-06 2.9747788438390027e-05 0.0000000000000000e+00  -4.1512873173858625e-06 3.3887159590320887e-05 0.0000000000000000e+00  7.4244273305962844e-06 3.6037295715314175e-05 0.0000000000000000e+00  4.3829577433517346e-06 9.3034451336631284e-06 0.0000000000000000e+00  -3.4250102023031778e-06 1.1765567373895833e-05 0.0000000000000000e+00  -4.0558454514839497e-06 3.8138707681150110e-05 0.0000000000000000e+00  -4.1380841070863488e-07 1.6542834454138698e-06 0.0000000000000000e+00  5.3859274100900892e-06 1.5921447840664169e-05 0.0000000000000000e+00  8.1329895147782714e-06 4.4869477839158500e-05 0.0000000000000000e+00  0.0000000000000000e+00 0.0000000000000000e+00 0.0000000000000000e+00  4.3175653578304361e-07 -1.2010593540477283e-07 0.0000000000000000e+00  -1.1428240378881326e-06 4.7471548938205723e-06 0.0000000000000000e+00  5.7428231335049386e-06 4.7522940608969182e-05 0.0000000000000000e+00  4.1771643463412878e-06 2.5917518419364419e-05 0.0000000000000000e+00  3.5401753852810832e-06 1.8147406802697953e-05 0.0000000000000000e+00  1.7600792051320958e-06 3.2705058633414725e-06 0.0000000000000000e+00  -3.7272205451949789e-06 4.6883465516561291e-05 0.0000000000000000e+00  -3.9495252287557648e-06 1.8277119467391859e-05 0.0000000000000000e+00  2.4591262202170887e-06 8.0430385541615747e-06 0.0000000000000000e+00  4.7263459011473841e-06 3.4006269707865395e-05 0.0000000000000000e+00  -3.5027226236877517e-06 5.1340119399181968e-05 0.0000000000000000e+00  -8.6254401680380981e-07 4.8796819449725474e-05 0.0000000000000000e+00  -1.8714886377668058e-06 2.7184611498730713e-05 0.0000000000000000e+00  -1.7905913647749490e-06 1.9573318046942814e-05 0.0000000000000000e+00  8.3752878920515960e-07 -5.0454794706963804e-07 0.0000000000000000e+00  3.4873996744506565e-07 -3.5559642286855857e-07 0.0000000000000000e+00  -1.4917473562828994e-06 3.5183482003813109e-05 0.0000000000000000e+00  -1.5797555182791080e-06 9.5230752972306649e-06 0.0000000000000000e+00  -7.8464971536925025e-07 1.8912027168106926e-06 0.0000000000000000e+00  -1.1792939130387511e-07 8.0022248461346384e-07 0.0000000000000000e+00  -1.3735829407182994e-06 3.0264607100606990e-06 0.0000000000000000e+00  -1.9996842949451067e-06 4.5482749276907667e-06 0.0000000000000000e+00  8.8144876318261796e-06 5.3894532851589515e-05 0.0000000000000000e+00  8.4759298755333653e-06 4.9366117082534289e-05 0.0000000000000000e+00  7.0540098098738492e-06 3.1738607442109538e-05 0.0000000000000000e+00  6.6682233113944043e-06 2.7549414125493819e-05 0.0000000000000000e+00  6.2644183167834941e-06 2.3496162702153484e-05 0.0000000000000000e+00  5.8382655022470296e-06 1.9609168020299518e-05 0.0000000000000000e+00  3.8223702014588003e-06 6.4567897299520981e-06 0.0000000000000000e+00  3.2126173693763966e-06 3.9837952063467614e-06 0.0000000000000000e+00  0.0000000000000000e+00 0.0000000000000000e+00 0.0000000000000000e+00  0.0000000000000000e+00 0.0000000000000000e+00 0.0000000000000000e+00  3.0889432114829679e-01 3.3295488649210322e-02 0.0000000000000000e+00  3.3096430672225213e-01 2.6980726364622221e-02 0.0000000000000000e+00  3.1667362810338484e-01 2.2418823534757687e-02 0.0000000000000000e+00  2.6094730442411135e-01 -3.1608875309056469e-02 0.0000000000000000e+00  2.9184017898724790e-01 -2.8678308175251990e-02 0.0000000000000000e+00  2.3303125185486490e-01 -2.6654212213474315e-02 0.0000000000000000e+00  1.8070484793508565e-01 1.9389634778275412e-02 0.0000000000000000e+00  1.8771770706191201e-01 -3.1765466638701619e-02 0.0000000000000000e+00  2.2145830811766476e-01 6.2199209976225166e-04 0.0000000000000000e+00  2.7992304912991522e-01 6.1270095576690178e-03 0.0000000000000000e+00  2.5700722957955413e-01 -1.0513902065985518e-02 0.0000000000000000e+00  2.6790324116411279e-01 1.6137257074910181e-02 0.0000000000000000e+00  2.2478035009437022e-01 -3.6880126413655068e-02 0.0000000000000000e+00  2.5405296428070445e-01 -3.5152936731996119e-02 0.0000000000000000e+00  3.0544990602264049e-01 -3.5152053330170289e-02 0.0000000000000000e+00  2.5830700597488854e-01 -2.5396565454236034e-02 0.0000000000000000e+00  2.6648823901849072e-01 -3.2050492357240189e-02 0.0000000000000000e+00  2.5424657690261043e-01 -1.9299794783766477e-02 0.0000000000000000e+00  2.8162517272256005e-01 -1.2520941425323539e-02 0.0000000000000000e+00  3.1525852603653703e-01 8.4500178924712451e-03 0.0000000000000000e+00  2.3075159352469901e-01 7.6510003734126565e-03 0.0000000000000000e+00  2.1963903725762876e-01 2.1515658824915584e-03 0.0000000000000000e+00  2.3573495946917633e-01 3.0337376819592306e-02 0.0000000000000000e+00  2.6177224447064407e-01 3.5467131951380619e-02 0.0000000000000000e+00  2.9991488195881072e-01 3.0648255452687498e-02 0.0000000000000000e+00  1.8480876947111560e-01 2.1236863090688268e-02 0.0000000000000000e+00  1.5552404012199503e-01 1.3899824554187465e-02 0.0000000000000000e+00  1.8676698982584608e-01 1.6378331428150150e-02 0.0000000000000000e+00  3.2327790582705257e-01 -1.6818227268313815e-01 0.0000000000000000e+00  2.9518038399333651e-01 -1.6649655703765467e-01 0.0000000000000000e+00  2.7940986404008938e-01 -1.8425704854521577e-01 0.0000000000000000e+00  2.5689281824415544e-01 -5.2020789789319850e-02 0.0000000000000000e+00  2.5339835531142313e-01 -4.9113687335954677e-02 0.0000000000000000e+00  3.7124619221767996e-01 2.9126694210588205e-02 0.0000000000000000e+00  3.6876811028253148e-01 5.6050638446248444e-03 0.0000000000000000e+00  3.4872098930988454e-01 1.8030325639905441e-02 0.0000000000000000e+00  2.3172233620990781e-01 6.0838295409505833e-02 0.0000000000000000e+00  1.8304902159324329e-01 3.4844885659442507e-02 0.0000000000000000e+00  2.3760092711700709e-01 5.9006121001848370e-02 0.0000000000000000e+00  3.3505872540065751e-01 1.0230191063610969e-01 0.0000000000000000e+00  3.3954205575240193e-01 1.4509254526814461e-01 0.0000000000000000e+00  3.7150909246321268e-01 1.1393258090112067e-01 0.0000000000000000e+00  2.6739803474320051e-01 3.8386887996235401e-02 0.0000000000000000e+00  2.6585039134463051e-01 3.3718975057972687e-02 0.0000000000000000e+00  3.3825391530934479e-01 2.5155737163559951e-02 0.0000000000000000e+00  1.8614533706664796e-01 2.0672785208664210e-02 0.0000000000000000e+00  1.1806063647186128e-01 1.2492879124224645e-02 0.0000000000000000e+00  6.7950444217616410e-02 1.6816574759383151e-02 0.0000000000000000e+00  3.1562903919040602e-01 2.5602551046186472e-02 0.0000000000000000e+00  2.8267768364819801e-01 -6.6245987927780929e-03 0.0000000000000000e+00  2.8486127743568307e-01 1.5516616402915523e-01 0.0000000000000000e+00  2.4521918589061922e-01 1.0100603822235404e-01 0.0000000000000000e+00  1.4693877550994527e-01 0.0000000000000000e+00 0.0000000000000000e+00  1.8922988429965246e-01 1.9126646031417602e-02 0.0000000000000000e+00  1.4402208775184822e-01 1.0786500326665897e-02 0.0000000000000000e+00  2.3708229108237155e-01 -4.2404861293929223e-02 0.0000000000000000e+00  2.4044146481086412e-01 -6.8296452046453376e-02 0.0000000000000000e+00  2.5695926037360795e-01 -3.7466452238108156e-02 0.0000000000000000e+00  1.4693877551058568e-01 0.0000000000000000e+00 0.0000000000000000e+00  7.9591836734909230e-02 0.0000000000000000e+00 0.0000000000000000e+00  1.1488862738208350e-01 -9.5079134234611791e-03 0.0000000000000000e+00  3.2632811695406194e-01 -3.1433617892202496e-02 0.0000000000000000e+00  3.5030211037043779e-01 -1.5097793556363922e-02 0.0000000000000000e+00  3.2936267541355291e-01 -2.7697735685568416e-02 0.0000000000000000e+00  0.0000000000000000e+00 0.0000000000000000e+00 0.0000000000000000e+00  0.0000000000000000e+00 0.0000000000000000e+00 0.0000000000000000e+00  4.0686828330159013e-02 7.9100450886352355e-02 0.0000000000000000e+00  2.6732419964410964e-01 -3.3171892449231487e-02 0.0000000000000000e+00  3.8049433119527093e-01 7.7194011877046137e-02 0.0000000000000000e+00  3.3853274861100896e-01 4.4136770683666018e-02 0.0000000000000000e+00  3.6267514719444233e-01 3.4222993984111522e-02 0.0000000000000000e+00  2.7551020408195548e-01 0.0000000000000000e+00 0.0000000000000000e+00  1.8288743241443961e-01 -2.1649783264757440e-02 0.0000000000000000e+00  2.0312256065093207e-01 -2.0130101523192560e-02 0.0000000000000000e+00  1.5953413954211723e-01 -1.5253275377941850e-02 0.0000000000000000e+00  2.6991508062226544e-01 -1.4299647066834148e-01 0.0000000000000000e+00  2.4362594497046428e-01 -1.2797945256589230e-01 0.0000000000000000e+00  2.4060131396858242e-01 -1.6604659706740960e-01 0.0000000000000000e+00  2.2164164647966231e-01 3.7064957479873345e-02 0.0000000000000000e+00  3.1444810082924063e-01 6.0461090830279812e-02 0.0000000000000000e+00  2.0204081632617479e-01 0.0000000000000000e+00 0.0000000000000000e+00  2.5323464805388102e-01 -1.9124889146128649e-01 0.0000000000000000e+00  2.6203367012757106e-01 8.9505043858541397e-02 0.0000000000000000e+00  2.5305175791026635e-01 1.0672165879409716e-01 0.0000000000000000e+00  2.6833042803104901e-01 1.1350282273325626e-01 0.0000000000000000e+00  2.1872806524487126e-01 -3.0082046637387012e-02 0.0000000000000000e+00  3.6650197042701621e-01 -1.0712764531300381e-01 0.0000000000000000e+00  3.3788508539715834e-01 -1.3091821012046773e-01 0.0000000000000000e+00  3.3045314601603931e-01 -9.3814611494733940e-02 0.0000000000000000e+00  2.2078807668709688e-01 3.9329932110344475e-02 0.0000000000000000e+00  2.3483383692461612e-01 2.4071105718333673e-02 0.0000000000000000e+00  0.0000000000000000e+00 0.0000000000000000e+00 0.0000000000000000e+00  0.0000000000000000e+00 0.0000000000000000e+00 0.0000000000000000e+00  1.7881846164631462e-01 2.2986148171734576e-02 0.0000000000000000e+00  3.0207268853871710e-01 -1.1669436563534331e-01 0.0000000000000000e+00  2.7549890625924967e-01 -1.0761023349935096e-01 0.0000000000000000e+00  2.7756239384044579e-01 -9.0693016793521916e-02 0.0000000000000000e+00  2.9203183523666432e-01 1.6138013941474821e-02 0.0000000000000000e+00  2.1261407374040336e-01 5.9405874828209540e-03 0.0000000000000000e+00  3.0288694109037423e-01 1.7762078488046205e-02 0.0000000000000000e+00  2.6076034452009872e-01 1.9408172998680259e-01 0.0000000000000000e+00  2.2036698523045475e-01 1.7989381345803135e-01 0.0000000000000000e+00  2.7553498129581699e-01 1.7391950329658212e-01 0.0000000000000000e+00  2.0024797735491418e-01 4.4460085831851855e-02 0.0000000000000000e+00  2.1080588188609969e-01 1.4260871378957199e-01 0.0000000000000000e+00  2.5276687001415005e-01 1.5389158455063337e-01 0.0000000000000000e+00  2.3695700255894137e-01 -3.8157489364726196e-02 0.0000000000000000e+00  2.1421522854185510e-01 -2.1291627676420861e-02 0.0000000000000000e+00  2.6534077739315848e-01 -3.9198808537847810e-02 0.0000000000000000e+00  3.3521374758237948e-01 1.3564484545621447e-01 0.0000000000000000e+00  3.0059306381556911e-01 1.0028746937684571e-01 0.0000000000000000e+00  3.4262863465203375e-01 1.1131828362074267e-01 0.0000000000000000e+00  2.0595907991353593e-01 -1.4071323828179119e-01 0.0000000000000000e+00  6.4480355042028634e-02 -1.6890492145934740e-02 0.0000000000000000e+00  1.0365486346480279e-01 -2.3127108789910044e-02 0.0000000000000000e+00  1.0873111571354513e-01 -2.8130425633568809e-02 0.0000000000000000e+00  3.5398641379129153e-01 1.1911978903814225e-02 0.0000000000000000e+00  2.6046961859587485e-02 -9.4899226401806668e-03 0.0000000000000000e+00  1.5632871929468758e-02 -4.2337411112644014e-03 0.0000000000000000e+00  7.5032970483932676e-03 -2.9067976629846234e-03 0.0000000000000000e+00  0.0000000000000000e+00 0.0000000000000000e+00 0.0000000000000000e+00  1.8508952198805328e-01 1.9296172103681480e-02 0.0000000000000000e+00  1.7155326618256053e-01 2.3135175507118751e-02 0.0000000000000000e+00  3.6060640524575688e-01 1.2109249823010813e-02 0.0000000000000000e+00  3.8090987850640479e-01 4.9557139571018101e-02 0.0000000000000000e+00  2.6982076552446310e-01 2.8981852699588903e-02 0.0000000000000000e+00  0.0000000000000000e+00 0.0000000000000000e+00 0.0000000000000000e+00  1.1334305975094572e-01 1.3050573959864123e-02 0.0000000000000000e+00  1.0433450725524245e-01 1.1675690984162152e-02 0.0000000000000000e+00  1.6265074175630370e-01 1.2790597314690330e-01 0.0000000000000000e+00  1.6718944377269701e-01 7.0880073424832393e-02 0.0000000000000000e+00  1.9741684394671841e-01 1.1235060168814218e-01 0.0000000000000000e+00  2.8448770309447458e-01 6.9468188618297608e-03 0.0000000000000000e+00  2.2937307031988255e-01 1.3167078946087788e-02 0.0000000000000000e+00  3.0122499640044137e-01 1.2026262125895916e-02 0.0000000000000000e+00  2.1555143196115692e-01 6.3634926718607364e-03 0.0000000000000000e+00  2.3448355887281369e-01 -7.7796319571540504e-04 0.0000000000000000e+00  0.0000000000000000e+00 0.0000000000000000e+00 0.0000000000000000e+00  2.5762375626846129e-01 7.6829477067433594e-02 0.0000000000000000e+00  0.0000000000000000e+00 0.0000000000000000e+00 0.0000000000000000e+00  2.5516186929471263e-01 -8.5429002156009771e-03 0.0000000000000000e+00  2.3994165775317136e-01 -4.7206209723473181e-03 0.0000000000000000e+00  1.6783254387512311e-01 -1.4475418782278595e-02 0.0000000000000000e+00  3.5520914291034950e-01 1.4529784019698702e-01 0.0000000000000000e+00  2.2939791633172214e-02 8.3019372016523273e-03 0.0000000000000000e+00  1.6731506541186936e-02 4.2957423061542304e-03 0.0000000000000000e+00  8.0944440581505548e-03 2.8954499724258126e-03 0.0000000000000000e+00  2.2923880320016227e-01 2.4930784083217378e-02 0.0000000000000000e+00  1.1810043438414551e-01 8.2181383334294866e-02 0.0000000000000000e+00  2.4778463151869715e-01 2.0537283752735579e-02 0.0000000000000000e+00  2.7629316129259396e-01 3.0827228903320548e-02 0.0000000000000000e+00  2.8917787571796422e-01 1.3555334039876762e-02 0.0000000000000000e+00  2.7700395048469095e-01 2.0998581293533464e-02 0.0000000000000000e+00  0.0000000000000000e+00 0.0000000000000000e+00 0.0000000000000000e+00  2.7162715699566797e-01 -8.5355725761870147e-03 0.0000000000000000e+00  1.9478031849028538e-01 -5.7995402631722008e-03 0.0000000000000000e+00  1.9200314094630025e-01 3.5362335079075768e-02 0.0000000000000000e+00  3.1036604456971834e-01 -2.3123546352115599e-02 0.0000000000000000e+00  3.2158427533378642e-01 -2.5254383898704106e-02 0.0000000000000000e+00  3.0779048148556959e-01 -1.7132344873778484e-02 0.0000000000000000e+00  2.7884054588033030e-01 1.4032092646721048e-01 0.0000000000000000e+00  2.8425433809876682e-01 1.1978615824801191e-01 0.0000000000000000e+00  3.2138111892132509e-01 -1.7869707948155015e-02 0.0000000000000000e+00  2.3067024835897940e-01 -8.0300034291415443e-03 0.0000000000000000e+00  6.1233696907581903e-03 -2.9921736551792224e-03 0.0000000000000000e+00  5.5252835091913243e-03 -3.0862211367285136e-03 0.0000000000000000e+00  -6.6408596292081722e-04 -5.8482681507589717e-04 0.0000000000000000e+00  0.0000000000000000e+00 0.0000000000000000e+00 0.0000000000000000e+00  0.0000000000000000e+00 0.0000000000000000e+00 0.0000000000000000e+00  2.0545082204999734e-01 -8.2035357253606944e-02 0.0000000000000000e+00  1.5350914990008685e-01 2.1822478384724044e-02 0.0000000000000000e+00  9.7795303944274645e-02 8.3685236921065241e-03 0.0000000000000000e+00  1.1141925862012167e-01 -1.5006432427412569e-02 0.0000000000000000e+00  1.4316707264872316e-01 -1.7953187464940880e-02 0.0000000000000000e+00  1.5401058779680149e-01 -2.3973141198630168e-02 0.0000000000000000e+00  3.0468634264016031e-01 1.2606419008735653e-01 0.0000000000000000e+00  5.7746167389202414e-02 -1.9999133836635780e-02 0.0000000000000000e+00  5.2785219631043982e-02 -1.8859205327438709e-02 0.0000000000000000e+00  2.4490199692598188e-02 -1.0098256834865390e-02 0.0000000000000000e+00  8.2741693590450388e-02 1.2049998863863035e-01 0.0000000000000000e+00  8.7126176131171202e-03 -3.5395351144809346e-03 0.0000000000000000e+00  1.8214973487322268e-04 1.0301317313560717e-03 0.0000000000000000e+00  6.7514264123411910e-02 1.7459388125530297e-02 0.0000000000000000e+00  1.0729739171767096e-01 2.3711763405106830e-02 0.0000000000000000e+00  1.1216293957560416e-01 2.9048061118043523e-02 0.0000000000000000e+00  1.2730474018589509e-02 -6.2000781899637005e-03 0.0000000000000000e+00  6.2239211406827574e-02 -2.0633142910158650e-02 0.0000000000000000e+00  2.7571483680313428e-02 -1.1263081564906054e-02 0.0000000000000000e+00  1.5310381130196354e-01 1.6678699826635118e-01 0.0000000000000000e+00  1.3184542396780061e-01 1.4874895096939408e-01 0.0000000000000000e+00  2.0489270849800204e-01 1.9101011094100850e-01 0.0000000000000000e+00  3.5041236271617149e-01 4.4055381508461521e-03 0.0000000000000000e+00  2.5655728367488817e-01 -3.9655438108228809e-02 0.0000000000000000e+00  2.3787426210309764e-01 2.9617818263314836e-02 0.0000000000000000e+00  1.6382177770443501e-01 3.5746809740225934e-02 0.0000000000000000e+00  1.2384730409196312e-01 3.0888645531204236e-02 0.0000000000000000e+00  7.0390095458444154e-03 3.4953548748654834e-03 0.0000000000000000e+00  5.8063330143024710e-03 3.0813694756108029e-03 0.0000000000000000e+00  -1.8827075756751264e-04 7.2873551587730083e-04 0.0000000000000000e+00  3.7331163843291842e-01 -7.7640990981156788e-02