<?xml version="1.0"?>
<VTKFile type="UnstructuredGrid"  version="0.1"  >
<UnstructuredGrid>
<Piece  NumberOfPoints="728" NumberOfCells="1368">
<Points>
<DataArray  type="Float64"  NumberOfComponents="3"  format="ascii">0.4207607463097617 0.19 0  0.4201487168029707 0.1999966199048527 0  0.4261685417851465 0.196409292431739 0  0.5626584888143201 0.21 0  0.5633122436674589 0.1999814296467508 0  0.5571672426447437 0.2036011176410121 0  0.4145905603061963 0.1961819304479011 0  0.4207607463087888 0.21 0  0.4145905603063645 0.2038180695522843 0  0.5626584888145268 0.19 0  0.5688286748170428 0.1961819304477386 0  0.5688286748170693 0.203818069552238 0  0.5571594006495384 0.1963685282145804 0  0.4262598344738712 0.2036568242185335 0  0.6 0.21 0  0.5925316977628483 0.21 0  0.5955705746706843 0.2069223055301326 0  0.6 0.19 0  0.5925316977628897 0.19 0  0.5965740209510578 0.1927759733278094 0  0.5887803774232762 0.2001272386983733 0  0.5815926498168407 0.1966545283159175 0  0.5814408164431408 0.2041285596160068 0  0.5850633955257988 0.19 0  0.5775950932887378 0.19 0  0.5893814947531364 0.2056233639521408 0  0.6 0.2 0  0.6 0.1950000000000217 0  0.594380730180568 0.1966558399668133 0  0.5745072403740523 0.2002044435018727 0  0.446899804139621 0.1999999999998389 0  0.4394315019025246 0.1970915826863714 0  0.4394608940728603 0.2040870543693135 0  0.3946216884789568 0.2000000000001512 0  0.4020059614928624 0.203547899597858 0  0.4019979587101454 0.1959834479682427 0  0.4618364086138087 0.1999999999998546 0  0.4543681063767183 0.1970915826863795 0  0.4543681063761134 0.2040749161535186 0  0.3796850840047755 0.200000000000134 0  0.3871533862418661 0.2029084173136212 0  0.3871533862424271 0.1959250838464788 0  0.476773013087985 0.1999999999998713 0  0.4693047108508938 0.1970915826863783 0  0.4693047108503577 0.2040749161535231 0  0.4917096175621762 0.1999999999998808 0  0.4842413153250809 0.1970915826863873 0  0.4842413153245942 0.2040749161535287 0  0.5066462220363641 0.199999999999908 0  0.4991779197992749 0.1970915826863902 0  0.4991779197988497 0.2040749161535382 0  0.5215828265105155 0.1999999999999228 0  0.5141145242734466 0.1970915826863843 0  0.5141145242731028 0.2040749161535395 0  0.5365194309847112 0.1999999999999436 0  0.5290511287476175 0.1970915826863981 0  0.5290511287473298 0.2040749161535501 0  0.5511891430099709 0.2001122610077113 0  0.5439877332217911 0.197091582686394 0  0.5439623148931173 0.2040856076781014 0  0.3722167817676917 0.2029084173136195 0  0.372246743208829 0.1959123236376545 0  0.4089549580935208 0.1998691686391595 0  0.4322718174608562 0.200127451265745 0  0.5327852798661811 0.19 0  0.5253169776290537 0.19 0  0.547721884340339 0.19 0  0.5402535821032429 0.19 0  0.3684826306491596 0.21 0  0.3759509328862226 0.21 0  0.4730388619694271 0.19 0  0.4655705597323621 0.19 0  0.5178486753919799 0.19 0  0.5103803731549078 0.19 0  0.4879754664436223 0.19 0  0.4805071642065402 0.19 0  0.502912070917822 0.19 0  0.4954437686807294 0.19 0  0.383419235123329 0.21 0  0.3908875373604028 0.21 0  0.4581022574952563 0.19 0  0.4506339552581777 0.19 0  0.3983558395975142 0.21 0  0.4058241418345938 0.21 0  0.4431656530210671 0.19 0  0.4356973507839815 0.19 0  0.5946539510196798 0.2024302972968126 0  0.4132924440726327 0.19 0  0.5701267910514778 0.21 0  0.5701267910515998 0.19 0  0.4132924440716992 0.21 0  0.574400031298126 0.1945411130107761 0  0.5887471324735476 0.1946190227059995 0  0.4282290485468779 0.19 0  0.5551901865771842 0.21 0  0.6 0.2050000000000054 0  0.4468998041387391 0.2056971942287257 0  0.3946216884797873 0.1943028057712679 0  0.4618364086130068 0.2056971942287359 0  0.3796850840055151 0.1943028057712579 0  0.4767730130872753 0.2056971942287455 0  0.4917096175615203 0.2056971942287492 0  0.5066462220358396 0.2056971942287649 0  0.5215828265100828 0.2056971942287677 0  0.5365194309843644 0.2056971942287865 0  0.5514560354586301 0.2056971942287897 0  0.4319631996644724 0.205697194228716 0  0.5551901865773963 0.19 0  0.4282290485459029 0.21 0  0.5743797868482748 0.2056178169806182 0  0.4090477820585017 0.1944069323162114 0  0.5365194309847112 0.1943028057711659 0  0.5215828265105155 0.1943028057711514 0  0.5511851248594936 0.1945772515115504 0  0.4767730130879849 0.1943028057711153 0  0.3796850840047754 0.2056971942288865 0  0.4618364086138088 0.1943028057711072 0  0.3946216884789569 0.2056971942288966 0  0.446899804139621 0.194302805771098 0  0.4917096175621761 0.1943028057711214 0  0.5066462220363641 0.1943028057711422 0  0.4322275012857285 0.1945847121082109 0  0.409279320968396 0.2055930218740123 0  0.480507164205851 0.21 0  0.4879754664429498 0.21 0  0.4655705597315852 0.21 0  0.4730388619686996 0.21 0  0.3908875373612097 0.19 0  0.3834192351240934 0.19 0  0.5103803731544119 0.21 0  0.5178486753915261 0.21 0  0.5402535821029386 0.21 0  0.54772188434007 0.21 0  0.4506339552573136 0.21 0  0.4581022574944306 0.21 0  0.4954437686800938 0.21 0  0.502912070917267 0.21 0  0.4058241418354857 0.19 0  0.3983558395983636 0.19 0  0.4356973507830418 0.21 0  0.4431656530201649 0.21 0  0.5253169776286404 0.21 0  0.5327852798657868 0.21 0  0.5775950932886138 0.21 0  0.5850633955257281 0.21 0  0.3759509328869369 0.19 0  1.835188936345112 0.2050000000000699 0  1.838465412967181 0.2953145553852501 0  1.915883512473161 0.2050000000000692 0  1.833166318986108 0.1007828475280248 0  2.383594446803656 0.41 0  2.271253957291315 0.41 0  2.346386298105263 0.3062476289039515 0  0.6300528284996487 0.2292604486710743 0  0.65429728832161 0.2353880751391984 0  0.6456429596876728 0.2209784072651823 0  0.6244559818022579 0.1024805481876779 0  0.6331542554485198 0.1311064488920115 0  0.604876951083344 0.1323679928240978 0  0.5950070799606315 0.1111116928105405 0  0.7179098792074922 0.09515556231434774 0  0.6930564374308674 0.1341308449452096 0  0.6808979566904864 0.09264351137968369 0  1.943162250261133 0.2848182236928814 0  1.943162250261127 0.1251817763071746 0  2.244824738199097 0.3091885999356265 0  0.5022733717445609 0.2484520140959261 0  0.5039200503329727 0.2634569969024956 0  0.4870587955368383 0.2511092200731516 0  0.4543681063767173 0.1676928600783137 0  0.4456512193123995 0.1563006663224736 0  0.4634554111966759 0.156587601803556 0  0.4619845553363554 0.2471559623297018 0  0.4744155700740079 0.2566595549135983 0  0.4718174066442032 0.2448602332187449 0  0.401463131821351 0.2240614152536154 0  0.4020899907160548 0.2165302463955136 0  0.3946216884789568 0.2158195727016258 0  0.5019588293971892 0.1448324961346233 0  0.5202014138752529 0.1378594850692911 0  0.5186581766834214 0.1505504706653799 0  0.5805147821309363 0.1750906865638377 0  0.5830971905392573 0.1610562557540074 0  0.5891905322413319 0.173297484523883 0  1.317087908068179 0.2834507950760127 0  1.416789257258389 0.3075294577736497 0  1.357724299039236 0.2303555143487852 0  2.383594446803425 0 0  2.301748441448983 0.1032848369023014 0  2.415100580332905 0.08367007402675902 0  0.883612004374276 0.2044999257790265 0  0.941405262964606 0.2275541950732263 0  0.8724873572796065 0.2505182730032114 0  0.6580228992389956 0.1177787934340178 0  0.6385847074107548 0.1562173919888177 0  0.6641520523959832 0.1503720468916702 0  1.674965418778818 0.41 0  1.58737143976041 0.41 0  1.617304647871871 0.3102553946317155 0  1.587371439758838 0 0  1.674965418777374 0 0  1.627799041349754 0.08170835291169204 0  0.4991779197992711 0.167693385507626 0  0.4900906149793102 0.1565876018036352 0  0.5082652246192162 0.1565876018036352 0  0.4319631996644723 0.2259854221051505 0  0.4420138570927455 0.2303582032589531 0  0.4274409436629797 0.2358490737568498 0  1.122434100544716 0.41 0  1.068894913355815 0.339699543595371 0  1.154144739340952 0.3428674566149401 0  0.9084404882614506 0.2892191224003848 0  1.215451113850732 0.2103314603357224 0  1.249863529963017 0.2672258935273379 0  1.176331347569866 0.2754551993599315 0  0.5740383564454857 0.232486177523615 0  0.5800331369475803 0.2220172718503647 0  0.5872716114964233 0.2289047791562547 0  0.7101078070491313 0.04593780015520291 0  0.7273492824638629 0.1308306999820452 0  2.01253088870001 0.2050000000000507 0  0.6699818017210338 0.05718888729500279 0  0.589683001657349 0.3059206033515077 0  0.629251049118315 0.3129131677620721 0  0.6129037791821019 0.2898142990521698 0  0.5669464924360815 0.2475839849813879 0  0.5841951273902199 0.2421589553533847 0  0.5209814004512184 0.2362962593649592 0  0.5347760817351684 0.2414500964404198 0  0.5183393333239584 0.2464065549333135 0  0.5461387848636305 0.1174764669537213 0  0.5361687701469152 0.1326608756097835 0  0.5197325460646487 0.1214075108099659 0  0.5857082964501902 0.1444062384003248 0  0.5690392421172527 0.1384821647678796 0  0.5733051421814971 0.1505504706653721 0  0.9882218810956305 0.41 0  0.9246101326886647 0.41 0  0.9513232956593279 0.344238796639219 0  0.5166834276845828 0.2571581640138182 0  0.596265848881445 0.1672046255295837 0  1.419591277297145 0.2050000000000071 0  0.4421897352483806 0.3061937447056332 0  0.418091171977014 0.3243162836372635 0  0.412607471649106 0.2990503898016255 0  0.8632198139519631 0.41 0  0.882513772872486 0.3520608410452225 0  0.8202234869765325 0.364591028094237 0  1.421253448505726 0.41 0  1.355827918100823 0.3414955155607449 0  1.421253448503939 0 0  1.418271536314166 0.09353562972960013 0  1.355827918100725 0.06850448443910542 0  0.7991030424147842 0.1996369747921017 0  0.755404159289092 0.1590232243285952 0  0.7509674852354215 0.2077605643765068 0  0.4953767731769588 0.1188694761679334 0  0.506255180108809 0.1312411055441881 0  0.4787056372270673 0.2371901345199761 0  0.4898985359610427 0.2395108277223441 0  0.8502354418587501 0.1560244879407868 0  0.9215858179635137 0.1737964996919513 0  0.4302139512950107 0.2879708289588951 0  0.9080221499231149 0.1220333110997775 0  0.3909674209965625 0.2226356941037057 0  1.122434100542598 0 0  1.070453094842314 0.06960241275844714 0  1.154904552424504 0.06969164993518225 0  0.5678918321244223 0.2848057098346606 0  0.5916500
[...]
<PointData  Vectors="u"> 
<DataArray  type="Float64"  Name="u"  NumberOfComponents="3" format="ascii">1.3661126555347931e-05 2.1817121239314125e-06 0.0000000000000000e+00  1.4791041809133288e-05 1.6982581786516083e-06 0.0000000000000000e+00  1.4756942198862413e-05 1.1431259288201822e-06 0.0000000000000000e+00  2.3640969446785774e-05 -2.6154693645473942e-05 0.0000000000000000e+00  2.1334421030856520e-05 -2.6077532971908697e-05 0.0000000000000000e+00  2.2039421689401849e-05 -2.4769780009336248e-05 0.0000000000000000e+00  1.3971832744135046e-05 2.5814257131819668e-06 0.0000000000000000e+00  1.6086293470657323e-05 9.5727392731690520e-07 0.0000000000000000e+00  1.4816565380052561e-05 2.1029781373068434e-06 0.0000000000000000e+00  1.9107716174002418e-05 -2.5711302512077679e-05 0.0000000000000000e+00  2.0571638566826370e-05 -2.7256196048450008e-05 0.0000000000000000e+00  2.2305455140712178e-05 -2.7409975155292336e-05 0.0000000000000000e+00  2.0405738448184954e-05 -2.4595349236841019e-05 0.0000000000000000e+00  1.5701139856605237e-05 6.9688860727497921e-07 0.0000000000000000e+00  2.4191848238098846e-05 -3.4696224991218521e-05 0.0000000000000000e+00  2.4043282259009344e-05 -3.2857391398252168e-05 0.0000000000000000e+00  2.3302865391684516e-05 -3.3505926544946817e-05 0.0000000000000000e+00  1.9621108302123614e-05 -3.4200897498464956e-05 0.0000000000000000e+00  1.9481827790706843e-05 -3.2622514069253339e-05 0.0000000000000000e+00  2.0086191176967134e-05 -3.3575571823792455e-05 0.0000000000000000e+00  2.1665377695321335e-05 -3.1883826076961982e-05 0.0000000000000000e+00  2.0836176647221202e-05 -3.0192226192721903e-05 0.0000000000000000e+00  2.2540976196124357e-05 -3.0269717170689935e-05 0.0000000000000000e+00  1.9400147436758969e-05 -3.0895719128042150e-05 0.0000000000000000e+00  1.9323369617826042e-05 -2.9161156401274087e-05 0.0000000000000000e+00  2.2954735942330891e-05 -3.2079259746359386e-05 0.0000000000000000e+00  2.1657116466911086e-05 -3.4444136630010980e-05 0.0000000000000000e+00  2.0564559168913122e-05 -3.4329507440791402e-05 0.0000000000000000e+00  2.0895173922523717e-05 -3.3129581917279074e-05 0.0000000000000000e+00  2.1559405026452560e-05 -2.8629866217481549e-05 0.0000000000000000e+00  1.6584831627704884e-05 -2.1078166181680330e-06 0.0000000000000000e+00  1.5679940394230782e-05 -7.8147080985387416e-07 0.0000000000000000e+00  1.6725490990819477e-05 -1.1855445755354014e-06 0.0000000000000000e+00  1.2861362005905857e-05 4.2458861198064385e-06 0.0000000000000000e+00  1.3759543047440437e-05 3.3895341272421525e-06 0.0000000000000000e+00  1.3089446050565522e-05 3.8837087403451402e-06 0.0000000000000000e+00  1.7477732542408228e-05 -4.6459625090387851e-06 0.0000000000000000e+00  1.6557216849857485e-05 -3.1942408161068961e-06 0.0000000000000000e+00  1.7731455267200407e-05 -3.5658193847099337e-06 0.0000000000000000e+00  1.1642222102771318e-05 5.1723365152729310e-06 0.0000000000000000e+00  1.2439833652668177e-05 4.5586656296984649e-06 0.0000000000000000e+00  1.2016327285255424e-05 5.0327173246972494e-06 0.0000000000000000e+00  1.8290296029611847e-05 -7.4208401526659366e-06 0.0000000000000000e+00  1.7363895821645792e-05 -5.8674629850842840e-06 0.0000000000000000e+00  1.8649458219188179e-05 -6.2109812099341370e-06 0.0000000000000000e+00  1.9020961303852134e-05 -1.0387004516346829e-05 0.0000000000000000e+00  1.8098029812769581e-05 -8.7546503503454894e-06 0.0000000000000000e+00  1.9474193311821923e-05 -9.0695618331687005e-06 0.0000000000000000e+00  1.9668350070867716e-05 -1.3502220376420912e-05 0.0000000000000000e+00  1.8757617843802910e-05 -1.1811778636782332e-05 0.0000000000000000e+00  2.0205018225124962e-05 -1.2097613154415077e-05 0.0000000000000000e+00  2.0231072856416771e-05 -1.6728665235036991e-05 0.0000000000000000e+00  1.9340501830307101e-05 -1.4998715773764284e-05 0.0000000000000000e+00  2.0841724880407278e-05 -1.5255000368739182e-05 0.0000000000000000e+00  2.0707508171780799e-05 -2.0033749599514699e-05 0.0000000000000000e+00  1.9844238767137242e-05 -1.8280224267056346e-05 0.0000000000000000e+00  2.1384212578429571e-05 -1.8506389858692453e-05 0.0000000000000000e+00  2.1114660572902620e-05 -2.3333207561455072e-05 0.0000000000000000e+00  2.0265927963077995e-05 -2.1626639467293936e-05 0.0000000000000000e+00  2.1833929396758873e-05 -2.1816526759514635e-05 0.0000000000000000e+00  1.1106630551299739e-05 5.2570796750222991e-06 0.0000000000000000e+00  1.0886032746964441e-05 5.7500866451041283e-06 0.0000000000000000e+00  1.3956985418605195e-05 2.9661954990825827e-06 0.0000000000000000e+00  1.5652067004297647e-05 9.5769857512560495e-08 0.0000000000000000e+00  1.8427899748400590e-05 -1.8899112699704532e-05 0.0000000000000000e+00  1.8211880915050417e-05 -1.7226647429948344e-05 0.0000000000000000e+00  1.8806321661650700e-05 -2.2286075190597773e-05 0.0000000000000000e+00  1.8626378373124710e-05 -2.0586639564663734e-05 0.0000000000000000e+00  1.0967886210137391e-05 4.7925493154042038e-06 0.0000000000000000e+00  1.1754161558945112e-05 4.5630367239657358e-06 0.0000000000000000e+00  1.6260903721537959e-05 -6.2597759537161173e-06 0.0000000000000000e+00  1.5926244928429002e-05 -4.8551218922848899e-06 0.0000000000000000e+00  1.7978848579666787e-05 -1.5572272370896093e-05 0.0000000000000000e+00  1.7729674088067028e-05 -1.3939970030016927e-05 0.0000000000000000e+00  1.6890741811840886e-05 -9.2163461410587711e-06 0.0000000000000000e+00  1.6582583682019761e-05 -7.7155012826060498e-06 0.0000000000000000e+00  1.7464815320861159e-05 -1.2333452112849197e-05 0.0000000000000000e+00  1.7185037502230321e-05 -1.0757471755110878e-05 0.0000000000000000e+00  1.2525977098175583e-05 4.2238965464177561e-06 0.0000000000000000e+00  1.3280207709878175e-05 3.7763604254781407e-06 0.0000000000000000e+00  1.5578865271905621e-05 -3.5067572885847959e-06 0.0000000000000000e+00  1.5219175498587674e-05 -2.2209814160812092e-06 0.0000000000000000e+00  1.4015273605571099e-05 3.2224266124579181e-06 0.0000000000000000e+00  1.4728888802314161e-05 2.5653300517111224e-06 0.0000000000000000e+00  1.4847349959234367e-05 -1.0031981102272817e-06 0.0000000000000000e+00  1.4463631968288124e-05 1.4023654505972925e-07 0.0000000000000000e+00  2.2206100253907840e-05 -3.3248114612170887e-05 0.0000000000000000e+00  1.3241945790718552e-05 3.0684471398915857e-06 0.0000000000000000e+00  2.3772738794230059e-05 -2.7828267184970968e-05 0.0000000000000000e+00  1.9226823229833761e-05 -2.7433439268597587e-05 0.0000000000000000e+00  1.5419814326068890e-05 1.8086580631358363e-06 0.0000000000000000e+00  2.0284789469249520e-05 -2.8503074035778936e-05 0.0000000000000000e+00  2.0438912831256062e-05 -3.1815980828175866e-05 0.0000000000000000e+00  1.4068146787562878e-05 1.2039008843360638e-06 0.0000000000000000e+00  2.3483400364589062e-05 -2.4485181848334924e-05 0.0000000000000000e+00  2.2844465146976431e-05 -3.4562472758165615e-05 0.0000000000000000e+00  1.7502135189878636e-05 -2.4331672421492631e-06 0.0000000000000000e+00  1.2444331238351448e-05 4.6080885774267508e-06 0.0000000000000000e+00  1.8494769114083567e-05 -4.9469336942694857e-06 0.0000000000000000e+00  1.1386477836386477e-05 5.5506371145349348e-06 0.0000000000000000e+00  1.9389760903518274e-05 -7.6969759096480004e-06 0.0000000000000000e+00  2.0186385457306237e-05 -1.0638010868132295e-05 0.0000000000000000e+00  2.0884656938417838e-05 -1.3727883564954175e-05 0.0000000000000000e+00  2.1484981694139875e-05 -1.6928762313481296e-05 0.0000000000000000e+00  2.1987796819757160e-05 -2.0207960962688578e-05 0.0000000000000000e+00  2.2393183913053427e-05 -2.3538399647129054e-05 0.0000000000000000e+00  1.6413700160551265e-05 -2.0243790597923073e-07 0.0000000000000000e+00  1.8967136855301678e-05 -2.3995064292140926e-05 0.0000000000000000e+00  1.6728060540396162e-05 1.5736915528460583e-08 0.0000000000000000e+00  2.2804986586158940e-05 -2.8700017820179665e-05 0.0000000000000000e+00  1.3422493226363155e-05 3.2878507156768707e-06 0.0000000000000000e+00  1.9456739356658896e-05 -1.9865047331120025e-05 0.0000000000000000e+00  1.9006153682021455e-05 -1.6536667248572125e-05 0.0000000000000000e+00  1.9882500527952263e-05 -2.3191555398564147e-05 0.0000000000000000e+00  1.7218561550211354e-05 -7.1635415829491601e-06 0.0000000000000000e+00  1.1918695752404672e-05 4.7523555399591337e-06 0.0000000000000000e+00  1.6487934755486153e-05 -4.3681136394761271e-06 0.0000000000000000e+00  1.3301002739948668e-05 3.8434286136675389e-06 0.0000000000000000e+00  1.5694153073587842e-05 -1.8099867210571134e-06 0.0000000000000000e+00  1.7883691346566236e-05 -1.0150827615103373e-05 0.0000000000000000e+00  1.8480599142032431e-05 -1.3287780292485000e-05 0.0000000000000000e+00  1.4892792242504309e-05 4.1137685913360733e-07 0.0000000000000000e+00  1.4574655379740848e-05 2.5489844133124723e-06 0.0000000000000000e+00  2.0464430495910318e-05 -8.6317648842404034e-06 0.0000000000000000e+00  2.0887610723551322e-05 -1.0092110018201154e-05 0.0000000000000000e+00  1.9534870306930208e-05 -5.8514638985215918e-06 0.0000000000000000e+00  2.0013546381226568e-05 -7.2163722156338531e-06 0.0000000000000000e+00  1.1913040439455366e-05 5.1345531549083353e-06 0.0000000000000000e+00  1.1445139570305982e-05 5.6117506336694315e-06 0.0000000000000000e+00  2.1992551336533077e-05 -1.4691675787897551e-05 0.0000000000000000e+00  2.2306784013275555e-05 -1.6281938709404799e-05 0.0000000000000000e+00  2.3090771488544240e-05 -2.1166764145663514e-05 0.0000000000000000e+00  2.3299991778464894e-05 -2.2821690853791567e-05 0.0000000000000000e+00  1.8494199691757240e-05 -3.2957119959408656e-06 0.0000000000000000e+00  1.9028378008050518e-05 -4.5426434850331846e-06 0.0000000000000000e+00  2.1283200625961095e-05 -1.1592175726914840e-05 0.0000000000000000e+00  2.1651448315941740e-05 -1.3126944511960745e-05 0.0000000000000000e+00  1.2811098985174778e-05 3.8592650671061612e-06 0.0000000000000000e+00  1.2368220533676194e-05 4.5492824257030897e-06 0.0000000000000000e+00  1.7343656726572114e-05 -1.0107710513633791e-06 0.0000000000000000e+00  1.7932493569112475e-05 -2.1164832091671500e-06 0.0000000000000000e+00  2.2594384246286154e-05 -1.7893660495713115e-05 0.0000000000000000e+00  2.2855640597314635e-05 -1.9523058066848021e-05 0.0000000000000000e+00  2.3878117843216458e-05 -2.9503086086857652e-05 0.0000000000000000e+00  2.3960740568719464e-05 -3.1175533333597377e-05 0.0000000000000000e+00  1.0964168833337790e-05 5.9784795845833695e-06 0.0000000000000000e+00  1.9935539283571466e-01 -7.3999708091605554e-05 0.0000000000000000e+00  1.9113031582777432e-01 8.0469454392997203e-04 0.0000000000000000e+00  2.0017006924780664e-01 -5.9626472785796008e-05 0.0000000000000000e+00  1.9064208556966991e-01 -6.8900501240593036e-04 0.0000000000000000e+00  0.0000000000000000e+00 0.0000000000000000e+00 0.0000000000000000e+00  0.0000000000000000e+00 0.0000000000000000e+00 0.0000000000000000e+00  1.9032309732823055e-01 1.9710332382247750e-03 0.0000000000000000e+00  1.4028834289227879e-01 -3.4943961440303192e-02 0.0000000000000000e+00  1.6007021080377248e-01 -3.0086549469004801e-02 0.0000000000000000e+00  1.2114466702060113e-01 -2.6463201800635001e-02 0.0000000000000000e+00  2.2918911136246983e-01 1.5859613763187001e-02 0.0000000000000000e+00  2.1677002294401937e-01 2.4043162794814426e-02 0.0000000000000000e+00  2.2311204398356863e-01 1.9159333076215895e-02 0.0000000000000000e+00  2.3430269695259986e-01 1.3722773627176306e-02 0.0000000000000000e+00  2.0827963016636014e-01 1.1850518942796344e-02 0.0000000000000000e+00  2.0093209820396127e-01 2.0849941862250327e-02 0.0000000000000000e+00  2.1487592329906344e-01 1.3856173506213766e-02 0.0000000000000000e+00  1.9722069881616469e-01 4.0095236260005485e-05 0.0000000000000000e+00  1.9676046660779251e-01 -3.3463734576582113e-05 0.0000000000000000e+00  1.9396700668811906e-01 -4.9602763405925260e-04 0.0000000000000000e+00  1.8861938685585020e-01 -2.7726559993178474e-03 0.0000000000000000e+00  2.1628050111435704e-01 -4.2359619552050911e-03 0.0000000000000000e+00  1.9311853638830026e-01 -2.9721031672448675e-03 0.0000000000000000e+00  1.3335987512128358e-01 1.0584568047076058e-03 0.0000000000000000e+00  1.7085808428087490e-01 2.5915413119534259e-03 0.0000000000000000e+00  1.7216336979801267e-01 1.9786498409069308e-03 0.0000000000000000e+00  1.8109814298918764e-01 -2.9849088426552881e-03 0.0000000000000000e+00  2.0268379035025152e-01 -3.7637871082042314e-03 0.0000000000000000e+00  1.7636048064501983e-01 -2.4692902680984140e-03 0.0000000000000000e+00  8.8164154300119202e-02 -1.3229653019406679e-03 0.0000000000000000e+00  4.5866736463279850e-02 -3.1072240613576297e-04 0.0000000000000000e+00  4.0692299432254581e-02 -2.8173155936155893e-04 0.0000000000000000e+00  2.0297784843863564e-01 2.8057843273981259e-03 0.0000000000000000e+00  2.1575714015776085e-01 3.9270558074451702e-03 0.0000000000000000e+00  1.9263119682216923e-01 2.7814693443830420e-03 0.0000000000000000e+00  1.1455180730019231e-01 4.7129541215920109e-03 0.0000000000000000e+00  1.7467010438217725e-01 1.0987741406871540e-02 0.0000000000000000e+00  1.2861145168089197e-01 9.8226189008690755e-03 0.0000000000000000e+00  1.9754212129919332e-01 -7.8831829866457323e-06 0.0000000000000000e+00  1.9087434909407444e-01 2.8313969915853907e-04 0.0000000000000000e+00  1.9961823550589886e-01 1.3011859274071269e-04 0.0000000000000000e+00  0.0000000000000000e+00 0.0000000000000000e+00 0.0000000000000000e+00  1.8802337985663883e-01 -1.9460002129092238e-04 0.0000000000000000e+00  1.8909088389608242e-01 -3.2494390407985332e-03 0.0000000000000000e+00  1.9479235002972942e-01 -8.9431276288058387e-04 0.0000000000000000e+00  1.9805430079188951e-01 -1.2947528100806292e-03 0.0000000000000000e+00  1.9753767925111335e-01 -3.7387730607945030e-03 0.0000000000000000e+00  2.1787657968402446e-01 2.0865819681678912e-02 0.0000000000000000e+00  1.7852976147093072e-01 3.1819107251771755e-02 0.0000000000000000e+00  1.8597278187589142e-01 2.7298460250071703e-02 0.0000000000000000e+00  0.0000000000000000e+00 0.0000000000000000e+00 0.0000000000000000e+00  0.0000000000000000e+00 0.0000000000000000e+00 0.0000000000000000e+00  1.8777403376622120e-01 -7.5169254781579174e-05 0.0000000000000000e+00  0.0000000000000000e+00 0.0000000000000000e+00 0.0000000000000000e+00  0.0000000000000000e+00 0.0000000000000000e+00 0.0000000000000000e+00  1.8421834545166277e-01 6.3118959908421007e-05 0.0000000000000000e+00  1.3681067927164417e-01 8.8067558369771639e-04 0.0000000000000000e+00  1.7464679402738120e-01 1.7062732043223543e-03 0.0000000000000000e+00  1.7621029413763017e-01 1.9051730207403986e-03 0.0000000000000000e+00  1.0194797271350910e-01 -1.0102407616051489e-03 0.0000000000000000e+00  1.2314054720890348e-01 -1.3566743625798539e-03 0.0000000000000000e+00  1.4238245619614040e-01 -2.5709602220936904e-03 0.0000000000000000e+00  0.0000000000000000e+00 0.0000000000000000e+00 0.0000000000000000e+00  1.7965865531267888e-01 -2.6262600437340557e-04 0.0000000000000000e+00  1.7881951145997918e-01 8.2909844516552530e-05 0.0000000000000000e+00  1.9888399343577279e-01 -2.4612644195891316e-03 0.0000000000000000e+00  1.9995610882961165e-01 -6.9492062704271413e-05 0.0000000000000000e+00  1.9847481797566480e-01 1.4454088461562500e-04 0.0000000000000000e+00  1.9850749787695229e-01 -4.6180799750617993e-05 0.0000000000000000e+00  1.4925955778660549e-01 -6.1782178203983384e-03 0.0000000000000000e+00  9.7406970561770168e-02 -3.4109837529069176e-03 0.0000000000000000e+00  1.3885350889535025e-01 -9.9079079760344812e-03 0.0000000000000000e+00  1.6967333960483308e-01 4.2290811347915217e-03 0.0000000000000000e+00  1.9988594052790115e-01 1.5413103601283940e-02 0.0000000000000000e+00  1.9919509253263457e-01 1.0383305945730225e-04 0.0000000000000000e+00  1.9400091492172791e-01 7.0391691975621729e-03 0.0000000000000000e+00  2.3774713946953233e-01 -1.1560413052666198e-02 0.0000000000000000e+00  2.2961517001534043e-01 -1.3724779999935483e-02 0.0000000000000000e+00  2.3335961492291951e-01 -1.7164571742643485e-02 0.0000000000000000e+00  1.9488827879928422e-01 -8.2256678962399563e-03 0.0000000000000000e+00  1.8474614551000973e-01 -1.2573823187406718e-02 0.0000000000000000e+00  1.5434537793292022e-01 -1.9344387905920022e-03 0.0000000000000000e+00  1.7328299057921093e-01 -3.1673717406625447e-03 0.0000000000000000e+00  1.8521573319113976e-01 -2.9604113210824610e-03 0.0000000000000000e+00  2.3506946665256717e-01 6.8739663217581466e-03 0.0000000000000000e+00  2.2330945661020088e-01 5.3764391345431295e-03 0.0000000000000000e+00  2.3218457652930288e-01 4.8478718357844140e-03 0.0000000000000000e+00  2.1135134450902079e-01 1.4131355566856832e-02 0.0000000000000000e+00  2.1866894310493531e-01 9.7711611175685699e-03 0.0000000000000000e+00  1.9946224619497746e-01 9.6094321653275201e-03 0.0000000000000000e+00  0.0000000000000000e+00 0.0000000000000000e+00 0.0000000000000000e+00  0.0000000000000000e+00 0.0000000000000000e+00 0.0000000000000000e+00  1.7808151676444409e-01 -5.5851453378500076e-04 0.0000000000000000e+00  2.0776496273449568e-01 -4.0093552658355125e-03 0.0000000000000000e+00  1.5733788213558844e-01 1.8040421190363868e-02 0.0000000000000000e+00  1.9979467624105632e-01 2.0130210024305354e-04 0.0000000000000000e+00  2.4389379482423926e-01 -8.9743216674296866e-03 0.0000000000000000e+00  2.4674809861592212e-01 -1.0242842581493095e-02 0.0000000000000000e+00  2.4186437965708946e-01 -1.3033388222934065e-02 0.0000000000000000e+00  0.0000000000000000e+00 0.0000000000000000e+00 0.0000000000000000e+00  1.7320055857222555e-01 -1.1698133404954400e-03 0.0000000000000000e+00  1.5989583229705007e-01 -1.3481920799069136e-03 0.0000000000000000e+00  0.0000000000000000e+00 0.0000000000000000e+00 0.0000000000000000e+00  1.7987809363365981e-01 -5.7592243887539889e-04 0.0000000000000000e+00  0.0000000000000000e+00 0.0000000000000000e+00 0.0000000000000000e+00  1.8933306384212664e-01 -3.0875891637658194e-04 0.0000000000000000e+00  1.8005871574299592e-01 2.9036616099424839e-04 0.0000000000000000e+00  1.8352727197245988e-01 -5.4580939821558070e-04 0.0000000000000000e+00  1.8551429630659272e-01 1.0492387247619412e-02 0.0000000000000000e+00  1.7133116544247518e-01 -3.4261276978942885e-03 0.0000000000000000e+00  2.3289383739450620e-01 4.4513293573963230e-03 0.0000000000000000e+00  2.2296779108426901e-01 3.8918676024432570e-03 0.0000000000000000e+00  1.5352241345498546e-01 -1.5904721605321662e-03 0.0000000000000000e+00  1.6239434224780219e-01 -1.7829654242976678e-03 0.0000000000000000e+00  1.9501825174247606e-01 3.2803211819219832e-03 0.0000000000000000e+00  1.9709850616917332e-01 6.1340865223665636e-04 0.0000000000000000e+00  2.3469285799467249e-01 -1.0290772309366527e-02 0.0000000000000000e+00  1.9743413653377576e-01 1.5749374262089477e-03 0.0000000000000000e+00  7.9102921394916384e-02 -1.2995747931833855e-03 0.0000000000000000e+00  0.0000000000000000e+00 0.0000000000000000e+00 0.0000000000000000e+00  1.7902899487198182e-01 2.3992874461899327e-04 0.0000000000000000e+00  1.8038068678780322e-01 -1.1412602815598440e-04 0.0000000000000000e+00  2.3705141189061779e-01 -1.0465454240121153e-02 0.0000000000000000e+00  2.3401054803145360e-01 -1.4936169355282441e-02 0.0000000000000000e+00  2.1305775440631319e-01 -1.3253169763252564e-02 0.0000000000000000e+00  2.1985683425328856e-01 -8.5988063441187756e-03 0.0000000000000000e+00  1.9274694924876548e-01 -2.8372522253384269e-02 0.0000000000000000e+00  1.9758705634775092e-01 -3.0059879486466656e-02 0.0000000000000000e+00  2.2681055383399693e-01 -6.4504804459755193e-03 0.0000000000000000e+00  2.3681292799732281e-01 -8.0568296260552438e-03 0.0000000000000000e+00  2.1942674583918229e-01 5.2593810471465302e-03 0.0000000000000000e+00  1.8245579320742139e-01 3.6649958805144824e-03 0.0000000000000000e+00  2.4361313704232693e-01 1.1602810196406858e-02 0.0000000000000000e+00  2.2201345255257274e-01 -4.7983325497730576e-03 0.0000000000000000e+00  1.5961048308691059e-01 5.5652634417156262e-05 0.0000000000000000e+00  2.3859465069654814e-01 -6.0146199570671119e-03 0.000000