<?xml version="1.0"?>
<VTKFile type="UnstructuredGrid"  version="0.1"  >
<UnstructuredGrid>
<Piece  NumberOfPoints="728" NumberOfCells="1368">
<Points>
<DataArray  type="Float64"  NumberOfComponents="3"  format="ascii">0.4207607463097617 0.19 0  0.4201487168029707 0.1999966199048527 0  0.4261685417851465 0.196409292431739 0  0.5626584888143201 0.21 0  0.5633122436674589 0.1999814296467508 0  0.5571672426447437 0.2036011176410121 0  0.4145905603061963 0.1961819304479011 0  0.4207607463087888 0.21 0  0.4145905603063645 0.2038180695522843 0  0.5626584888145268 0.19 0  0.5688286748170428 0.1961819304477386 0  0.5688286748170693 0.203818069552238 0  0.5571594006495384 0.1963685282145804 0  0.4262598344738712 0.2036568242185335 0  0.6 0.21 0  0.5925316977628483 0.21 0  0.5955705746706843 0.2069223055301326 0  0.6 0.19 0  0.5925316977628897 0.19 0  0.5965740209510578 0.1927759733278094 0  0.5887803774232762 0.2001272386983733 0  0.5815926498168407 0.1966545283159175 0  0.5814408164431408 0.2041285596160068 0  0.5850633955257988 0.19 0  0.5775950932887378 0.19 0  0.5893814947531364 0.2056233639521408 0  0.6 0.2 0  0.6 0.1950000000000217 0  0.594380730180568 0.1966558399668133 0  0.5745072403740523 0.2002044435018727 0  0.446899804139621 0.1999999999998389 0  0.4394315019025246 0.1970915826863714 0  0.4394608940728603 0.2040870543693135 0  0.3946216884789568 0.2000000000001512 0  0.4020059614928624 0.203547899597858 0  0.4019979587101454 0.1959834479682427 0  0.4618364086138087 0.1999999999998546 0  0.4543681063767183 0.1970915826863795 0  0.4543681063761134 0.2040749161535186 0  0.3796850840047755 0.200000000000134 0  0.3871533862418661 0.2029084173136212 0  0.3871533862424271 0.1959250838464788 0  0.476773013087985 0.1999999999998713 0  0.4693047108508938 0.1970915826863783 0  0.4693047108503577 0.2040749161535231 0  0.4917096175621762 0.1999999999998808 0  0.4842413153250809 0.1970915826863873 0  0.4842413153245942 0.2040749161535287 0  0.5066462220363641 0.199999999999908 0  0.4991779197992749 0.1970915826863902 0  0.4991779197988497 0.2040749161535382 0  0.5215828265105155 0.1999999999999228 0  0.5141145242734466 0.1970915826863843 0  0.5141145242731028 0.2040749161535395 0  0.5365194309847112 0.1999999999999436 0  0.5290511287476175 0.1970915826863981 0  0.5290511287473298 0.2040749161535501 0  0.5511891430099709 0.2001122610077113 0  0.5439877332217911 0.197091582686394 0  0.5439623148931173 0.2040856076781014 0  0.3722167817676917 0.2029084173136195 0  0.372246743208829 0.1959123236376545 0  0.4089549580935208 0.1998691686391595 0  0.4322718174608562 0.200127451265745 0  0.5327852798661811 0.19 0  0.5253169776290537 0.19 0  0.547721884340339 0.19 0  0.5402535821032429 0.19 0  0.3684826306491596 0.21 0  0.3759509328862226 0.21 0  0.4730388619694271 0.19 0  0.4655705597323621 0.19 0  0.5178486753919799 0.19 0  0.5103803731549078 0.19 0  0.4879754664436223 0.19 0  0.4805071642065402 0.19 0  0.502912070917822 0.19 0  0.4954437686807294 0.19 0  0.383419235123329 0.21 0  0.3908875373604028 0.21 0  0.4581022574952563 0.19 0  0.4506339552581777 0.19 0  0.3983558395975142 0.21 0  0.4058241418345938 0.21 0  0.4431656530210671 0.19 0  0.4356973507839815 0.19 0  0.5946539510196798 0.2024302972968126 0  0.4132924440726327 0.19 0  0.5701267910514778 0.21 0  0.5701267910515998 0.19 0  0.4132924440716992 0.21 0  0.574400031298126 0.1945411130107761 0  0.5887471324735476 0.1946190227059995 0  0.4282290485468779 0.19 0  0.5551901865771842 0.21 0  0.6 0.2050000000000054 0  0.4468998041387391 0.2056971942287257 0  0.3946216884797873 0.1943028057712679 0  0.4618364086130068 0.2056971942287359 0  0.3796850840055151 0.1943028057712579 0  0.4767730130872753 0.2056971942287455 0  0.4917096175615203 0.2056971942287492 0  0.5066462220358396 0.2056971942287649 0  0.5215828265100828 0.2056971942287677 0  0.5365194309843644 0.2056971942287865 0  0.5514560354586301 0.2056971942287897 0  0.4319631996644724 0.205697194228716 0  0.5551901865773963 0.19 0  0.4282290485459029 0.21 0  0.5743797868482748 0.2056178169806182 0  0.4090477820585017 0.1944069323162114 0  0.5365194309847112 0.1943028057711659 0  0.5215828265105155 0.1943028057711514 0  0.5511851248594936 0.1945772515115504 0  0.4767730130879849 0.1943028057711153 0  0.3796850840047754 0.2056971942288865 0  0.4618364086138088 0.1943028057711072 0  0.3946216884789569 0.2056971942288966 0  0.446899804139621 0.194302805771098 0  0.4917096175621761 0.1943028057711214 0  0.5066462220363641 0.1943028057711422 0  0.4322275012857285 0.1945847121082109 0  0.409279320968396 0.2055930218740123 0  0.480507164205851 0.21 0  0.4879754664429498 0.21 0  0.4655705597315852 0.21 0  0.4730388619686996 0.21 0  0.3908875373612097 0.19 0  0.3834192351240934 0.19 0  0.5103803731544119 0.21 0  0.5178486753915261 0.21 0  0.5402535821029386 0.21 0  0.54772188434007 0.21 0  0.4506339552573136 0.21 0  0.4581022574944306 0.21 0  0.4954437686800938 0.21 0  0.502912070917267 0.21 0  0.4058241418354857 0.19 0  0.3983558395983636 0.19 0  0.4356973507830418 0.21 0  0.4431656530201649 0.21 0  0.5253169776286404 0.21 0  0.5327852798657868 0.21 0  0.5775950932886138 0.21 0  0.5850633955257281 0.21 0  0.3759509328869369 0.19 0  1.835188936345112 0.2050000000000699 0  1.838465412967181 0.2953145553852501 0  1.915883512473161 0.2050000000000692 0  1.833166318986108 0.1007828475280248 0  2.383594446803656 0.41 0  2.271253957291315 0.41 0  2.346386298105263 0.3062476289039515 0  0.6300528284996487 0.2292604486710743 0  0.65429728832161 0.2353880751391984 0  0.6456429596876728 0.2209784072651823 0  0.6244559818022579 0.1024805481876779 0  0.6331542554485198 0.1311064488920115 0  0.604876951083344 0.1323679928240978 0  0.5950070799606315 0.1111116928105405 0  0.7179098792074922 0.09515556231434774 0  0.6930564374308674 0.1341308449452096 0  0.6808979566904864 0.09264351137968369 0  1.943162250261133 0.2848182236928814 0  1.943162250261127 0.1251817763071746 0  2.244824738199097 0.3091885999356265 0  0.5022733717445609 0.2484520140959261 0  0.5039200503329727 0.2634569969024956 0  0.4870587955368383 0.2511092200731516 0  0.4543681063767173 0.1676928600783137 0  0.4456512193123995 0.1563006663224736 0  0.4634554111966759 0.156587601803556 0  0.4619845553363554 0.2471559623297018 0  0.4744155700740079 0.2566595549135983 0  0.4718174066442032 0.2448602332187449 0  0.401463131821351 0.2240614152536154 0  0.4020899907160548 0.2165302463955136 0  0.3946216884789568 0.2158195727016258 0  0.5019588293971892 0.1448324961346233 0  0.5202014138752529 0.1378594850692911 0  0.5186581766834214 0.1505504706653799 0  0.5805147821309363 0.1750906865638377 0  0.5830971905392573 0.1610562557540074 0  0.5891905322413319 0.173297484523883 0  1.317087908068179 0.2834507950760127 0  1.416789257258389 0.3075294577736497 0  1.357724299039236 0.2303555143487852 0  2.383594446803425 0 0  2.301748441448983 0.1032848369023014 0  2.415100580332905 0.08367007402675902 0  0.883612004374276 0.2044999257790265 0  0.941405262964606 0.2275541950732263 0  0.8724873572796065 0.2505182730032114 0  0.6580228992389956 0.1177787934340178 0  0.6385847074107548 0.1562173919888177 0  0.6641520523959832 0.1503720468916702 0  1.674965418778818 0.41 0  1.58737143976041 0.41 0  1.617304647871871 0.3102553946317155 0  1.587371439758838 0 0  1.674965418777374 0 0  1.627799041349754 0.08170835291169204 0  0.4991779197992711 0.167693385507626 0  0.4900906149793102 0.1565876018036352 0  0.5082652246192162 0.1565876018036352 0  0.4319631996644723 0.2259854221051505 0  0.4420138570927455 0.2303582032589531 0  0.4274409436629797 0.2358490737568498 0  1.122434100544716 0.41 0  1.068894913355815 0.339699543595371 0  1.154144739340952 0.3428674566149401 0  0.9084404882614506 0.2892191224003848 0  1.215451113850732 0.2103314603357224 0  1.249863529963017 0.2672258935273379 0  1.176331347569866 0.2754551993599315 0  0.5740383564454857 0.232486177523615 0  0.5800331369475803 0.2220172718503647 0  0.5872716114964233 0.2289047791562547 0  0.7101078070491313 0.04593780015520291 0  0.7273492824638629 0.1308306999820452 0  2.01253088870001 0.2050000000000507 0  0.6699818017210338 0.05718888729500279 0  0.589683001657349 0.3059206033515077 0  0.629251049118315 0.3129131677620721 0  0.6129037791821019 0.2898142990521698 0  0.5669464924360815 0.2475839849813879 0  0.5841951273902199 0.2421589553533847 0  0.5209814004512184 0.2362962593649592 0  0.5347760817351684 0.2414500964404198 0  0.5183393333239584 0.2464065549333135 0  0.5461387848636305 0.1174764669537213 0  0.5361687701469152 0.1326608756097835 0  0.5197325460646487 0.1214075108099659 0  0.5857082964501902 0.1444062384003248 0  0.5690392421172527 0.1384821647678796 0  0.5733051421814971 0.1505504706653721 0  0.9882218810956305 0.41 0  0.9246101326886647 0.41 0  0.9513232956593279 0.344238796639219 0  0.5166834276845828 0.2571581640138182 0  0.596265848881445 0.1672046255295837 0  1.419591277297145 0.2050000000000071 0  0.4421897352483806 0.3061937447056332 0  0.418091171977014 0.3243162836372635 0  0.412607471649106 0.2990503898016255 0  0.8632198139519631 0.41 0  0.882513772872486 0.3520608410452225 0  0.8202234869765325 0.364591028094237 0  1.421253448505726 0.41 0  1.355827918100823 0.3414955155607449 0  1.421253448503939 0 0  1.418271536314166 0.09353562972960013 0  1.355827918100725 0.06850448443910542 0  0.7991030424147842 0.1996369747921017 0  0.755404159289092 0.1590232243285952 0  0.7509674852354215 0.2077605643765068 0  0.4953767731769588 0.1188694761679334 0  0.506255180108809 0.1312411055441881 0  0.4787056372270673 0.2371901345199761 0  0.4898985359610427 0.2395108277223441 0  0.8502354418587501 0.1560244879407868 0  0.9215858179635137 0.1737964996919513 0  0.4302139512950107 0.2879708289588951 0  0.9080221499231149 0.1220333110997775 0  0.3909674209965625 0.2226356941037057 0  1.122434100542598 0 0  1.070453094842314 0.06960241275844714 0  1.154904552424504 0.06969164993518225 0  0.5678918321244223 0.2848057098346606 0  0.5916500
[...]
<PointData  Vectors="u"> 
<DataArray  type="Float64"  Name="u"  NumberOfComponents="3" format="ascii">1.0846494036294002e-05 8.1154087638316854e-05 0.0000000000000000e+00  4.8072442244933940e-06 8.1671539766950548e-05 0.0000000000000000e+00  7.2582050270275615e-06 8.4978593812199375e-05 0.0000000000000000e+00  7.2335277511172859e-06 1.6504068664660007e-04 0.0000000000000000e+00  1.2966277841636907e-05 1.6469931031840677e-04 0.0000000000000000e+00  1.0527136759973532e-05 1.6146383117396595e-04 0.0000000000000000e+00  6.8339668530318587e-06 7.7978125723936420e-05 0.0000000000000000e+00  -1.1829749319037928e-06 8.2907127104354315e-05 0.0000000000000000e+00  2.2296595928311358e-06 7.8655885387091142e-05 0.0000000000000000e+00  1.8610426771021483e-05 1.6361510816467276e-04 0.0000000000000000e+00  1.5471293106810627e-05 1.6756759359964435e-04 0.0000000000000000e+00  1.1128209823951488e-05 1.6810764572401483e-04 0.0000000000000000e+00  1.4642447120325315e-05 1.6094016157941363e-04 0.0000000000000000e+00  2.9180619659616497e-06 8.5662293829454658e-05 0.0000000000000000e+00  9.5790647452745825e-06 1.8625750216637739e-04 0.0000000000000000e+00  9.1099898149642281e-06 1.8200027589879459e-04 0.0000000000000000e+00  1.1052186962732758e-05 1.8351607356749075e-04 0.0000000000000000e+00  2.0947448243967302e-05 1.8486142612884828e-04 0.0000000000000000e+00  2.0479053018672197e-05 1.8062801376103447e-04 0.0000000000000000e+00  1.9157581655156446e-05 1.8311624883386580e-04 0.0000000000000000e+00  1.4481959319193112e-05 1.7919051334523269e-04 0.0000000000000000e+00  1.6001706670833214e-05 1.7486281337333680e-04 0.0000000000000000e+00  1.1742994794606337e-05 1.7529577759593784e-04 0.0000000000000000e+00  2.0009594767318578e-05 1.7637639369985650e-04 0.0000000000000000e+00  1.9540277418718212e-05 1.7212284983773814e-04 0.0000000000000000e+00  1.1396420876108393e-05 1.7990955603481819e-04 0.0000000000000000e+00  1.5267100602882841e-05 1.8556001063523692e-04 0.0000000000000000e+00  1.8109753061817154e-05 1.8521130089819605e-04 0.0000000000000000e+00  1.6812792198071866e-05 1.8213639790009295e-04 0.0000000000000000e+00  1.3537284136599729e-05 1.7108103599649025e-04 0.0000000000000000e+00  6.1805452184385224e-06 9.7648523258195912e-05 0.0000000000000000e+00  7.5166967029152238e-06 9.2969609886601776e-05 0.0000000000000000e+00  3.3574939827968386e-06 9.3578924036871668e-05 0.0000000000000000e+00  3.5974230045670188e-06 6.6201147862935748e-05 0.0000000000000000e+00  1.7860522049748178e-06 7.1014296708499995e-05 0.0000000000000000e+00  6.3645488572220161e-06 7.0320128932004170e-05 0.0000000000000000e+00  6.9870455116300110e-06 1.0644409819295610e-04 0.0000000000000000e+00  8.2942914572884259e-06 1.0181581149582767e-04 0.0000000000000000e+00  4.1800722262006535e-06 1.0239210569945440e-04 0.0000000000000000e+00  2.9506129258378252e-06 5.7113772069145189e-05 0.0000000000000000e+00  1.5072814807937204e-06 6.1930142678440946e-05 0.0000000000000000e+00  5.7323096463503352e-06 6.1272617979044841e-05 0.0000000000000000e+00  7.8164518674890095e-06 1.1515680638839709e-04 0.0000000000000000e+00  9.0973647892301486e-06 1.1057425607816970e-04 0.0000000000000000e+00  5.0202934085546226e-06 1.1113743217140824e-04 0.0000000000000000e+00  8.6658664243135992e-06 1.2379911134781328e-04 0.0000000000000000e+00  9.9238259628559595e-06 1.1925520874263212e-04 0.0000000000000000e+00  5.8789794346447434e-06 1.1980637036376304e-04 0.0000000000000000e+00  9.5329804790183417e-06 1.3238595439896719e-04 0.0000000000000000e+00  1.0771652635717310e-05 1.2787275627452259e-04 0.0000000000000000e+00  6.7527562047159706e-06 1.2841274106935215e-04 0.0000000000000000e+00  1.0415960535857639e-05 1.4093244690033846e-04 0.0000000000000000e+00  1.1638908251209731e-05 1.3644222977229019e-04 0.0000000000000000e+00  7.6394331665876252e-06 1.3697167077410136e-04 0.0000000000000000e+00  1.1313353729456404e-05 1.4945219326477783e-04 0.0000000000000000e+00  1.2523753797572269e-05 1.4497819638724523e-04 0.0000000000000000e+00  8.5376633061624746e-06 1.4549755998373461e-04 0.0000000000000000e+00  1.2143724243181668e-05 1.5781247922466680e-04 0.0000000000000000e+00  1.3424470263892664e-05 1.5349311635827449e-04 0.0000000000000000e+00  9.4391354910029189e-06 1.5398905444440628e-04 0.0000000000000000e+00  9.0112877215152383e-07 5.2871249427566630e-05 0.0000000000000000e+00  5.0984445273816430e-06 5.2206943926944455e-05 0.0000000000000000e+00  4.3403229398885097e-06 7.4896228649288775e-05 0.0000000000000000e+00  5.3402200614926758e-06 8.8958409927013555e-05 0.0000000000000000e+00  1.6797321642097683e-05 1.4658061099471031e-04 0.0000000000000000e+00  1.6355781968710285e-05 1.4231294000356589e-04 0.0000000000000000e+00  1.7695216512594697e-05 1.5510296045493206e-04 0.0000000000000000e+00  1.7243960499905097e-05 1.5084354311802804e-04 0.0000000000000000e+00  -3.5027226236877517e-06 5.1340119399181968e-05 0.0000000000000000e+00  -3.2445251556722696e-06 5.5830510627840039e-05 0.0000000000000000e+00  1.3434196784063498e-05 1.1217202873301657e-04 0.0000000000000000e+00  1.3044028470926233e-05 1.0780604735323806e-04 0.0000000000000000e+00  1.5919604609300398e-05 1.3803917097336658e-04 0.0000000000000000e+00  1.5489253226729577e-05 1.3375769643832823e-04 0.0000000000000000e+00  1.4235844596715576e-05 1.2084956096067893e-04 0.0000000000000000e+00  1.3831512165533361e-05 1.1651925825092497e-04 0.0000000000000000e+00  1.5064945952387637e-05 1.2946686231357182e-04 0.0000000000000000e+00  1.4647082608774421e-05 1.2516475720419841e-04 0.0000000000000000e+00  -2.9558291194375975e-06 6.0342757421457509e-05 0.0000000000000000e+00  -2.6412935912900878e-06 6.4865085553031846e-05 0.0000000000000000e+00  1.2660989316251754e-05 1.0341977798789413e-04 0.0000000000000000e+00  1.2285002363318774e-05 9.9011894042145781e-05 0.0000000000000000e+00  -2.3034848797180920e-06 6.9389350618429658e-05 0.0000000000000000e+00  -1.9462275522610633e-06 7.3907859615936886e-05 0.0000000000000000e+00  1.1915924701175301e-05 9.4581464520516231e-05 0.0000000000000000e+00  1.1553426152304267e-05 9.0128117226305013e-05 0.0000000000000000e+00  1.3547335370950882e-05 1.8268763365386729e-04 0.0000000000000000e+00  1.0501035174552497e-05 7.6636260708728399e-05 0.0000000000000000e+00  7.6998089946674787e-06 1.6928124029605676e-04 0.0000000000000000e+00  1.9073642588778082e-05 1.6786924421830675e-04 0.0000000000000000e+00  -1.5717361018828945e-06 7.8415213024826092e-05 0.0000000000000000e+00  1.6753100547502735e-05 1.7062232723525541e-04 0.0000000000000000e+00  1.7612099141369214e-05 1.7879291080745031e-04 0.0000000000000000e+00  1.1197179922194696e-05 8.5651931093114634e-05 0.0000000000000000e+00  6.7695639999600567e-06 1.6079907145871852e-04 0.0000000000000000e+00  1.2425618295946840e-05 1.8590877854910733e-04 0.0000000000000000e+00  2.8079870327929258e-06 9.8121205585110721e-05 0.0000000000000000e+00  7.0466257903183346e-06 6.5673843792184256e-05 0.0000000000000000e+00  3.6465591675604255e-06 1.0690571333632020e-04 0.0000000000000000e+00  6.3853120806197158e-06 5.6571078461173266e-05 0.0000000000000000e+00  4.5048609341572633e-06 1.1560860127284414e-04 0.0000000000000000e+00  5.3783836232021601e-06 1.2424198536316352e-04 0.0000000000000000e+00  6.2642074051268836e-06 1.3282052292991261e-04 0.0000000000000000e+00  7.1606471354427933e-06 1.4135911577691914e-04 0.0000000000000000e+00  8.0669168325262318e-06 1.4987119908585044e-04 0.0000000000000000e+00  8.9828864180294400e-06 1.5836769006353815e-04 0.0000000000000000e+00  1.9956009689686183e-06 8.9248395240377736e-05 0.0000000000000000e+00  1.8150841370071271e-05 1.5935988416986780e-04 0.0000000000000000e+00  -7.8221172967045314e-07 8.7380491316081034e-05 0.0000000000000000e+00  1.0453177509636194e-05 1.7138844291085461e-04 0.0000000000000000e+00  7.6439293198744988e-06 7.4460223100094038e-05 0.0000000000000000e+00  1.4563614116179931e-05 1.4903144556640383e-04 0.0000000000000000e+00  1.3674697837030611e-05 1.4050300884086588e-04 0.0000000000000000e+00  1.5296339703718823e-05 1.5740937372631179e-04 0.0000000000000000e+00  1.1129722759539741e-05 1.1469838318154011e-04 0.0000000000000000e+00  -4.9118457700808547e-07 5.7664244127847178e-05 0.0000000000000000e+00  1.0328364490869773e-05 1.0597485965439439e-04 0.0000000000000000e+00  1.4297871765837344e-07 6.6728993235411752e-05 0.0000000000000000e+00  9.5529055105873999e-06 9.7167794731570063e-05 0.0000000000000000e+00  1.1955729036891313e-05 1.2335088894944960e-04 0.0000000000000000e+00  1.2804704225394243e-05 1.3194737555629078e-04 0.0000000000000000e+00  8.6487068161380122e-06 8.8452793646362536e-05 0.0000000000000000e+00  8.9529349530981187e-07 7.5604237320988954e-05 0.0000000000000000e+00  2.2283063013428224e-06 1.1810805225077192e-04 0.0000000000000000e+00  2.6745159719431093e-06 1.2242160892203790e-04 0.0000000000000000e+00  1.3440216972297236e-06 1.0943029124480780e-04 0.0000000000000000e+00  1.7845958175185620e-06 1.1377821413634727e-04 0.0000000000000000e+00  9.4856976407472427e-06 6.2997915661034646e-05 0.0000000000000000e+00  9.1503945135101497e-06 5.8442029119053699e-05 0.0000000000000000e+00  4.0248305595245925e-06 1.3528251609617052e-04 0.0000000000000000e+00  4.4781972523084491e-06 1.3954904744786388e-04 0.0000000000000000e+00  5.8477375139367345e-06 1.5231035742890685e-04 0.0000000000000000e+00  6.3077004590415053e-06 1.5655590328740357e-04 0.0000000000000000e+00  4.7497511131019774e-07 1.0067476272953375e-04 0.0000000000000000e+00  9.0712423102931537e-07 1.0506289015351462e-04 0.0000000000000000e+00  3.1228226232222009e-06 1.2672063028365787e-04 0.0000000000000000e+00  3.5729814380597232e-06 1.3100695507774595e-04 0.0000000000000000e+00  1.0159780685114276e-05 7.2101281573442737e-05 0.0000000000000000e+00  9.8216313398148402e-06 6.7553332922649594e-05 0.0000000000000000e+00  -3.7106614621239742e-07 9.1833600861676142e-05 0.0000000000000000e+00  4.8423119030391639e-08 9.6265073932253739e-05 0.0000000000000000e+00  4.9331058707751111e-06 1.4380820201055278e-04 0.0000000000000000e+00  5.3895835378824871e-06 1.4806154204205992e-04 0.0000000000000000e+00  8.1684403125945961e-06 1.7352099889585918e-04 0.0000000000000000e+00  8.6391524420139560e-06 1.7776007115596600e-04 0.0000000000000000e+00  8.8144876318261796e-06 5.3894532851589515e-05 0.0000000000000000e+00  2.4155161893227944e-01 -7.0723613461027670e-05 0.0000000000000000e+00  2.3074942905825530e-01 5.5978071088673919e-04 0.0000000000000000e+00  2.4246192588251528e-01 -7.1222773221869525e-05 0.0000000000000000e+00  2.2806447925072174e-01 -4.4280076818151317e-04 0.0000000000000000e+00  0.0000000000000000e+00 0.0000000000000000e+00 0.0000000000000000e+00  0.0000000000000000e+00 0.0000000000000000e+00 0.0000000000000000e+00  2.3041313373619568e-01 2.3025165573826636e-03 0.0000000000000000e+00  1.5535608886295516e-01 -3.5755708760661968e-02 0.0000000000000000e+00  1.8210346641825723e-01 -3.2936815464222724e-02 0.0000000000000000e+00  1.2905165539886046e-01 -2.7988916121338001e-02 0.0000000000000000e+00  2.8091654745314920e-01 1.8517096569227121e-02 0.0000000000000000e+00  2.6219460525279509e-01 2.6689515956604397e-02 0.0000000000000000e+00  2.6703922340644187e-01 2.1196112107279369e-02 0.0000000000000000e+00  2.8531153569169670e-01 1.6153894935311348e-02 0.0000000000000000e+00  2.5633570439856523e-01 1.5320258813978348e-02 0.0000000000000000e+00  2.4478320102955806e-01 2.5584726484383646e-02 0.0000000000000000e+00  2.6421808861435853e-01 1.7007807564796300e-02 0.0000000000000000e+00  2.3692139634688769e-01 6.0586345963503748e-06 0.0000000000000000e+00  2.3625632083241122e-01 6.8100131154640034e-05 0.0000000000000000e+00  2.3248492798292084e-01 -5.7452661870496823e-04 0.0000000000000000e+00  2.1314237300966071e-01 -4.8007217902464056e-03 0.0000000000000000e+00  2.5249470031995708e-01 -7.4823910253162887e-03 0.0000000000000000e+00  2.1834373706955784e-01 -5.6605986922471348e-03 0.0000000000000000e+00  1.4138329468114261e-01 2.5861827441762452e-03 0.0000000000000000e+00  1.8655437765960431e-01 5.7649138282127215e-03 0.0000000000000000e+00  1.8985921642274053e-01 4.5775444252717798e-03 0.0000000000000000e+00  2.0024083396179723e-01 -6.0201127075118523e-03 0.0000000000000000e+00  2.3105019131874865e-01 -7.4652078950481638e-03 0.0000000000000000e+00  1.9482939603124258e-01 -4.9308475524057239e-03 0.0000000000000000e+00  8.4038351378212070e-02 -2.3196118930304847e-03 0.0000000000000000e+00  4.2110112736967679e-02 -4.9025178637333226e-04 0.0000000000000000e+00  3.6621058188514188e-02 -4.2578108397586887e-04 0.0000000000000000e+00  2.3377765824073407e-01 5.4064776391609696e-03 0.0000000000000000e+00  2.5280878766281284e-01 6.5075624487182819e-03 0.0000000000000000e+00  2.2010733121109746e-01 4.6049530997386698e-03 0.0000000000000000e+00  1.2314076523032969e-01 5.0158392624807180e-03 0.0000000000000000e+00  1.9625749716610039e-01 1.1701316012578476e-02 0.0000000000000000e+00  1.3895392082602703e-01 9.9971780173806618e-03 0.0000000000000000e+00  2.3767123108438876e-01 -1.4806263847007175e-04 0.0000000000000000e+00  2.2871247846944207e-01 1.0557561307960009e-04 0.0000000000000000e+00  2.4175453631041618e-01 1.4433844684046418e-05 0.0000000000000000e+00  0.0000000000000000e+00 0.0000000000000000e+00 0.0000000000000000e+00  2.2711250999916652e-01 -4.4574407217164435e-04 0.0000000000000000e+00  2.2336478841587568e-01 -4.2506747477330841e-03 0.0000000000000000e+00  2.2686190665601069e-01 -1.6241854449650494e-03 0.0000000000000000e+00  2.3544337038104776e-01 -3.0726489996456188e-03 0.0000000000000000e+00  2.3634646208953389e-01 -7.4292490242868622e-03 0.0000000000000000e+00  2.6772497405472345e-01 2.4286025166182109e-02 0.0000000000000000e+00  2.0754778167947019e-01 3.4118791717076213e-02 0.0000000000000000e+00  2.2024482450517838e-01 3.1182995416575925e-02 0.0000000000000000e+00  0.0000000000000000e+00 0.0000000000000000e+00 0.0000000000000000e+00  0.0000000000000000e+00 0.0000000000000000e+00 0.0000000000000000e+00  2.2660581455794521e-01 -9.2891581413663229e-05 0.0000000000000000e+00  0.0000000000000000e+00 0.0000000000000000e+00 0.0000000000000000e+00  0.0000000000000000e+00 0.0000000000000000e+00 0.0000000000000000e+00  2.1761417268583233e-01 5.9394816422457750e-05 0.0000000000000000e+00  1.4861248914768238e-01 1.8253288051029973e-03 0.0000000000000000e+00  1.9500394256654419e-01 3.6372010808831995e-03 0.0000000000000000e+00  1.9798484800762153e-01 3.4948762690497890e-03 0.0000000000000000e+00  1.0239392565735292e-01 -1.9523907661068197e-03 0.0000000000000000e+00  1.2711666044997916e-01 -2.6913635953449461e-03 0.0000000000000000e+00  1.4780348425364548e-01 -4.9683140568491067e-03 0.0000000000000000e+00  0.0000000000000000e+00 0.0000000000000000e+00 0.0000000000000000e+00  2.0996821402202742e-01 -4.6399583563035661e-04 0.0000000000000000e+00  2.0652571352794877e-01 -9.6120050773298822e-05 0.0000000000000000e+00  2.4234183106738696e-01 -5.1918810461155304e-03 0.0000000000000000e+00  2.4199745083957938e-01 -2.4062652575876080e-04 0.0000000000000000e+00  2.3971959621727454e-01 -1.0851700970844300e-04 0.0000000000000000e+00  2.3940541683184405e-01 -4.7229036652324285e-04 0.0000000000000000e+00  1.6435554579567202e-01 -6.3929930211212961e-03 0.0000000000000000e+00  1.0353977257606641e-01 -3.2585015391564786e-03 0.0000000000000000e+00  1.5113174378079264e-01 -9.7868659573104779e-03 0.0000000000000000e+00  1.9409833331279083e-01 5.0941697646833860e-03 0.0000000000000000e+00  2.4398562060584081e-01 2.0527387961600096e-02 0.0000000000000000e+00  2.4146328513836490e-01 1.8419718140332439e-04 0.0000000000000000e+00  2.2787518540812182e-01 8.4708357995995267e-03 0.0000000000000000e+00  2.9235237488342286e-01 -1.4189169273297679e-02 0.0000000000000000e+00  2.8302593699605988e-01 -1.6379936511586726e-02 0.0000000000000000e+00  2.8624437338482034e-01 -1.9885338608554962e-02 0.0000000000000000e+00  2.2316176200145768e-01 -9.2581255086681535e-03 0.0000000000000000e+00  2.0926098014597772e-01 -1.3141997447093729e-02 0.0000000000000000e+00  1.7010862551269751e-01 -2.7082638153825014e-03 0.0000000000000000e+00  1.9439622621858466e-01 -4.1263689936072174e-03 0.0000000000000000e+00  2.0938430442971748e-01 -4.4898875394271858e-03 0.0000000000000000e+00  2.8382807184578052e-01 9.6280625830972716e-03 0.0000000000000000e+00  2.6447378991915427e-01 7.8604392171838823e-03 0.0000000000000000e+00  2.7871450157619815e-01 8.1718130589631330e-03 0.0000000000000000e+00  2.4696809769874808e-01 1.5612317198991631e-02 0.0000000000000000e+00  2.5760965330374663e-01 1.1597753180083773e-02 0.0000000000000000e+00  2.2977348419341184e-01 1.0879926463653662e-02 0.0000000000000000e+00  0.0000000000000000e+00 0.0000000000000000e+00 0.0000000000000000e+00  0.0000000000000000e+00 0.0000000000000000e+00 0.0000000000000000e+00  2.0765255197109209e-01 -1.1587199797778874e-03 0.0000000000000000e+00  2.4034696317778328e-01 -6.4020261684538983e-03 0.0000000000000000e+00  1.7370660603545587e-01 1.8218071901263989e-02 0.0000000000000000e+00  2.4195376630331317e-01 2.3800190484290506e-04 0.0000000000000000e+00  3.0221664331294457e-01 -1.5848193545599413e-02 0.0000000000000000e+00  3.0829295139901969e-01 -1.6580809946178658e-02 0.0000000000000000e+00  2.9873230612784318e-01 -2.1159002978625649e-02 0.0000000000000000e+00  0.0000000000000000e+00 0.0000000000000000e+00 0.0000000000000000e+00  2.0014348401430657e-01 -1.7077619100085530e-03 0.0000000000000000e+00  1.7990281432693830e-01 -1.8541268583934596e-03 0.0000000000000000e+00  0.0000000000000000e+00 0.0000000000000000e+00 0.0000000000000000e+00  2.0762050125163214e-01 -4.8037997443724993e-04 0.0000000000000000e+00  0.0000000000000000e+00 0.0000000000000000e+00 0.0000000000000000e+00  2.2487004950577458e-01 -1.6199770974859276e-04 0.0000000000000000e+00  2.0798187014013381e-01 1.8207113226666996e-04 0.0000000000000000e+00  2.0498795750142179e-01 -5.9407013446287295e-04 0.0000000000000000e+00  2.1566400715894118e-01 1.5657954700918429e-02 0.0000000000000000e+00  1.8659062939333487e-01 -4.7765551069130852e-03 0.0000000000000000e+00  2.7994849399376676e-01 8.7450038552821796e-03 0.0000000000000000e+00  2.6355041184163031e-01 7.2520070285669149e-03 0.0000000000000000e+00  1.6655526601161652e-01 -3.0444879645557242e-03 0.0000000000000000e+00  1.7840320413674740e-01 -3.2551452357433681e-03 0.0000000000000000e+00  2.3054549459815005e-01 6.7179750078913778e-03 0.0000000000000000e+00  2.3294493191657242e-01 1.8598777948523057e-03 0.0000000000000000e+00  2.8435495953295437e-01 -1.8085161829015033e-02 0.0000000000000000e+00  2.3851246973426934e-01 4.0171060150134223e-03 0.0000000000000000e+00  7.3366659883731783e-02 -2.1798351813060710e-03 0.0000000000000000e+00  0.0000000000000000e+00 0.0000000000000000e+00 0.0000000000000000e+00  2.0854452329198969e-01 3.2736227171167555e-04 0.0000000000000000e+00  2.0914013198664852e-01 -1.4571697154215470e-05 0.0000000000000000e+00  2.8781147635156662e-01 -1.3181144715415153e-02 0.0000000000000000e+00  2.8398574209488536e-01 -1.7412225571497342e-02 0.0000000000000000e+00  2.4906648056101013e-01 -1.4670337478655053e-02 0.0000000000000000e+00  2.5896598895458212e-01 -1.0545936382201434e-02 0.0000000000000000e+00  2.2333466481772676e-01 -2.9296711589617778e-02 0.0000000000000000e+00  2.3434189485508711e-01 -3.2297044044359693e-02 0.0000000000000000e+00  2.6957715297888379e-01 -9.1661090290188207e-03 0.0000000000000000e+00  2.8673848992946138e-01 -1.1064664769235450e-02 0.0000000000000000e+00  2.6500037955165201e-01 9.0556006401338596e-03 0.0000000000000000e+00  2.1261407374040336e-01 5.9405874828209540e-03 0.0000000000000000e+00  3.0288694109037423e-01 1.7762078488046205e-02 0.0000000000000000e+00  2.6099024032272189e-01 -9.2082266113460969e-03 0.0000000000000000e+00  1.7736934259823195e-01 -1.5817246647057505e-04 0.0000000000000000e+00  2.9306566404493195e-01 -8.8926491580239419e-03 0.0000000000000000e+00  2.7268410959744027e-01 -5.9608025230318499e-03 0.0000000000000000e+00  2.9792