<?xml version="1.0"?>
<VTKFile type="UnstructuredGrid"  version="0.1"  >
<UnstructuredGrid>
<Piece  NumberOfPoints="728" NumberOfCells="1368">
<Points>
<DataArray  type="Float64"  NumberOfComponents="3"  format="ascii">0.4207607463097617 0.19 0  0.4201487168029707 0.1999966199048527 0  0.4261685417851465 0.196409292431739 0  0.5626584888143201 0.21 0  0.5633122436674589 0.1999814296467508 0  0.5571672426447437 0.2036011176410121 0  0.4145905603061963 0.1961819304479011 0  0.4207607463087888 0.21 0  0.4145905603063645 0.2038180695522843 0  0.5626584888145268 0.19 0  0.5688286748170428 0.1961819304477386 0  0.5688286748170693 0.203818069552238 0  0.5571594006495384 0.1963685282145804 0  0.4262598344738712 0.2036568242185335 0  0.6 0.21 0  0.5925316977628483 0.21 0  0.5955705746706843 0.2069223055301326 0  0.6 0.19 0  0.5925316977628897 0.19 0  0.5965740209510578 0.1927759733278094 0  0.5887803774232762 0.2001272386983733 0  0.5815926498168407 0.1966545283159175 0  0.5814408164431408 0.2041285596160068 0  0.5850633955257988 0.19 0  0.5775950932887378 0.19 0  0.5893814947531364 0.2056233639521408 0  0.6 0.2 0  0.6 0.1950000000000217 0  0.594380730180568 0.1966558399668133 0  0.5745072403740523 0.2002044435018727 0  0.446899804139621 0.1999999999998389 0  0.4394315019025246 0.1970915826863714 0  0.4394608940728603 0.2040870543693135 0  0.3946216884789568 0.2000000000001512 0  0.4020059614928624 0.203547899597858 0  0.4019979587101454 0.1959834479682427 0  0.4618364086138087 0.1999999999998546 0  0.4543681063767183 0.1970915826863795 0  0.4543681063761134 0.2040749161535186 0  0.3796850840047755 0.200000000000134 0  0.3871533862418661 0.2029084173136212 0  0.3871533862424271 0.1959250838464788 0  0.476773013087985 0.1999999999998713 0  0.4693047108508938 0.1970915826863783 0  0.4693047108503577 0.2040749161535231 0  0.4917096175621762 0.1999999999998808 0  0.4842413153250809 0.1970915826863873 0  0.4842413153245942 0.2040749161535287 0  0.5066462220363641 0.199999999999908 0  0.4991779197992749 0.1970915826863902 0  0.4991779197988497 0.2040749161535382 0  0.5215828265105155 0.1999999999999228 0  0.5141145242734466 0.1970915826863843 0  0.5141145242731028 0.2040749161535395 0  0.5365194309847112 0.1999999999999436 0  0.5290511287476175 0.1970915826863981 0  0.5290511287473298 0.2040749161535501 0  0.5511891430099709 0.2001122610077113 0  0.5439877332217911 0.197091582686394 0  0.5439623148931173 0.2040856076781014 0  0.3722167817676917 0.2029084173136195 0  0.372246743208829 0.1959123236376545 0  0.4089549580935208 0.1998691686391595 0  0.4322718174608562 0.200127451265745 0  0.5327852798661811 0.19 0  0.5253169776290537 0.19 0  0.547721884340339 0.19 0  0.5402535821032429 0.19 0  0.3684826306491596 0.21 0  0.3759509328862226 0.21 0  0.4730388619694271 0.19 0  0.4655705597323621 0.19 0  0.5178486753919799 0.19 0  0.5103803731549078 0.19 0  0.4879754664436223 0.19 0  0.4805071642065402 0.19 0  0.502912070917822 0.19 0  0.4954437686807294 0.19 0  0.383419235123329 0.21 0  0.3908875373604028 0.21 0  0.4581022574952563 0.19 0  0.4506339552581777 0.19 0  0.3983558395975142 0.21 0  0.4058241418345938 0.21 0  0.4431656530210671 0.19 0  0.4356973507839815 0.19 0  0.5946539510196798 0.2024302972968126 0  0.4132924440726327 0.19 0  0.5701267910514778 0.21 0  0.5701267910515998 0.19 0  0.4132924440716992 0.21 0  0.574400031298126 0.1945411130107761 0  0.5887471324735476 0.1946190227059995 0  0.4282290485468779 0.19 0  0.5551901865771842 0.21 0  0.6 0.2050000000000054 0  0.4468998041387391 0.2056971942287257 0  0.3946216884797873 0.1943028057712679 0  0.4618364086130068 0.2056971942287359 0  0.3796850840055151 0.1943028057712579 0  0.4767730130872753 0.2056971942287455 0  0.4917096175615203 0.2056971942287492 0  0.5066462220358396 0.2056971942287649 0  0.5215828265100828 0.2056971942287677 0  0.5365194309843644 0.2056971942287865 0  0.5514560354586301 0.2056971942287897 0  0.4319631996644724 0.205697194228716 0  0.5551901865773963 0.19 0  0.4282290485459029 0.21 0  0.5743797868482748 0.2056178169806182 0  0.4090477820585017 0.1944069323162114 0  0.5365194309847112 0.1943028057711659 0  0.5215828265105155 0.1943028057711514 0  0.5511851248594936 0.1945772515115504 0  0.4767730130879849 0.1943028057711153 0  0.3796850840047754 0.2056971942288865 0  0.4618364086138088 0.1943028057711072 0  0.3946216884789569 0.2056971942288966 0  0.446899804139621 0.194302805771098 0  0.4917096175621761 0.1943028057711214 0  0.5066462220363641 0.1943028057711422 0  0.4322275012857285 0.1945847121082109 0  0.409279320968396 0.2055930218740123 0  0.480507164205851 0.21 0  0.4879754664429498 0.21 0  0.4655705597315852 0.21 0  0.4730388619686996 0.21 0  0.3908875373612097 0.19 0  0.3834192351240934 0.19 0  0.5103803731544119 0.21 0  0.5178486753915261 0.21 0  0.5402535821029386 0.21 0  0.54772188434007 0.21 0  0.4506339552573136 0.21 0  0.4581022574944306 0.21 0  0.4954437686800938 0.21 0  0.502912070917267 0.21 0  0.4058241418354857 0.19 0  0.3983558395983636 0.19 0  0.4356973507830418 0.21 0  0.4431656530201649 0.21 0  0.5253169776286404 0.21 0  0.5327852798657868 0.21 0  0.5775950932886138 0.21 0  0.5850633955257281 0.21 0  0.3759509328869369 0.19 0  1.835188936345112 0.2050000000000699 0  1.838465412967181 0.2953145553852501 0  1.915883512473161 0.2050000000000692 0  1.833166318986108 0.1007828475280248 0  2.383594446803656 0.41 0  2.271253957291315 0.41 0  2.346386298105263 0.3062476289039515 0  0.6300528284996487 0.2292604486710743 0  0.65429728832161 0.2353880751391984 0  0.6456429596876728 0.2209784072651823 0  0.6244559818022579 0.1024805481876779 0  0.6331542554485198 0.1311064488920115 0  0.604876951083344 0.1323679928240978 0  0.5950070799606315 0.1111116928105405 0  0.7179098792074922 0.09515556231434774 0  0.6930564374308674 0.1341308449452096 0  0.6808979566904864 0.09264351137968369 0  1.943162250261133 0.2848182236928814 0  1.943162250261127 0.1251817763071746 0  2.244824738199097 0.3091885999356265 0  0.5022733717445609 0.2484520140959261 0  0.5039200503329727 0.2634569969024956 0  0.4870587955368383 0.2511092200731516 0  0.4543681063767173 0.1676928600783137 0  0.4456512193123995 0.1563006663224736 0  0.4634554111966759 0.156587601803556 0  0.4619845553363554 0.2471559623297018 0  0.4744155700740079 0.2566595549135983 0  0.4718174066442032 0.2448602332187449 0  0.401463131821351 0.2240614152536154 0  0.4020899907160548 0.2165302463955136 0  0.3946216884789568 0.2158195727016258 0  0.5019588293971892 0.1448324961346233 0  0.5202014138752529 0.1378594850692911 0  0.5186581766834214 0.1505504706653799 0  0.5805147821309363 0.1750906865638377 0  0.5830971905392573 0.1610562557540074 0  0.5891905322413319 0.173297484523883 0  1.317087908068179 0.2834507950760127 0  1.416789257258389 0.3075294577736497 0  1.357724299039236 0.2303555143487852 0  2.383594446803425 0 0  2.301748441448983 0.1032848369023014 0  2.415100580332905 0.08367007402675902 0  0.883612004374276 0.2044999257790265 0  0.941405262964606 0.2275541950732263 0  0.8724873572796065 0.2505182730032114 0  0.6580228992389956 0.1177787934340178 0  0.6385847074107548 0.1562173919888177 0  0.6641520523959832 0.1503720468916702 0  1.674965418778818 0.41 0  1.58737143976041 0.41 0  1.617304647871871 0.3102553946317155 0  1.587371439758838 0 0  1.674965418777374 0 0  1.627799041349754 0.08170835291169204 0  0.4991779197992711 0.167693385507626 0  0.4900906149793102 0.1565876018036352 0  0.5082652246192162 0.1565876018036352 0  0.4319631996644723 0.2259854221051505 0  0.4420138570927455 0.2303582032589531 0  0.4274409436629797 0.2358490737568498 0  1.122434100544716 0.41 0  1.068894913355815 0.339699543595371 0  1.154144739340952 0.3428674566149401 0  0.9084404882614506 0.2892191224003848 0  1.215451113850732 0.2103314603357224 0  1.249863529963017 0.2672258935273379 0  1.176331347569866 0.2754551993599315 0  0.5740383564454857 0.232486177523615 0  0.5800331369475803 0.2220172718503647 0  0.5872716114964233 0.2289047791562547 0  0.7101078070491313 0.04593780015520291 0  0.7273492824638629 0.1308306999820452 0  2.01253088870001 0.2050000000000507 0  0.6699818017210338 0.05718888729500279 0  0.589683001657349 0.3059206033515077 0  0.629251049118315 0.3129131677620721 0  0.6129037791821019 0.2898142990521698 0  0.5669464924360815 0.2475839849813879 0  0.5841951273902199 0.2421589553533847 0  0.5209814004512184 0.2362962593649592 0  0.5347760817351684 0.2414500964404198 0  0.5183393333239584 0.2464065549333135 0  0.5461387848636305 0.1174764669537213 0  0.5361687701469152 0.1326608756097835 0  0.5197325460646487 0.1214075108099659 0  0.5857082964501902 0.1444062384003248 0  0.5690392421172527 0.1384821647678796 0  0.5733051421814971 0.1505504706653721 0  0.9882218810956305 0.41 0  0.9246101326886647 0.41 0  0.9513232956593279 0.344238796639219 0  0.5166834276845828 0.2571581640138182 0  0.596265848881445 0.1672046255295837 0  1.419591277297145 0.2050000000000071 0  0.4421897352483806 0.3061937447056332 0  0.418091171977014 0.3243162836372635 0  0.412607471649106 0.2990503898016255 0  0.8632198139519631 0.41 0  0.882513772872486 0.3520608410452225 0  0.8202234869765325 0.364591028094237 0  1.421253448505726 0.41 0  1.355827918100823 0.3414955155607449 0  1.421253448503939 0 0  1.418271536314166 0.09353562972960013 0  1.355827918100725 0.06850448443910542 0  0.7991030424147842 0.1996369747921017 0  0.755404159289092 0.1590232243285952 0  0.7509674852354215 0.2077605643765068 0  0.4953767731769588 0.1188694761679334 0  0.506255180108809 0.1312411055441881 0  0.4787056372270673 0.2371901345199761 0  0.4898985359610427 0.2395108277223441 0  0.8502354418587501 0.1560244879407868 0  0.9215858179635137 0.1737964996919513 0  0.4302139512950107 0.2879708289588951 0  0.9080221499231149 0.1220333110997775 0  0.3909674209965625 0.2226356941037057 0  1.122434100542598 0 0  1.070453094842314 0.06960241275844714 0  1.154904552424504 0.06969164993518225 0  0.5678918321244223 0.2848057098346606 0  0.5916500
[...]
<PointData  Vectors="d"> 
<DataArray  type="Float64"  Name="d"  NumberOfComponents="3" format="ascii">4.3243507659925137e-05 3.1996876566756560e-04 0.0000000000000000e+00  1.5119592610737977e-05 3.1738782894248852e-04 0.0000000000000000e+00  2.5715503296073919e-05 3.3465560669090812e-04 0.0000000000000000e+00  -8.1235402829756850e-06 7.4124400009887355e-04 0.0000000000000000e+00  2.2316052225083563e-05 7.4353947434691102e-04 0.0000000000000000e+00  1.1185609544610856e-05 7.2472054582301481e-04 0.0000000000000000e+00  2.5274810540471240e-05 3.0213344533313864e-04 0.0000000000000000e+00  -1.2859964716314666e-05 3.1855431225509377e-04 0.0000000000000000e+00  4.1000299144129586e-06 3.0158520695586775e-04 0.0000000000000000e+00  5.2727969757480222e-05 7.4186664748704357e-04 0.0000000000000000e+00  3.3987581307673897e-05 7.6044176483819369e-04 0.0000000000000000e+00  1.0749126175009078e-05 7.6022165321319333e-04 0.0000000000000000e+00  3.3181048566605069e-05 7.2493570002493853e-04 0.0000000000000000e+00  5.2381129707740222e-06 3.3441070382282640e-04 0.0000000000000000e+00  -7.5366400752407045e-06 8.5486189700507563e-04 0.0000000000000000e+00  -7.7252871646702605e-06 8.3231199031372693e-04 0.0000000000000000e+00  1.5919629270433393e-06 8.4163451126021002e-04 0.0000000000000000e+00  5.3361176354424383e-05 8.5564206620020677e-04 0.0000000000000000e+00  5.3179071983106169e-05 8.3270554349645161e-04 0.0000000000000000e+00  4.4682189780303001e-05 8.4496846892376774e-04 0.0000000000000000e+00  2.2182120739833488e-05 8.2108094510269583e-04 0.0000000000000000e+00  3.2722388282834476e-05 7.9927120964777478e-04 0.0000000000000000e+00  9.9709359115375746e-06 7.9863833669107764e-04 0.0000000000000000e+00  5.3079287848246071e-05 8.0998381963036077e-04 0.0000000000000000e+00  5.2989931782056613e-05 7.8727878564049990e-04 0.0000000000000000e+00  5.4921496299718160e-06 8.2281547836635918e-04 0.0000000000000000e+00  2.2581098557079604e-05 8.5525053220718696e-04 0.0000000000000000e+00  3.7869378152436230e-05 8.5543373356367341e-04 0.0000000000000000e+00  3.2769534223771405e-05 8.3819490688808688e-04 0.0000000000000000e+00  2.1824887777753614e-05 7.7761432840921642e-04 0.0000000000000000e+00  1.7034349127775182e-05 3.9398683298064359e-04 0.0000000000000000e+00  2.4890541172789019e-05 3.7255050475341450e-04 0.0000000000000000e+00  4.7698411235348783e-06 3.7217715841516717e-04 0.0000000000000000e+00  1.3075399852500058e-05 2.4729586954925635e-04 0.0000000000000000e+00  4.0931702475774133e-06 2.6696171377045617e-04 0.0000000000000000e+00  2.4547011434131816e-05 2.6750596304576067e-04 0.0000000000000000e+00  1.8004350823255651e-05 4.3774130426315987e-04 0.0000000000000000e+00  2.6031904202439578e-05 4.1598363816328147e-04 0.0000000000000000e+00  5.6266992323933253e-06 4.1554806998522547e-04 0.0000000000000000e+00  1.1808483863931863e-05 2.0816221330441543e-04 0.0000000000000000e+00  4.8763384692481526e-06 2.2732793249478084e-04 0.0000000000000000e+00  2.3067505396481329e-05 2.2787818557371827e-04 0.0000000000000000e+00  1.8893670605702628e-05 4.8200740729429785e-04 0.0000000000000000e+00  2.7065474795425540e-05 4.5999806695805144e-04 0.0000000000000000e+00  6.4129126498568692e-06 4.5958682900410657e-04 0.0000000000000000e+00  1.9698181217721127e-05 5.2666369441792488e-04 0.0000000000000000e+00  2.7992044449118122e-05 5.0445998330963930e-04 0.0000000000000000e+00  7.1501527140327488e-06 5.0407518098806480e-04 0.0000000000000000e+00  2.0414089789299512e-05 5.7161065874897308e-04 0.0000000000000000e+00  2.8812042688690071e-05 5.4925939216368474e-04 0.0000000000000000e+00  7.8283749450257891e-06 5.4890290955384141e-04 0.0000000000000000e+00  2.1037784342121042e-05 6.1676743342368426e-04 0.0000000000000000e+00  2.9525510826676721e-05 5.9430648419945143e-04 0.0000000000000000e+00  8.4387069411823491e-06 5.9398005685765761e-04 0.0000000000000000e+00  2.1565635159625546e-05 6.6206912938894242e-04 0.0000000000000000e+00  3.0132046720634637e-05 6.3952865938820310e-04 0.0000000000000000e+00  8.9731122293718821e-06 6.3923396721636593e-04 0.0000000000000000e+00  2.1645741716504097e-05 7.0664905205456742e-04 0.0000000000000000e+00  3.0630693082205420e-05 6.8486813401207611e-04 0.0000000000000000e+00  9.3909067152353253e-06 6.8452922989766960e-04 0.0000000000000000e+00  3.9410089915393501e-06 1.8904285279632439e-04 0.0000000000000000e+00  2.1312315974352428e-05 1.8968443937641177e-04 0.0000000000000000e+00  1.4598803898640181e-05 2.8622975939041279e-04 0.0000000000000000e+00  1.5647164789062043e-05 3.5176524921553892e-04 0.0000000000000000e+00  5.1824971756306767e-05 6.5116289540368723e-04 0.0000000000000000e+00  5.1518467667172136e-05 6.2853906558956569e-04 0.0000000000000000e+00  5.2340194288557360e-05 6.9648345114801643e-04 0.0000000000000000e+00  5.2098660614855667e-05 6.7381306586247042e-04 0.0000000000000000e+00  -1.3674190945007782e-05 1.7950455324099827e-04 0.0000000000000000e+00  -1.3687282324785615e-05 1.9815935052869686e-04 0.0000000000000000e+00  4.8390788017919055e-05 4.7155254819581554e-04 0.0000000000000000e+00  4.7791135943015644e-05 4.4944652639490596e-04 0.0000000000000000e+00  5.1178648491841732e-05 6.0594742929066477e-04 0.0000000000000000e+00  5.0804627904302348e-05 5.8339586889271321e-04 0.0000000000000000e+00  4.9469364049851683e-05 5.1606498000189712e-04 0.0000000000000000e+00  4.8949630299663680e-05 4.9376368941919928e-04 0.0000000000000000e+00  5.0395770710574206e-05 5.6089179106791538e-04 0.0000000000000000e+00  4.9950943894199883e-05 5.3844508912713712e-04 0.0000000000000000e+00  -1.3647089509201397e-05 2.1728876293651943e-04 0.0000000000000000e+00  -1.3561203060781358e-05 2.3684359462476618e-04 0.0000000000000000e+00  4.7149523619916224e-05 4.2745944349169670e-04 0.0000000000000000e+00  4.6463890354308590e-05 4.0560951217571837e-04 0.0000000000000000e+00  -1.3434007725554031e-05 2.5678553274322241e-04 0.0000000000000000e+00  -1.3272036489483587e-05 2.7707374091681805e-04 0.0000000000000000e+00  4.5732858424003418e-05 3.8391350526698358e-04 0.0000000000000000e+00  4.4954014910630067e-05 3.6239335169712940e-04 0.0000000000000000e+00  1.5177881099451018e-05 8.3892681655193266e-04 0.0000000000000000e+00  4.2309080794113097e-05 2.9911639271258119e-04 0.0000000000000000e+00  -7.9982751279213087e-06 7.6400337339226684e-04 0.0000000000000000e+00  5.2874843036169623e-05 7.6457117509664619e-04 0.0000000000000000e+00  -1.3079158080638311e-05 2.9767467450999831e-04 0.0000000000000000e+00  3.9079919933358036e-05 7.7743967949164708e-04 0.0000000000000000e+00  3.8992234937129953e-05 8.2108011843948887e-04 0.0000000000000000e+00  4.4125464107893848e-05 3.4106957907760422e-04 0.0000000000000000e+00  -8.2718128730068522e-06 7.1849413616961516e-04 0.0000000000000000e+00  7.4161929718886378e-06 8.5506488979999106e-04 0.0000000000000000e+00  5.1675368949813214e-07 3.9364853277654681e-04 0.0000000000000000e+00  2.8227592870543318e-05 2.4779548687896497e-04 0.0000000000000000e+00  1.2586491387379991e-06 4.3741609564674989e-04 0.0000000000000000e+00  2.6330112335049334e-05 2.0868834328567756e-04 0.0000000000000000e+00  1.9719109242005909e-06 4.8169814433566193e-04 0.0000000000000000e+00  2.6431546026057275e-06 5.2637286008709561e-04 0.0000000000000000e+00  3.2607365572761267e-06 5.7134045749975481e-04 0.0000000000000000e+00  3.8143492730904389e-06 6.1651987884246337e-04 0.0000000000000000e+00  4.2946135101983959e-06 6.6184614390672432e-04 0.0000000000000000e+00  4.6926374248250753e-06 7.0726822901134823e-04 0.0000000000000000e+00  -2.3816789553373511e-07 3.5054340365166004e-04 0.0000000000000000e+00  5.2549893168125128e-05 7.1916951443054284e-04 0.0000000000000000e+00  -1.2621802783954308e-05 3.3968430609096576e-04 0.0000000000000000e+00  5.3640218051531385e-06 7.7708336279969298e-04 0.0000000000000000e+00  2.9609064723729296e-05 2.8693967638236640e-04 0.0000000000000000e+00  3.8870149495903191e-05 6.6230220789035351e-04 0.0000000000000000e+00  3.8293482043287754e-05 6.1703014736797564e-04 0.0000000000000000e+00  3.8486431485898468e-05 7.0683407278381558e-04 0.0000000000000000e+00  3.5843977676106464e-05 4.8235619117949902e-04 0.0000000000000000e+00  -2.6958110347147570e-06 2.0781388216911957e-04 0.0000000000000000e+00  3.4777174080836900e-05 4.3811809925821963e-04 0.0000000000000000e+00  -2.0572255696148208e-06 2.4694147509949109e-04 0.0000000000000000e+00  3.3577485021251969e-05 3.9439136177434780e-04 0.0000000000000000e+00  3.6783057777103614e-05 5.2698416252157983e-04 0.0000000000000000e+00  3.7598514759569586e-05 5.7190246210870503e-04 0.0000000000000000e+00  3.1458003760469932e-05 3.5205541467575640e-04 0.0000000000000000e+00  -1.0824841848980904e-06 2.8676424257885415e-04 0.0000000000000000e+00  -1.0654313196345154e-05 4.9262811433397865e-04 0.0000000000000000e+00  -1.0367478775675678e-05 5.1497071783393879e-04 0.0000000000000000e+00  -1.1236973138705528e-05 4.4823244084016517e-04 0.0000000000000000e+00  -1.0945051921605956e-05 4.7037740140001599e-04 0.0000000000000000e+00  3.9145461063273259e-05 2.3835409209084306e-04 0.0000000000000000e+00  3.7960681864835003e-05 2.1881630248945280e-04 0.0000000000000000e+00  -9.5500430290276151e-06 5.8243120528547482e-04 0.0000000000000000e+00  -9.2984845749192003e-06 6.0502834637325437e-04 0.0000000000000000e+00  -8.6299288151767040e-06 6.7303655481227534e-04 0.0000000000000000e+00  -8.4411836386433468e-06 6.9575691972381052e-04 0.0000000000000000e+00  -1.1814828275554054e-05 4.0432223046952338e-04 0.0000000000000000e+00  -1.1527949421686777e-05 4.2620843155747093e-04 0.0000000000000000e+00  -1.0086380517974177e-05 5.3739277648056087e-04 0.0000000000000000e+00  -9.8133601047175267e-06 5.5988297645911923e-04 0.0000000000000000e+00  4.1316386394538119e-05 2.7854062616169289e-04 0.0000000000000000e+00  4.0262628758937861e-05 2.5827498854600879e-04 0.0000000000000000e+00  -1.2365124460457016e-05 3.6103901023922484e-04 0.0000000000000000e+00  -1.2095095377667898e-05 3.8259229266301748e-04 0.0000000000000000e+00  -9.0601234332140754e-06 6.2766629612285327e-04 0.0000000000000000e+00  -8.8368335621267629e-06 6.5033781735383714e-04 0.0000000000000000e+00  -7.8971808413213226e-06 7.8677099484073844e-04 0.0000000000000000e+00  -7.8164761353914334e-06 8.0954728152640395e-04 0.0000000000000000e+00  3.6705174646094090e-05 1.9970308242723669e-04 0.0000000000000000e+00  1.1791175734159440e-09 4.2464762491263684e-08 0.0000000000000000e+00  8.8662419358624138e-10 3.1932998238994275e-08 0.0000000000000000e+00  6.3183476433434874e-10 2.2749557558603200e-08 0.0000000000000000e+00  8.3679234641768527e-10 3.0133846248443910e-08 0.0000000000000000e+00  0.0000000000000000e+00 0.0000000000000000e+00 0.0000000000000000e+00  0.0000000000000000e+00 0.0000000000000000e+00 0.0000000000000000e+00  1.5144296138936849e-11 5.4463400661350705e-10 0.0000000000000000e+00  6.1868551503709150e-06 4.8286306065452506e-04 0.0000000000000000e+00  6.2865159886968250e-06 3.7627194488441752e-04 0.0000000000000000e+00  8.3688419267010909e-06 4.3274664583431048e-04 0.0000000000000000e+00  1.4947823084495207e-05 2.6905658784288900e-04 0.0000000000000000e+00  1.7401770449736061e-05 3.4329104529639556e-04 0.0000000000000000e+00  2.3095346870594434e-05 3.9795159541050677e-04 0.0000000000000000e+00  2.0186999042353740e-05 3.2593981939069144e-04 0.0000000000000000e+00  5.8933525441360784e-06 1.4335835473774681e-04 0.0000000000000000e+00  9.2358695919453831e-06 2.3172094429249954e-04 0.0000000000000000e+00  8.2307112150071612e-06 1.7875544905029373e-04 0.0000000000000000e+00  4.2160712077881071e-10 1.5179477158397672e-08 0.0000000000000000e+00  4.2242029707060409e-10 1.5207878205261227e-08 0.0000000000000000e+00  3.4794744208419990e-11 1.2516255523430629e-09 0.0000000000000000e+00  -7.2771414699857131e-06 4.2843448490801831e-04 0.0000000000000000e+00  -6.2891370605588002e-06 3.8291250022855428e-04 0.0000000000000000e+00  -7.6188117342873816e-06 3.9080822107410334e-04 0.0000000000000000e+00  3.9987522608561917e-05 3.6566666201818691e-04 0.0000000000000000e+00  3.6017843920208154e-05 3.2056848607295931e-04 0.0000000000000000e+00  3.7352772965899286e-05 3.5992762282239870e-04 0.0000000000000000e+00  -8.6299333291336595e-06 3.5007623238143712e-04 0.0000000000000000e+00  -7.6357310221094050e-06 3.5137898763323432e-04 0.0000000000000000e+00  -8.5076291655329611e-06 3.7662796904025444e-04 0.0000000000000000e+00  -1.1903644901528100e-05 2.5041764974754658e-04 0.0000000000000000e+00  -1.2663477616926053e-05 2.6008627633837626e-04 0.0000000000000000e+00  -1.2858443044049880e-05 2.4159964633500584e-04 0.0000000000000000e+00  3.5400966667521759e-05 4.0213986669721105e-04 0.0000000000000000e+00  3.3320305872259025e-05 4.0642334479133545e-04 0.0000000000000000e+00  3.7359766033207508e-05 4.5142150922838486e-04 0.0000000000000000e+00  4.3633536413308731e-05 6.6987357626326505e-04 0.0000000000000000e+00  3.6373404386086627e-05 5.7089501848759186e-04 0.0000000000000000e+00  4.0504754467301931e-05 6.5457277984080811e-04 0.0000000000000000e+00  5.1208373952900281e-08 1.8534434096678409e-06 0.0000000000000000e+00  2.0513770869759497e-08 7.4118689700156564e-07 0.0000000000000000e+00  4.4788682550316058e-08 1.6166397084024194e-06 0.0000000000000000e+00  0.0000000000000000e+00 0.0000000000000000e+00 0.0000000000000000e+00  2.2376570422792502e-11 8.0480484992821980e-10 0.0000000000000000e+00  6.0197190968484273e-12 2.1646151154495379e-10 0.0000000000000000e+00  1.7324259474535795e-06 6.2594459659638454e-05 0.0000000000000000e+00  1.0717649654613917e-06 3.9476026331502963e-05 0.0000000000000000e+00  1.6488635933658242e-06 6.3789576264742896e-05 0.0000000000000000e+00  1.2389689410406575e-05 2.6237711533799236e-04 0.0000000000000000e+00  1.8150208590145831e-05 4.0481441981900202e-04 0.0000000000000000e+00  1.3082469319876930e-05 3.1862671222336386e-04 0.0000000000000000e+00  0.0000000000000000e+00 0.0000000000000000e+00 0.0000000000000000e+00  0.0000000000000000e+00 0.0000000000000000e+00 0.0000000000000000e+00  4.3283482251915904e-09 1.5604878125189642e-07 0.0000000000000000e+00  0.0000000000000000e+00 0.0000000000000000e+00 0.0000000000000000e+00  0.0000000000000000e+00 0.0000000000000000e+00 0.0000000000000000e+00  3.3854705952184246e-09 1.2193848814839449e-07 0.0000000000000000e+00  4.2609310536898508e-05 4.7336540022129838e-04 0.0000000000000000e+00  3.8705784387631978e-05 4.1708408080551714e-04 0.0000000000000000e+00  3.9229749384365874e-05 4.5439123627680732e-04 0.0000000000000000e+00  -1.1083612137718954e-05 3.2343660311898176e-04 0.0000000000000000e+00  -1.0445930387634726e-05 3.4047942084075670e-04 0.0000000000000000e+00  -1.0352268436538651e-05 2.9599141203568379e-04 0.0000000000000000e+00  0.0000000000000000e+00 0.0000000000000000e+00 0.0000000000000000e+00  2.0605130024506008e-07 7.7149945367754429e-06 0.0000000000000000e+00  1.0477666385833754e-07 3.8539801291964567e-06 0.0000000000000000e+00  1.0366633964853030e-06 4.1012744737006249e-05 0.0000000000000000e+00  1.3567003279932578e-07 4.8971739187428453e-06 0.0000000000000000e+00  9.2330584400614325e-08 3.3467968220399787e-06 0.0000000000000000e+00  1.5572861676309250e-07 5.6724428061252031e-06 0.0000000000000000e+00  -4.6284122175797790e-06 6.1415630935576478e-04 0.0000000000000000e+00  -5.4155152276668042e-06 6.9324952489662037e-04 0.0000000000000000e+00  -3.2918092383882912e-06 6.4040461297144836e-04 0.0000000000000000e+00  3.3501036833098085e-06 7.4802202578171583e-05 0.0000000000000000e+00  6.4685621397187686e-06 1.7519756510646169e-04 0.0000000000000000e+00  3.0225743307581406e-10 1.0879906489989123e-08 0.0000000000000000e+00  5.8653930194116122e-06 1.1741038812315234e-04 0.0000000000000000e+00  -7.9541095237020429e-07 2.8028608826899490e-04 0.0000000000000000e+00  7.8711596971836267e-07 2.3109009556763485e-04 0.0000000000000000e+00  4.6975093236546827e-07 3.1490063176555703e-04 0.0000000000000000e+00  -4.0100437124993258e-06 5.2351471909508121e-04 0.0000000000000000e+00  -2.5665863830678901e-06 5.5370212203772074e-04 0.0000000000000000e+00  -7.3678636183432001e-06 5.0932640540294954e-04 0.0000000000000000e+00  -6.4264450395034599e-06 5.1467264729744458e-04 0.0000000000000000e+00  -6.8029101355456168e-06 4.6564838091003993e-04 0.0000000000000000e+00  2.6396594373130974e-05 3.5474621299847077e-04 0.0000000000000000e+00  3.1326571555454683e-05 4.0569784131262889e-04 0.0000000000000000e+00  2.8441709915036232e-05 3.4752732341311891e-04 0.0000000000000000e+00  2.9968262544418706e-05 4.7508857249216091e-04 0.0000000000000000e+00  3.0675572000230628e-05 4.5082859101296379e-04 0.0000000000000000e+00  3.4137508853856860e-05 5.1147687321736340e-04 0.0000000000000000e+00  0.0000000000000000e+00 0.0000000000000000e+00 0.0000000000000000e+00  0.0000000000000000e+00 0.0000000000000000e+00 0.0000000000000000e+00  4.4886942055512092e-07 1.7816559968323989e-05 0.0000000000000000e+00  -6.1955972052671122e-06 4.2389970630199317e-04 0.0000000000000000e+00  3.5002196292375930e-05 5.9636283066071395e-04 0.0000000000000000e+00  2.8422594658399503e-08 1.0247857421658330e-06 0.0000000000000000e+00  -5.1601315049500227e-06 1.9314610865149015e-04 0.0000000000000000e+00  -4.2807377720838780e-06 1.3690341105049398e-04 0.0000000000000000e+00  -5.8200061928715560e-06 1.7045782241660847e-04 0.0000000000000000e+00  0.0000000000000000e+00 0.0000000000000000e+00 0.0000000000000000e+00  6.2196787796756370e-07 2.6639026909464420e-05 0.0000000000000000e+00  6.8649494734289122e-07 3.3473791952227439e-05 0.0000000000000000e+00  0.0000000000000000e+00 0.0000000000000000e+00 0.0000000000000000e+00  2.3080861349238568e-08 8.3571245173480030e-07 0.0000000000000000e+00  0.0000000000000000e+00 0.0000000000000000e+00 0.0000000000000000e+00  1.8926950398618266e-08 6.8094125025508221e-07 0.0000000000000000e+00  2.3283099129380487e-08 8.3626948008178365e-07 0.0000000000000000e+00  3.3732608931749401e-06 1.2057847234788072e-04 0.0000000000000000e+00  5.1508931105747914e-06 1.5939275768030915e-04 0.0000000000000000e+00  4.7862479067234635e-06 1.7656706453089883e-04 0.0000000000000000e+00  2.7766558351186136e-05 3.1081868373498489e-04 0.0000000000000000e+00  3.1367481070238922e-05 3.6398528315877566e-04 0.0000000000000000e+00  -8.8204004943837692e-06 4.1230319294022720e-04 0.0000000000000000e+00  -8.2905094589034376e-06 4.3091909515482362e-04 0.0000000000000000e+00  2.2593998661104748e-06 7.5371111923919603e-05 0.0000000000000000e+00  1.2967063057659542e-06 4.5420819031128843e-05 0.0000000000000000e+00  -6.4202106062796298e-06 2.1166564133886915e-04 0.0000000000000000e+00  1.2560040202958619e-06 4.1745362877359821e-05 0.0000000000000000e+00  -1.2167265945652403e-05 2.2647050882562797e-04 0.0000000000000000e+00  0.0000000000000000e+00 0.0000000000000000e+00 0.0000000000000000e+00  2.1750531353072465e-07 7.5777016050034221e-06 0.0000000000000000e+00  1.1211208077350783e-07 3.9704813730479933e-06 0.0000000000000000e+00  -2.3095100550210393e-06 3.5988914664924305e-04 0.0000000000000000e+00  -8.4557566778887761e-07 3.6606995778286518e-04 0.0000000000000000e+00  -2.2009069702946345e-06 4.7875531334024398e-04 0.0000000000000000e+00  -3.7100724803056133e-06 4.4880317777747320e-04 0.0000000000000000e+00  2.2156629103383026e-06 4.6962331866095441e-04 0.0000000000000000e+00  3.7267143457121049e-06 3.8787861674808948e-04 0.0000000000000000e+00  -4.5239656371539592e-06 4.0246026977252246e-04 0.0000000000000000e+00  -3.3705914027142956e-06 3.5912945606935407e-04 0.0000000000000000e+00  1.0172347462721234e-05 8.7900829008136778e-05 0.0000000000000000e+00  5.9386674575718349e-06 4.7076037165672857e-05 0.0000000000000000e+00  1.2549853114505093e-05 9.7510811510093505e-05 0.0000000000000000e+00  -6.5240175687054640e-06 3.3613072312917711e-04 0.0000000000000000e+00  2.0666551067882383e-07 7.9198734293435348e-06 0.0000000000000000e+00  -2.4373823056772865e-06 2.3137731002745949e-04 0.0000000000000000e+00  -2.2963499520072924e-06 1.5775589669913680e-04 0.0000000000000000e+00  -3.37936213806