<?xml version="1.0"?>
<VTKFile type="UnstructuredGrid"  version="0.1"  >
<UnstructuredGrid>
<Piece  NumberOfPoints="718" NumberOfCells="1330">
<Points>
<DataArray  type="Float64"  NumberOfComponents="3"  format="ascii">0.3535460261755617 0.19 0  0.3528922713220932 0.2000185703532356 0  0.3590076176283495 0.196411355804271 0  0.3012679105156187 0.19 0  0.3006558810093873 0.1999966199048318 0  0.3066757059912147 0.1964092924317024 0  0.3473758401723931 0.1961819304478349 0  0.2950977245127906 0.1961819304477774 0  0.3535460261749672 0.21 0  0.3473758401724931 0.2038180695522752 0  0.301267910515333 0.21 0  0.2950977245128307 0.2038180695522663 0  0.3590471196690275 0.2036304442587945 0  0.3067669986803285 0.203627750582736 0  0.2607803159922026 0.2000727136295815 0  0.2677053789419034 0.1964246479135325 0  0.267698176732111 0.2039977513680092 0  0.2751288526855082 0.20000000000002 0  0.2603913042767976 0.1945999920783741 0  0.2639263993299336 0.19 0  0.25 0.2 0  0.2497468076502589 0.2050254481002335 0  0.2550657455369551 0.2034088125358657 0  0.3650630746574081 0.199866017807523 0  0.3722167817676917 0.2029084173136195 0  0.372246743208829 0.1959123236376545 0  0.3274069683451451 0.2000000000000796 0  0.3348752705822316 0.202908417313609 0  0.3347912413592433 0.1959225448935183 0  0.3127789816668748 0.1998657885438805 0  0.3199386661080599 0.202908417313604 0  0.3199680582793816 0.1959123018030061 0  0.2825131256993216 0.2035478995978015 0  0.2825051229162361 0.1959834479681729 0  0.2894621222999649 0.1998691686390484 0  0.3417402379596385 0.1998691686391011 0  0.2713947015670686 0.19 0  0.2788630038040554 0.21 0  0.2863313060411479 0.21 0  0.3162045149895234 0.21 0  0.3236728172265972 0.21 0  0.3311411194636928 0.21 0  0.3386094217007701 0.21 0  0.3460777239384295 0.19 0  0.2937996082784807 0.19 0  0.2937996082782405 0.21 0  0.3460777239378666 0.21 0  0.2601812407614425 0.2056861609747042 0  0.3087362127527544 0.19 0  0.361014328412667 0.19 0  0.2497468076502614 0.1949745518997913 0  0.2548908499171161 0.1966940311614271 0  0.2751288526855081 0.205697194228819 0  0.3647484795312433 0.1943028057712484 0  0.3274069683455914 0.1943028057712305 0  0.3124703638713219 0.1943028057712193 0  0.2751288526856362 0.1943028057711959 0  0.3610143284120516 0.21 0  0.3087362127524279 0.21 0  0.2895549462647731 0.1944069323160756 0  0.341834128962283 0.1943988119061815 0  0.3684826306491596 0.21 0  0.3650260178642469 0.2054197153269502 0  0.3274069683451451 0.2056971942288527 0  0.312746837849954 0.2054193256016435 0  0.2564580970927985 0.19 0  0.2525889069107169 0.1926036384190297 0  0.341845332858566 0.2054104280253135 0  0.2897864851748124 0.2055930218738881 0  0.25645809709277 0.21 0  0.25261805618068 0.2074135021971937 0  0.2639263993298655 0.21 0  0.271394701566961 0.21 0  0.3759509328869369 0.19 0  0.3684826306498175 0.19 0  0.3386094217012945 0.19 0  0.3311411194641595 0.19 0  0.3236728172270245 0.19 0  0.3162045149898895 0.19 0  0.2863313060413428 0.19 0  0.2788630038042048 0.19 0  0.2489897948556636 0.19 0  0.2489897948556636 0.21 0  0.3411792619035872 0.1007807988883264 0  0.3223547013037051 0.0811661342953541 0  0.3444094697767079 0.06991525711561337 0  0.3605639237643 0.2793006923612668 0  0.3754967205959606 0.2925860795314694 0  0.3727949441736886 0.2687069143756727 0  0.1123698019379044 0.2058991360802581 0  0.1106531987626008 0.1894643335925837 0  0.09638298985168356 0.2000713960717276 0  0.0534241021414831 0.2075428856341382 0  0.07538638723190919 0.1915913195394167 0  0.06726459509928774 0.2147740778951952 0  0.3265012756581966 0.2702065959162994 0  0.3425185051143286 0.277559411241074 0  0.3236350239119228 0.2946877384927431 0  0.3871536388992142 0.2768042805511501 0  0.05117116986370451 0.1453484941029572 0  0.028576868323113 0.1257840022252348 0  0.02526469030969892 0.1581631046774197 0  0.2731077660562961 0.05508844879223635 0  0.2987388406956894 0.03154986994134981 0  0.2542757755299287 0.02753888901404131 0  0.3578728954606922 0.1299960675997348 0  0.3428550702839791 0.1207298864326248 0  0.3606088315611094 0.1037277084934985 0  0.3655464778159961 0.1466879707354811 0  0.3738358170836363 0.1565872175614931 0  0.383930166391577 0.149077512173999 0  0.1643783325218296 0.1320455275536215 0  0.1492552100538899 0.1320415135830948 0  0.1603037058708973 0.1432581839427922 0  0.07781603907681035 0.1514291067465787 0  0.06748599119092742 0.1295390004813558 0  0.2286913662688903 0.3133959500822503 0  0.2457579136251883 0.3036253283210157 0  0.2370120387482942 0.3305347050441392 0  0.1133943915886014 0.3302098901172357 0  0.1085927601152855 0.3576703429582752 0  0.1291050229147523 0.3369598757086243 0  0.1876570762350594 0.2701429686523801 0  0.1759534499456636 0.268744809012302 0  0.1862475166430347 0.2806184243256064 0  0.2767628315692916 0.1210799475693868 0  0.260361447596534 0.1229759280558447 0  0.2739511166480145 0.1012903426171407 0  0.228090483983057 0.1360461642521307 0  0.2156274396954392 0.1428329882811742 0  0.2231096629876289 0.1473860403476538 0  0.3642910294882131 0.08514217524358583 0  0.04799687037553593 0.1900185470502504 0  0.1704873609912336 0.2583583661241701 0  0.1801707401936674 0.2578452677740249 0  0 0.3514285714286952 0  0.03215830272795324 0.3311110896359255 0  0.02400550655420258 0.3538155845945724 0  0.09145562669711395 0.175668370620234 0  0.09635163646555502 0.1596076048115481 0  0.07646146193815946 0.1687797331838 0  0 0.05857142857161107 0  0 0.02928571428580012 0  0.02797905238142366 0.04239836249189064 0  0.3009672322348927 0.299853464475565 0  0.2860802002973516 0.3223921533999551 0  0.2799076752212695 0.2955946972235118 0  0.1521457199348437 0.2144902684393899 0  0.1547844879126531 0.221343792228163 0  0.1460074103989341 0.2155962236814484 0  0.06224717571675014 0.16049953533406 0  0.2004289920815778 0.2885787263743592 0  0.2083656065158181 0.2774025780460683 0  0.2175887234644184 0.2860477873464338 0  0 0.1464285714289574 0  0.3656958473839882 0.2539056765427533 0  0.3826544750917113 0.2574975795502557 0  0.3742999258550256 0.2455889756585279 0  0.1340109150974826 0.1326286508362426 0  0.1230381620938855 0.1450531231009962 0  0.1371388187715824 0.1487519394947238 0  0.09921229729781815 0.216694589313852 0  0.1987596795720009 0.2706417532988148 0  0 0.3221428571430699 0  0.1502170850938848 0.1478553695050668 0  0.1022962111550141 0.273832470550381 0  0.1121786756446853 0.257597694764058 0  0.1185619469878228 0.2730177051871591 0  0.09898678642452967 0.1862327908870533 0  0.1843109002236991 0.1108412192449581 0  0.1663792634974669 0.1129031590983526 0  0.1730791557496665 0.09449610930120438 0  0.05939492550527375 0.3149957962361826 0  0.03411173555592004 0.3013214948275056 0  0.1949745518995776 0.2497468076502398 0  0.202315810036185 0.2499463414463592 0  0.1988936168129591 0.2591743361304991 0  0.1497148406801674 0.1059683048239758 0  0.1319376419904144 0.1078314072630599 0  0.1422873301607691 0.09099989767432708 0  0.3684404229859068 0.05879875930223131 0  0.3866266297147894 0.03466711669742863 0  0.3886771468199661 0.07134613381357163 0  0.1503920612246686 0.252658552798053 0  0.1407371787724462 0.2442700623456801 0  0.1431093770171943 0.2599228455937608 0  0.09191660917863548 0.3399083220637153 0  0.1291780217515827 0.2400382025520897 0  0.1325512871714925 0.2548933203634119 0  0.05400790163887537 0.1101452894911868 0  0.03212895351398194 0.09444182905744057 0  0.3119706532029335 0.280741853274607 0  0.1613699074131162 0.2874965309748423 0  0.1497954449456231 0.3068853213507886 0  0.1704962809759384 0.2989815459796012 0  0.1292063859387973 0.160179270973018 0  0.29813678539982 0.236276478175315 0  0.3103932646053297 0.2435733951751842 0  0.2950877208402625 0.2480324151406079 0  0.2571393426600714 0.09909224058133874 0  0.2802365149396702 0.2293267412254819 0  0.2888197773682229 0.2217624015035644 0  0.2799011483571476 0.2201540359780956 0  0.1273239957535623 0.41 0  0.1550887940203835 0.3759695678273732 0  0.1305531867707806 0.3723894882772687 0  0.2328041563607919 0.2914013345123573 0  0.2145757352600842 0.3012314566270872 0  0.3718691980658081 0.1185113859721947 0  0.06140001986584975 0.41 0  0.08484979611354741 0.3801877867628078 0  0.05922009696123734 0.3774661510110062 0  0.1314207338941352 0.2277905748945162 0  0.1208839583881551 0.2181173442085023 0  0.1226326835593179 0.232510509637589 0  0.2199699516855607 0.2730509421907208 0  0.2088779690661671 0.2650057074514391 0  0.2335552553807713 0.3548019770067952 0  0.216380800632318 0.3798697230577418 0  0.2537725505472335 0.3777585525832137 0  0.09377624077128965 0.41 0  0.09380266644077194 0.2576101652245613 0  0.3141745521466497 0.41 0  0.3098481778850767 0.3708824362367037 0  0.2803555148413351 0.3762695151888899 0  0.3830052789765099 0.2465504596596307 0  0.1712191068054211 0.2792458170307043 0  0.2798983539554935 0.1725715317274126 0  0.2887875715604008 0.1784526411902859 0  0.2798265752054099 0.1801908109055989 0  0.3750556316230105 0.1339831864103567 0  0.1315669208937715 0.2153401624373302 0  0.08319468457824891 0.2132940804249223 0  0.05506284017382649 0.2425906156552861 0  0.03234799839792719 0.2322323714096635 0  0.03317213267821684 0.2576605437337542 0  0.235428184091502 0 0  0.2269089833956681 0.04173965335049001 0  0.2054867233040618 0.02496467843107029 0  0.0655461589766832 0.3354809920423228 0  0.3938502830802056 0.3095497484347601 0  0.3641563190507836 0.3179653487982807 0  0.3934922780344484 0.3350540779420794 0  0.132972307375135 0.2702075053542861 0  0.1310410255455362 0.2846992571580754 0  0.3236197880522565 0.342390365483443 0  0.3436434970543172 0.3743236175823911 0  0.2607466101664424 0.2266930975791233 0  0.271385042995999 0.2220255791858506 0  0.2640363109795177 0.2179944263838653 0  0.1877417105387872 0.1515259415822739 0  0.1807733240461124 0.153844448527136 0  0.1810237202008071 0.1443964565620037 0  0.05202618668915951 0.3533574174069209 0  0.0341778808147269 0.3756898840960821 0  0.3418128
[...]
<PointData  Vectors="d"> 
<DataArray  type="Float64"  Name="d"  NumberOfComponents="3" format="ascii">3.2847089319434389e-05 1.4773749465004870e-04 0.0000000000000000e+00  9.3715325390519752e-06 1.4502186307632412e-04 0.0000000000000000e+00  1.8553100026682053e-05 1.5991048962261679e-04 0.0000000000000000e+00  1.9454303985157535e-05 4.4700794445944958e-05 0.0000000000000000e+00  4.5638898083058576e-06 4.2293389290529726e-05 0.0000000000000000e+00  1.0825547676745954e-05 5.2069180677561643e-05 0.0000000000000000e+00  1.7520699181759048e-05 1.3262226670691623e-04 0.0000000000000000e+00  9.1389104012266345e-06 3.4693729390878108e-05 0.0000000000000000e+00  -1.3863312882788366e-05 1.4616561710629713e-04 0.0000000000000000e+00  3.0579609035240303e-07 1.3202186798227250e-04 0.0000000000000000e+00  -1.0220317150266893e-05 4.3182350954095796e-05 0.0000000000000000e+00  -1.0580390400204643e-06 3.4121354417977965e-05 0.0000000000000000e+00  1.2900966882759731e-06 1.5944161675600208e-04 0.0000000000000000e+00  -6.3860441810845765e-07 5.1667112950510041e-05 0.0000000000000000e+00  8.3464256612683234e-07 2.3832383187004007e-06 0.0000000000000000e+00  3.6481256129727343e-06 6.5122926863554178e-06 0.0000000000000000e+00  -8.6544254690355956e-07 5.9902727136874753e-06 0.0000000000000000e+00  2.1975040739674797e-06 1.1738153582100157e-05 0.0000000000000000e+00  2.8153283988459287e-06 2.9467752609839816e-06 0.0000000000000000e+00  6.0907919537212732e-06 5.6831520212540315e-06 0.0000000000000000e+00  0.0000000000000000e+00 0.0000000000000000e+00 0.0000000000000000e+00  0.0000000000000000e+00 0.0000000000000000e+00 0.0000000000000000e+00  -2.0809591886231438e-07 4.2161181477878601e-07 0.0000000000000000e+00  1.0839377865314272e-05 1.7440404997000932e-04 0.0000000000000000e+00  3.8020438342108589e-06 1.9215978791307781e-04 0.0000000000000000e+00  2.1473499194500179e-05 1.9280355798038904e-04 0.0000000000000000e+00  7.0614064666373434e-06 8.9429114702435403e-05 0.0000000000000000e+00  1.7006599707805552e-06 1.0459739453220431e-04 0.0000000000000000e+00  1.6242060085414791e-05 1.0500912141344425e-04 0.0000000000000000e+00  5.9225399818408078e-06 6.2006185741087349e-05 0.0000000000000000e+00  1.0096750570851945e-06 7.4783451461474709e-05 0.0000000000000000e+00  1.3899468212830496e-05 7.5431390576085326e-05 0.0000000000000000e+00  -7.5033025209800043e-07 1.8732302427666629e-05 0.0000000000000000e+00  6.9794985518432630e-06 1.9307433508169459e-05 0.0000000000000000e+00  3.6740633553021293e-06 2.6921952393028095e-05 0.0000000000000000e+00  8.6777539244558209e-06 1.1962483932783760e-04 0.0000000000000000e+00  9.0544453426657023e-06 1.0419835037805077e-05 0.0000000000000000e+00  -6.8059027777190739e-06 1.5362199089608477e-05 0.0000000000000000e+00  -8.0985379281489304e-06 2.3258472521747431e-05 0.0000000000000000e+00  -1.1806101670885818e-05 6.7922766748686872e-05 0.0000000000000000e+00  -1.2416869836087081e-05 8.1860756348551544e-05 0.0000000000000000e+00  -1.2918772935328216e-05 9.6733004638766351e-05 0.0000000000000000e+00  -1.3322973988480377e-05 1.1245427153284270e-04 0.0000000000000000e+00  3.1250048012903007e-05 1.3053114238626543e-04 0.0000000000000000e+00  1.7071002307548944e-05 3.4067258288122435e-05 0.0000000000000000e+00  -9.2339317591722352e-06 3.2570071164792668e-05 0.0000000000000000e+00  -1.3635186667896395e-05 1.2895642100231911e-04 0.0000000000000000e+00  -1.1804648328213516e-06 2.1003909964417338e-06 0.0000000000000000e+00  2.1714383684942547e-05 5.6533701839841881e-05 0.0000000000000000e+00  3.4359030426665623e-05 1.6558700968883637e-04 0.0000000000000000e+00  0.0000000000000000e+00 0.0000000000000000e+00 0.0000000000000000e+00  8.5187664539850585e-07 7.5954749006133926e-07 0.0000000000000000e+00  -2.4751822237675982e-06 1.1638505820274337e-05 0.0000000000000000e+00  2.4468665621601917e-05 1.7417025072173259e-04 0.0000000000000000e+00  1.8284876605163326e-05 9.0050269044565916e-05 0.0000000000000000e+00  1.5384745236585835e-05 6.2106639117685727e-05 0.0000000000000000e+00  6.8699865691381326e-06 1.2460122847064699e-05 0.0000000000000000e+00  -1.4021884572701803e-05 1.6402118104574275e-04 0.0000000000000000e+00  -1.1078802894174217e-05 5.4997139569453910e-05 0.0000000000000000e+00  1.0263255199421142e-05 2.7699477128407347e-05 0.0000000000000000e+00  2.0634143263163735e-05 1.2040453076938711e-04 0.0000000000000000e+00  -1.4110330419284041e-05 1.8246713277539247e-04 0.0000000000000000e+00  -2.7991049807431832e-06 1.7397883145342448e-04 0.0000000000000000e+00  -4.1545984894395914e-06 8.9158530471823507e-05 0.0000000000000000e+00  -3.5800312612177093e-06 6.1709621585903464e-05 0.0000000000000000e+00  3.0773008376995464e-06 2.6206271842735471e-06 0.0000000000000000e+00  9.2840218014425526e-07 9.1779527818752139e-07 0.0000000000000000e+00  -3.4049265158146157e-06 1.1955377964459113e-04 0.0000000000000000e+00  -3.2232024703356560e-06 2.7158571189318544e-05 0.0000000000000000e+00  -1.8412324250713564e-06 1.3520385134565914e-06 0.0000000000000000e+00  -4.8842586889173308e-07 3.0132258820818335e-07 0.0000000000000000e+00  -3.6975139372724128e-06 4.2674528398229661e-06 0.0000000000000000e+00  -5.3480283626673396e-06 8.9896531789171968e-06 0.0000000000000000e+00  3.7127053589434985e-05 2.0298905976258550e-04 0.0000000000000000e+00  3.5783320408475379e-05 1.8402339713611583e-04 0.0000000000000000e+00  2.9556077519272098e-05 1.1402886171417112e-04 0.0000000000000000e+00  2.7760578237152155e-05 9.8302185009086794e-05 0.0000000000000000e+00  2.5859516640261308e-05 8.3423982972439465e-05 0.0000000000000000e+00  2.3846086393569163e-05 6.9473419778035890e-05 0.0000000000000000e+00  1.4546825946208604e-05 2.4732177883019830e-05 0.0000000000000000e+00  1.1876068642266429e-05 1.6810742289946523e-05 0.0000000000000000e+00  0.0000000000000000e+00 0.0000000000000000e+00 0.0000000000000000e+00  0.0000000000000000e+00 0.0000000000000000e+00 0.0000000000000000e+00  1.4042456461891706e-05 8.7058162859934217e-05 0.0000000000000000e+00  9.6735805263617558e-06 5.8632892357934382e-05 0.0000000000000000e+00  9.7922056460120825e-06 6.5304411128501764e-05 0.0000000000000000e+00  -7.0852600893078576e-06 1.2767659381408410e-04 0.0000000000000000e+00  -6.3648892700457678e-06 1.3513489791821320e-04 0.0000000000000000e+00  -8.1162023284635501e-06 1.5398513725365404e-04 0.0000000000000000e+00  1.6734334459664197e-08 5.9620570900285107e-07 0.0000000000000000e+00  5.0939570044057770e-08 5.9919887857893439e-07 0.0000000000000000e+00  2.9938292844211170e-08 6.2352553133579172e-07 0.0000000000000000e+00  1.3833483320421780e-08 4.5184453785115572e-07 0.0000000000000000e+00  3.9777611152026379e-08 5.7039546329753073e-07 0.0000000000000000e+00  7.3407960044570167e-09 5.5872093760423432e-07 0.0000000000000000e+00  -6.6856289115107240e-06 8.8712738558197849e-05 0.0000000000000000e+00  -6.7579322270353579e-06 1.0539436600270643e-04 0.0000000000000000e+00  -5.0703596579866979e-06 7.6389967751322820e-05 0.0000000000000000e+00  -7.6215702390020771e-06 1.6791067243008111e-04 0.0000000000000000e+00  7.3148449050756400e-08 4.8549629107273731e-07 0.0000000000000000e+00  4.6823701897819240e-08 2.8442878774198239e-07 0.0000000000000000e+00  2.9419301124418546e-08 2.3067818494676353e-07 0.0000000000000000e+00  4.0076530414701778e-06 2.2307646247545913e-05 0.0000000000000000e+00  3.0506906905145871e-06 1.8514183700852150e-05 0.0000000000000000e+00  1.6272687053377158e-06 8.9811188696631353e-06 0.0000000000000000e+00  2.0833891632073786e-05 1.2798461892079671e-04 0.0000000000000000e+00  1.7311241917871668e-05 1.0201782334367290e-04 0.0000000000000000e+00  1.6442041479131934e-05 1.0956572762166645e-04 0.0000000000000000e+00  2.5162467420693003e-05 1.5232934627198622e-04 0.0000000000000000e+00  2.8514687548120236e-05 1.7506890660775045e-04 0.0000000000000000e+00  2.8174291235371978e-05 1.8745485067789503e-04 0.0000000000000000e+00  4.6434343778411001e-07 2.2622630826409842e-06 0.0000000000000000e+00  3.7912760781772802e-07 1.8880752642526863e-06 0.0000000000000000e+00  2.8591016962599285e-07 1.4102333141237034e-06 0.0000000000000000e+00  1.0811760845778826e-07 7.0687689522749039e-07 0.0000000000000000e+00  1.1925983736250497e-07 6.9681415937891156e-07 0.0000000000000000e+00  -1.3224689974644285e-06 1.6199752646852308e-05 0.0000000000000000e+00  -1.8710077712394752e-06 2.2430390184305710e-05 0.0000000000000000e+00  -1.3343615987161394e-06 1.7311220388639969e-05 0.0000000000000000e+00  -1.5721505068768121e-07 2.0140458398806797e-06 0.0000000000000000e+00  -1.1494118486775666e-07 1.4723423455414009e-06 0.0000000000000000e+00  -2.0163043002705697e-07 2.5537780049270295e-06 0.0000000000000000e+00  -3.4792181362820095e-07 3.9955129088098202e-06 0.0000000000000000e+00  -2.6234051925439002e-07 3.0878068671734973e-06 0.0000000000000000e+00  -4.5232145903959515e-07 5.2665761060571900e-06 0.0000000000000000e+00  8.2725330361981269e-06 3.8261427777674271e-05 0.0000000000000000e+00  6.1569258452722914e-06 2.7547972405467531e-05 0.0000000000000000e+00  6.9383232936405016e-06 3.4726012187149841e-05 0.0000000000000000e+00  2.2364293312164865e-06 9.6692014138339315e-06 0.0000000000000000e+00  9.1077239687243976e-07 4.0022173688408165e-06 0.0000000000000000e+00  9.7117088977224510e-07 4.0990213647182196e-06 0.0000000000000000e+00  1.3578743390611699e-05 9.5105423864342908e-05 0.0000000000000000e+00  2.8126320806007531e-08 4.0187235194780095e-07 0.0000000000000000e+00  -1.4930580124357692e-07 1.7849387614876908e-06 0.0000000000000000e+00  -1.5278613505752308e-07 1.7793178087419351e-06 0.0000000000000000e+00  0.0000000000000000e+00 0.0000000000000000e+00 0.0000000000000000e+00  -2.6808614187317119e-08 3.7332589009788957e-07 0.0000000000000000e+00  -1.6446240945446136e-08 2.2316915967042348e-07 0.0000000000000000e+00  7.6484748897933062e-08 6.6247086810552802e-07 0.0000000000000000e+00  1.1787054905274877e-07 7.8269898613098651e-07 0.0000000000000000e+00  7.6808631412030291e-08 6.2155536139962069e-07 0.0000000000000000e+00  0.0000000000000000e+00 0.0000000000000000e+00 0.0000000000000000e+00  0.0000000000000000e+00 0.0000000000000000e+00 0.0000000000000000e+00  3.2909124057112573e-08 1.7180188501860939e-07 0.0000000000000000e+00  -4.0139831220028244e-06 5.5115821563184030e-05 0.0000000000000000e+00  -2.7088681531309572e-06 3.8707832021244965e-05 0.0000000000000000e+00  -3.3229301095838139e-06 4.1017536685986360e-05 0.0000000000000000e+00  0.0000000000000000e+00 0.0000000000000000e+00 0.0000000000000000e+00  0.0000000000000000e+00 0.0000000000000000e+00 0.0000000000000000e+00  -4.7714065678961798e-09 1.9154555327414426e-07 0.0000000000000000e+00  7.2672124509979483e-08 5.4656423917074963e-07 0.0000000000000000e+00  -7.0730845055652705e-07 8.1733876094608628e-06 0.0000000000000000e+00  -7.2959335866304417e-07 8.1041331447586247e-06 0.0000000000000000e+00  -1.0381839262969399e-06 1.1653866099359784e-05 0.0000000000000000e+00  0.0000000000000000e+00 0.0000000000000000e+00 0.0000000000000000e+00  -9.2671698717002934e-06 1.5379166022825216e-04 0.0000000000000000e+00  -9.1700563064083429e-06 1.8059899572903478e-04 0.0000000000000000e+00  -1.0180279162821004e-05 1.7535379623262316e-04 0.0000000000000000e+00  3.0814067314930270e-07 1.5774261736435696e-06 0.0000000000000000e+00  2.0931136112067509e-07 1.1377551270668446e-06 0.0000000000000000e+00  2.1101164575446539e-07 1.1144499584980882e-06 0.0000000000000000e+00  2.8783247731272460e-10 6.8393068164060270e-07 0.0000000000000000e+00  -4.6699172101963965e-07 5.2268171373461835e-06 0.0000000000000000e+00  0.0000000000000000e+00 0.0000000000000000e+00 0.0000000000000000e+00  2.2684854217145030e-07 1.1519212111066079e-06 0.0000000000000000e+00  -9.6121424455211580e-08 1.3898393285663770e-06 0.0000000000000000e+00  -8.2221567059062864e-08 1.2681766333209940e-06 0.0000000000000000e+00  -1.2324882745251867e-07 1.6855804895681872e-06 0.0000000000000000e+00  5.7454894188309281e-08 6.3380225282276904e-07 0.0000000000000000e+00  1.0871451389921091e-06 5.2335301465959976e-06 0.0000000000000000e+00  7.3380762388669324e-07 3.5755082275807595e-06 0.0000000000000000e+00  9.8075710547616268e-07 4.8055482853516988e-06 0.0000000000000000e+00  -5.6998006974348187e-08 7.9539108106350935e-07 0.0000000000000000e+00  -2.8461751536304006e-08 4.2999415302433502e-07 0.0000000000000000e+00  0.0000000000000000e+00 0.0000000000000000e+00 0.0000000000000000e+00  0.0000000000000000e+00 0.0000000000000000e+00 0.0000000000000000e+00  -2.4102196690562715e-07 2.6550853049372609e-06 0.0000000000000000e+00  5.8285651519792902e-07 2.8808439953449017e-06 0.0000000000000000e+00  4.2006611508293582e-07 2.1099795877051849e-06 0.0000000000000000e+00  5.5228791365816194e-07 2.7467307948772072e-06 0.0000000000000000e+00  9.4388667474674692e-06 6.9457296510610101e-05 0.0000000000000000e+00  6.0034539925269656e-06 4.7887599602740964e-05 0.0000000000000000e+00  1.2687199058341976e-05 9.9187300473165782e-05 0.0000000000000000e+00  -1.0377740410490998e-07 1.3481720137387001e-06 0.0000000000000000e+00  -7.0272941602931572e-08 1.0189989459671486e-06 0.0000000000000000e+00  -1.2832308091110935e-07 1.6757249797098841e-06 0.0000000000000000e+00  -1.0134001290313928e-07 1.3188771098022019e-06 0.0000000000000000e+00  -5.6093333796226735e-08 9.4973980728491665e-07 0.0000000000000000e+00  -9.8854248584650733e-08 1.3887057974864086e-06 0.0000000000000000e+00  1.0284579068041272e-07 5.7392080735446106e-07 0.0000000000000000e+00  5.8679255478968026e-08 3.2237057107774338e-07 0.0000000000000000e+00  -5.3870724838979090e-06 6.9890150860037851e-05 0.0000000000000000e+00  -3.1142531490607006e-07 3.7832706724780228e-06 0.0000000000000000e+00  -2.9861923498924145e-07 3.7011035396021992e-06 0.0000000000000000e+00  -4.1834698799677092e-07 5.0634896772385893e-06 0.0000000000000000e+00  1.4303018536844624e-07 8.2883679230874940e-07 0.0000000000000000e+00  -7.2627137327924690e-06 5.3381637951720485e-05 0.0000000000000000e+00  -7.7361341901954055e-06 7.0649828789308200e-05 0.0000000000000000e+00  -6.1941898557723120e-06 5.3081108085055848e-05 0.0000000000000000e+00  5.2394623405855451e-06 2.5721252333802971e-05 0.0000000000000000e+00  -5.6779755757216904e-06 3.0656357381703277e-05 0.0000000000000000e+00  -7.3509373105328593e-06 3.5239150388959545e-05 0.0000000000000000e+00  -6.1830154996678350e-06 2.4671197166502331e-05 0.0000000000000000e+00  0.0000000000000000e+00 0.0000000000000000e+00 0.0000000000000000e+00  -1.8063182213719672e-07 2.3111552017849086e-06 0.0000000000000000e+00  -1.2995729269380601e-07 1.6560246053147728e-06 0.0000000000000000e+00  -1.5066080892576970e-06 1.7049501476407819e-05 0.0000000000000000e+00  -1.0363608999781402e-06 1.2217264327831662e-05 0.0000000000000000e+00  2.0294725730208807e-05 1.3740945751066115e-04 0.0000000000000000e+00  0.0000000000000000e+00 0.0000000000000000e+00 0.0000000000000000e+00  -4.6409401318254506e-08 6.0038934959547593e-07 0.0000000000000000e+00  -2.9799981173152122e-08 3.9139750370928482e-07 0.0000000000000000e+00  -2.8559100240907539e-08 6.6066428741450513e-07 0.0000000000000000e+00  -8.3959814414160732e-09 6.2247726985177484e-07 0.0000000000000000e+00  -3.6945360449585600e-08 8.1517729731301315e-07 0.0000000000000000e+00  -9.4118185347400590e-07 1.0032409302652240e-05 0.0000000000000000e+00  -5.0748312247890585e-07 5.4526994231695858e-06 0.0000000000000000e+00  -9.3318167145268175e-07 1.2669547654998967e-05 0.0000000000000000e+00  -4.1837466107952435e-07 5.6780566618626735e-06 0.0000000000000000e+00  -7.1608545274608692e-07 1.0499450224258271e-05 0.0000000000000000e+00  0.0000000000000000e+00 0.0000000000000000e+00 0.0000000000000000e+00  -6.1685248224541154e-08 1.0600316614127695e-06 0.0000000000000000e+00  0.0000000000000000e+00 0.0000000000000000e+00 0.0000000000000000e+00  -1.4309053353535017e-06 2.5371935169400886e-05 0.0000000000000000e+00  -9.7938985801684383e-07 1.5552932079126696e-05 0.0000000000000000e+00  -1.0167910373844881e-05 1.9141843008176567e-04 0.0000000000000000e+00  -3.2379680339649694e-07 3.8608556109881023e-06 0.0000000000000000e+00  1.1131209919688715e-05 2.9835746415526079e-05 0.0000000000000000e+00  1.4181523809890706e-05 3.5939762314793520e-05 0.0000000000000000e+00  1.1535804565400779e-05 2.5290811076718920e-05 0.0000000000000000e+00  2.3762745781025244e-05 1.5720794818223379e-04 0.0000000000000000e+00  -5.7449191658014569e-09 4.7532756357027341e-07 0.0000000000000000e+00  8.5148601679212945e-09 6.3391166414497778e-07 0.0000000000000000e+00  -1.7455689016234589e-08 5.5727504643640943e-07 0.0000000000000000e+00  -4.0454249906137688e-09 3.1449486134597829e-07 0.0000000000000000e+00  -1.5781346071232091e-08 3.6724555152745813e-07 0.0000000000000000e+00  0.0000000000000000e+00 0.0000000000000000e+00 0.0000000000000000e+00  1.6478749313712075e-06 8.6455209459725384e-06 0.0000000000000000e+00  7.2773996760380454e-07 3.7725299399191631e-06 0.0000000000000000e+00  -6.2058171877762426e-08 8.3213169557941155e-07 0.0000000000000000e+00  -5.3723650287544770e-06 1.3670488426637599e-04 0.0000000000000000e+00  -4.6117801457152642e-06 9.7803906801919631e-05 0.0000000000000000e+00  -3.8408093919033323e-06 1.0260784213955475e-04 0.0000000000000000e+00  -1.4543166426780813e-07 1.9108343057600950e-06 0.0000000000000000e+00  -1.7830573739208870e-07 2.2908175378848239e-06 0.0000000000000000e+00  -2.7526025857261314e-06 4.9322548092516854e-05 0.0000000000000000e+00  -1.5568891268820059e-06 3.2690431025275957e-05 0.0000000000000000e+00  -2.8761367199446994e-06 1.3110778939157202e-05 0.0000000000000000e+00  -4.7083612757193655e-06 1.8349623564064831e-05 0.0000000000000000e+00  -3.5079580273518855e-06 1.0294297400246694e-05 0.0000000000000000e+00  0.0000000000000000e+00 0.0000000000000000e+00 0.0000000000000000e+00  0.0000000000000000e+00 0.0000000000000000e+00 0.0000000000000000e+00  2.7187127719138422e-07 1.2948156921323354e-06 0.0000000000000000e+00  -3.9470250401540054e-08 5.2711084317130378e-07 0.0000000000000000e+00  -1.6188629288917546e-08 2.1564308352211336e-07 0.0000000000000000e+00  -1.0048792407338858e-05 1.1884523622643431e-04 0.0000000000000000e+00  -9.8470115995181217e-06 1.3802297190191424e-04 0.0000000000000000e+00  -8.8982504988172189e-06 1.1491081346881365e-04 0.0000000000000000e+00  -2.3994335960074740e-07 2.9885313383453970e-06 0.0000000000000000e+00  -2.3238033294272784e-06 1.7321164514998848e-05 0.0000000000000000e+00  -3.5141291234756186e-06 2.4003176092399729e-05 0.0000000000000000e+00  -2.6766276039054886e-06 1.6276740139843258e-05 0.0000000000000000e+00  -1.3157310060977226e-08 3.2641377393410571e-07 0.0000000000000000e+00  -1.6589036907591242e-06 9.5618725092337743e-06 0.0000000000000000e+00  -1.2545932353378153e-06 5.6855595696266354e-06 0.0000000000000000e+00  1.5240264324404107e-05 5.3502135510121303e-05 0.0000000000000000e+00  1.7152234651648011e-05 7.0322839688504826e-05 0.0000000000000000e+00  1.3428030399140671e-05 5.2636648148301667e-05 0.0000000000000000e+00  -9.5822522264777396e-07 6.7263948991491946e-06 0.0000000000000000e+00  -1.6253181936339829e-06 1.3052284599397115e-05 0.0000000000000000e+00  -1.8062086333299596e-06 1.2367819596699416e-05 0.0000000000000000e+00  -3.5004452286218606e-08 5.9630677660967476e-07 0.0000000000000000e+00  -3.1165054373482183e-08 4.4204534297264916e-07 0.0000000000000000e+00  -6.1164848539738470e-08 8.4934285706069732e-07 0.0000000000000000e+00  -1.7106920871908373e-06 2.2957308141803452e-05 0.0000000000000000e+00  -4.6390943244503271e-06 5.3699532777516652e-05 0.0000000000000000e+00  4.5446806185394851e-06 1.9744810116370287e-05 0.0000000000000000e+00  6.0638163217043228e-06 2.4688671860408526e-05 0.0000000000000000e+00  4.3565342890590356e-06 1.7266305342932823e-05 0.0000000000000000e+00  5.4461263421135239e-06 1.3496897298913077e-05 0.0000000000000000e+00  8.6750264961545873e-06 1.8673923527555393e-05 0.0000000000000000e+00  6.2580745119241212e-06 1.1170348870137429e-05 0.0000000000000000e+00  1.4455228017748346e-06