<?xml version="1.0"?>
<VTKFile type="UnstructuredGrid"  version="0.1"  >
<UnstructuredGrid>
<Piece  NumberOfPoints="439" NumberOfCells="725">
<Points>
<DataArray  type="Float64"  NumberOfComponents="3"  format="ascii">0.6 0.19 0  0.6 0.21 0  0.2489897949 0.21 0  0.2489897949 0.19 0  0.6 0.2 0  0.2496355385699469 0.2060260530378829 0  0.249959460510575 0.2020130349814059 0  0.2499594605105767 0.1979869650186357 0  0.24963553856995 0.1939739469621422 0  0.2539336006056293 0.21 0  0.2588774063112542 0.21 0  0.2638212120168921 0.21 0  0.26876501772253 0.21 0  0.2737088234281569 0.21 0  0.2786526291337753 0.21 0  0.2835964348393937 0.21 0  0.2885402405450166 0.21 0  0.2934840462506522 0.21 0  0.2984278519562708 0.21 0  0.3033716576618997 0.21 0  0.3083154633675181 0.21 0  0.3132592690731365 0.21 0  0.3182030747787549 0.21 0  0.3231468804843732 0.21 0  0.3280906861899917 0.21 0  0.3330344918956208 0.21 0  0.3379782976012284 0.21 0  0.3429221033068576 0.21 0  0.347865909012476 0.21 0  0.3528097147180944 0.21 0  0.3577535204237128 0.21 0  0.3626973261293311 0.21 0  0.3676411318349495 0.21 0  0.3725849375405788 0.21 0  0.3775287432461877 0.21 0  0.382472548951812 0.21 0  0.3874163546574338 0.21 0  0.3923601603630631 0.21 0  0.3973039660686706 0.21 0  0.4022477717742986 0.21 0  0.4071915774799107 0.21 0  0.4121353831855311 0.21 0  0.4170791888911518 0.21 0  0.4220229945967636 0.21 0  0.4269668003023918 0.21 0  0.4319106060080253 0.21 0  0.4368544117136773 0.21 0  0.4417982174193329 0.21 0  0.4467420231249967 0.21 0  0.4516858288306445 0.21 0  0.4566296345362864 0.21 0  0.461573440241916 0.21 0  0.4665172459475665 0.21 0  0.4714610516531998 0.21 0  0.4764048573588668 0.21 0  0.4813486630645134 0.21 0  0.486292468770176 0.21 0  0.4912362744758066 0.21 0  0.4961800801814611 0.21 0  0.5011238858870897 0.21 0  0.5060676915927493 0.21 0  0.5110114972983872 0.21 0  0.5159553030040036 0.21 0  0.5208991087096415 0.21 0  0.5258429144153002 0.21 0  0.5307867201209391 0.21 0  0.5357305258265987 0.21 0  0.5406743315322367 0.21 0  0.5456181372378529 0.21 0  0.5505619429434908 0.21 0  0.5555057486491456 0.21 0  0.5604495543547885 0.21 0  0.565393360060448 0.21 0  0.5703371657661116 0.21 0  0.5752809714717458 0.21 0  0.5802247771773834 0.21 0  0.5851685828830341 0.21 0  0.5901123885886809 0.21 0  0.5950561942943404 0.21 0  0.5950561942943833 0.19 0  0.590112388588758 0.19 0  0.5851685828831193 0.19 0  0.5802247771774727 0.19 0  0.5752809714718514 0.19 0  0.5703371657662308 0.19 0  0.565393360060618 0.19 0  0.5604495543549889 0.19 0  0.5555057486493581 0.19 0  0.5505619429437035 0.19 0  0.5456181372381043 0.19 0  0.540674331532505 0.19 0  0.5357305258268962 0.19 0  0.530786720121263 0.19 0  0.5258429144156628 0.19 0  0.5208991087100244 0.19 0  0.5159553030044218 0.19 0  0.5110114972988226 0.19 0  0.5060676915932177 0.19 0  0.5011238858875806 0.19 0  0.496180080181972 0.19 0  0.4912362744763531 0.19 0  0.4862924687707343 0.19 0  0.4813486630651046 0.19 0  0.4764048573594966 0.19 0  0.4714610516538683 0.19 0  0.4665172459482555 0.19 0  0.4615734402426349 0.19 0  0.4566296345370104 0.19 0  0.4516858288313808 0.19 0  0.4467420231257716 0.19 0  0.4417982174201465 0.19 0  0.4368544117145297 0.19 0  0.4319106060089131 0.19 0  0.4269668003032866 0.19 0  0.4220229945976482 0.19 0  0.4170791888920056 0.19 0  0.4121353831863594 0.19 0  0.4071915774806995 0.19 0  0.4022477717750478 0.19 0  0.3973039660693901 0.19 0  0.3923601603637548 0.19 0  0.3874163546581082 0.19 0  0.3824725489524824 0.19 0  0.3775287432468258 0.19 0  0.3725849375411773 0.19 0  0.3676411318355085 0.19 0  0.3626973261298614 0.19 0  0.3577535204242108 0.19 0  0.352809714718589 0.19 0  0.347865909012931 0.19 0  0.342922103307292 0.19 0  0.3379782976016536 0.19 0  0.3330344918960152 0.19 0  0.3280906861903751 0.19 0  0.3231468804847171 0.19 0  0.3182030747790592 0.19 0  0.3132592690734012 0.19 0  0.3083154633677581 0.19 0  0.3033716576621197 0.19 0  0.2984278519564813 0.19 0  0.2934840462508429 0.19 0  0.2885402405451874 0.19 0  0.2835964348395295 0.19 0  0.2786526291338716 0.19 0  0.2737088234282243 0.19 0  0.268765017722586 0.19 0  0.2638212120169476 0.19 0  0.2588774063113093 0.19 0  0.2539336006056579 0.19 0  0.6 0.1949999999999783 0  0.6 0.2049999999999729 0  0.2589734265316493 0.2005523893428403 0  0.5431462343853077 0.199999999999969 0  0.5682397894768162 0.1999704585808987 0  0.2774513927118024 0.2007941919421926 0  0.513849583376897 0.1999023426490919 0  0.5286810004937381 0.1999023426490969 0  0.2945108952057646 0.1992911908405386 0  0.5827780831384927 0.1995429801003349 0  0.3104128396569256 0.1999704585808978 0  0.3370001755418551 0.2008294612433967 0  0.4990181662600459 0.1999023426490902 0  0.3552816175709044 0.2000000000000608 0  0.4841867491431925 0.1999023426490849 0  0.3707373713905551 0.2000142376953689 0  0.3898882575102495 0.2000000000000828 0  0.4689857550492734 0.1995416724256694 0  0.4541577316841967 0.1999999999999098 0  0.4043534914018331 0.2000976573509244 0  0.4195510917439569 0.2000000000001057 0  0.4387019778644512 0.1999857623046772 0  0.3202472750256703 0.2000088842146399 0  0.5584053541080851 0.1999911157853577 0  0.4280667146887134 0.1998489048208241 0  0.3467659946265474 0.2001510951794375 0  0.3813726345658908 0.200151095179452 0  0.2860683376922098 0.2000415445706182 0  0.5911223811781194 0.1982449159348744 0  0.2679893161458627 0.201675125646729 0  0.4615734402426278 0.2022503633288003 0  0.4912362744763454 0.2022503633288091 0  0.5060676915931983 0.2022503633288118 0  0.3973039660686774 0.1977496366711965 0  0.4764048573594896 0.2022503633288051 0  0.5208991087100455 0.2022503633288184 0  0.4467420231257656 0.2022503633288 0  0.5357305258268849 0.2022503633288198 0  0.4121353831855317 0.1977496366711976 0  0.3626973261293352 0.1977496366711919 0  0.3033716576618961 0.1977496366711869 0  0.5752809714718229 0.1977496366711503 0  0.550459855919056 0.1971284784737667 0  0.3281927732146841 0.2028715215262406 0  0.5484179020497461 0.2038403215694763 0  0.3302347270839988 0.1961596784305491 0  0.5379210852238114 0.196125181664411 0  0.5230896681069652 0.1961251816644058 0  0.5082582509901222 0.1961251816644098 0  0.5774715308687094 0.2038748183355887 0  0.3011810982649548 0.2038748183355937 0  0.4785954167564111 0.196125181664404 0  0.4934268338732671 0.1961251816644063 0  0.395113406671763 0.2038748183355966 0  0.3605067667324117 0.2038748183355951 0  0.4593828808457146 0.1961251816643993 0  0.4489325825226805 0.1961251816644007 0  0.4099448237886219 0.2038748183355991 0  0.2557862999801971 0.1960858370257295 0  0.2550147360309399 0.2034426429991114 0  0.4348031476464689 0.2037737577641554 0  0.37463620160841 0.1962262422358553 0  0.3406258365864304 0.196046792193989 0  0.2813001681189834 0.1960467921940502 0  0.2912686387439893 0.1960816328649282 0  0.4246705335819892 0.2039532078059544 0  0.350162175732913 0.1960467921941878 0  0.3847688156722694 0.1960467921942359 0  0.316632368538356 0.19615945856337 0  0.5621550011053409 0.2037816492598991 0  0.5624413877019769 0.1960761923611377 0  0.3162395035833128 0.2038679557424692 0  0.2710887134207622 0.1959696443325838 0  0.5873014376403604 0.2047227881030823 0  0.4346679566442709 0.1954651459552513 0  0.4243296504077986 0.1958756980939062 0  0.3402559510833523 0.2047940500290923 0  0.2808684926760933 0.2047742417812656 0  0.2914077033138723 0.2047809517070955 0  0.3747713926104932 0.2045348540448554 0  0.3499216488898867 0.2051753413186305 0  0.3845282888292298 0.205175341318636 0  0.2648144865455052 0.1962089742986374 0  0.5943247643662894 0.2040415423589182 0  0.5320972610456145 0.1956445099050872 0  0.5172658439287727 0.1956445099050854 0  0.3069923255602658 0.2043468033872551 0  0.5024344268119265 0.1956445099050864 0  0.5716603035734351 0.2043468033872761 0  0.4876030096950741 0.1956445099050831 0  0.4728151975296263 0.1956402468909894 0  0.3663301776527538 0.20436745486386 0  0.4651631000724991 0.1956402468909893 0  0.4009372308499527 0.2043554900949198 0  0.4431091716023345 0.1956325451361429 0  0.4157593408842466 0.2043565497109067 0  0.5865057328865416 0.1956918868509067 0  0.5541600609760193 0.2044335994013721 0  0.3244925681577497 0.1955664005986376 0  0.272008018888917 0.2049327968152409 0  0.2633407725863902 0.2042483236346266 0  0.4567948413982566 0.2046536472831198 0  0.4167680012832803 0.1955060004091903 0  0.4716262585151221 0.2046536472831242 0  0.5161054367030595 0.2045563706470633 0  0.4864426024693469 0.2045563706470604 0  0.5012740195862044 0.2045563706470634 0  0.4022810343427545 0.1961423961483001 0  0.4420739040821668 0.2044853411424516 0  0.3673807293464664 0.1955677741328205 0  0.3925253672243162 0.195346352716901 0  0.5405091246712254 0.2046536472831267 0  0.357918727284983 0.1953463527168901 0  0.5307534575528717 0.2038576038516682 0  0.3079697655029555 0.1955637092892754 0  0.2985930588175599 0.1953463527168728 0  0.579671714346879 0.1955441268455555 0  0.5705023726275059 0.1953463527168462 0  0.5112451461103119 0.2035640580783926 0  0.4964137289934448 0.2035640580783915 0  0.4665727251511405 0.2038238154617746 0  0.5259274680675793 0.2038006696000127 0  0.4815823118765752 0.2035640580783898 0  0.4517504165552094 0.2039070625502732 0  0.4071070238280551 0.1961993303999926 0  0.3234846806957546 0.2047001437739977 0  0.5551679484379799 0.1952998562260008 0  0.5457754356464107 0.1954447171286166 0  0.3329307555206357 0.2046017509710421 0  0.4541577316841968 0.1960357661898101 0  0.3358300776141575 0.1950765652117375 0  0.2539718587514912 0.200011552766824 0  0.5826472073721517 0.2039971170156656 0  0.2761021761080182 0.1946948236183283 0  0.3898581462796225 0.2041572776584344 0  0.3552515063402743 0.2041572776584256 0  0.2965028074750666 0.2046578268138723 0  0.4299158836614793 0.1951782397873778 0  0.379426563923736 0.2049969334481307 0  0.2860882692072842 0.2042624797643994 0  0.3449948044168807 0.2051793676155613 0  0.2603922435707652 0.1950997711614917 0  0.5949856943860
[...]
<PointData  Vectors="f_18-1"> 
<DataArray  type="Float64"  Name="f_18-1"  NumberOfComponents="3" format="ascii">-1.8002913403744623e-02 -9.2486435628903449e-02 0.0000000000000000e+00  -1.0955639007444068e-02 -9.3769273149786170e-02 0.0000000000000000e+00  0.0000000000000000e+00 0.0000000000000000e+00 0.0000000000000000e+00  0.0000000000000000e+00 0.0000000000000000e+00 0.0000000000000000e+00  -1.4479236572292095e-02 -9.3127841364058092e-02 0.0000000000000000e+00  0.0000000000000000e+00 0.0000000000000000e+00 0.0000000000000000e+00  0.0000000000000000e+00 0.0000000000000000e+00 0.0000000000000000e+00  0.0000000000000000e+00 0.0000000000000000e+00 0.0000000000000000e+00  0.0000000000000000e+00 0.0000000000000000e+00 0.0000000000000000e+00  1.2770952727592604e-04 -1.1204042039788998e-04 0.0000000000000000e+00  2.6751407670918566e-04 -2.3508906323659189e-04 0.0000000000000000e+00  4.0510854829189550e-04 -3.9222936584408079e-04 0.0000000000000000e+00  5.3247753759259149e-04 -6.5336915066079233e-04 0.0000000000000000e+00  6.5021238143866912e-04 -9.7084500269377101e-04 0.0000000000000000e+00  7.6876930309545486e-04 -1.3679684572020484e-03 0.0000000000000000e+00  8.7103227601721439e-04 -1.8062800374842949e-03 0.0000000000000000e+00  9.5587633344477497e-04 -2.3166721829333600e-03 0.0000000000000000e+00  1.0365990493244137e-03 -2.8840822411292290e-03 0.0000000000000000e+00  1.1037548285452344e-03 -3.5079912892578696e-03 0.0000000000000000e+00  1.1685233292867828e-03 -4.2080987551444448e-03 0.0000000000000000e+00  1.2306332777096618e-03 -4.9205570964767475e-03 0.0000000000000000e+00  1.2646985671835264e-03 -5.7166529686979604e-03 0.0000000000000000e+00  1.3095160298589252e-03 -6.5592966398819322e-03 0.0000000000000000e+00  1.3243545167819287e-03 -7.4416409736547855e-03 0.0000000000000000e+00  1.3333253015254611e-03 -8.3847007547236917e-03 0.0000000000000000e+00  1.3298464323725332e-03 -9.3619450263616663e-03 0.0000000000000000e+00  1.3110741449145662e-03 -1.0397197195397081e-02 0.0000000000000000e+00  1.2784265460473623e-03 -1.1455681690115176e-02 0.0000000000000000e+00  1.2345387425330384e-03 -1.2563428232626425e-02 0.0000000000000000e+00  1.1772802769000001e-03 -1.3704682139572412e-02 0.0000000000000000e+00  1.1059141420473972e-03 -1.4878763693585069e-02 0.0000000000000000e+00  1.0278696881030750e-03 -1.6107743397550989e-02 0.0000000000000000e+00  9.4759839439504843e-04 -1.7344663223229008e-02 0.0000000000000000e+00  8.4687934317104034e-04 -1.8629242886685281e-02 0.0000000000000000e+00  7.3506865633228200e-04 -1.9933182802365761e-02 0.0000000000000000e+00  6.1249069724217148e-04 -2.1272844501041565e-02 0.0000000000000000e+00  4.7883952537607576e-04 -2.2637789789948935e-02 0.0000000000000000e+00  3.3266162798154143e-04 -2.4026283843663204e-02 0.0000000000000000e+00  1.7922524912059466e-04 -2.5454486237431951e-02 0.0000000000000000e+00  2.3961029995201520e-05 -2.6886331911321081e-02 0.0000000000000000e+00  -1.5173768124159407e-04 -2.8350904384765646e-02 0.0000000000000000e+00  -3.3399465276637475e-04 -2.9842109885609952e-02 0.0000000000000000e+00  -5.1896323449115447e-04 -3.1339275013041873e-02 0.0000000000000000e+00  -7.2091328111962519e-04 -3.2864769513724176e-02 0.0000000000000000e+00  -9.2258447855571421e-04 -3.4405291351747497e-02 0.0000000000000000e+00  -1.1383767481043070e-03 -3.5961763185755891e-02 0.0000000000000000e+00  -1.3562836604984830e-03 -3.7538214192724718e-02 0.0000000000000000e+00  -1.5849456999467136e-03 -3.9124854056417691e-02 0.0000000000000000e+00  -1.8211570491432941e-03 -4.0728139318429078e-02 0.0000000000000000e+00  -2.0611215337376092e-03 -4.2343363759265923e-02 0.0000000000000000e+00  -2.3066723334494738e-03 -4.3972098467712745e-02 0.0000000000000000e+00  -2.5608683362511814e-03 -4.5612260730651812e-02 0.0000000000000000e+00  -2.8181090129422116e-03 -4.7262557416305695e-02 0.0000000000000000e+00  -3.0805977560778570e-03 -4.8924258353191717e-02 0.0000000000000000e+00  -3.3503325930525386e-03 -5.0595183463279084e-02 0.0000000000000000e+00  -3.6232570214005792e-03 -5.2274011390350636e-02 0.0000000000000000e+00  -3.9005880479984351e-03 -5.3961827002982105e-02 0.0000000000000000e+00  -4.1834868894948208e-03 -5.5656140425472712e-02 0.0000000000000000e+00  -4.4690167274188865e-03 -5.7356446371832057e-02 0.0000000000000000e+00  -4.7579867378111651e-03 -5.9063498724364692e-02 0.0000000000000000e+00  -5.0512949094393264e-03 -6.0775464108931775e-02 0.0000000000000000e+00  -5.3466646166648200e-03 -6.2491925842983957e-02 0.0000000000000000e+00  -5.6447530760617383e-03 -6.4213477419098539e-02 0.0000000000000000e+00  -5.9462209591089246e-03 -6.5938668096430120e-02 0.0000000000000000e+00  -6.2491922219851297e-03 -6.7667330283595728e-02 0.0000000000000000e+00  -6.5543778703529391e-03 -6.9399509209511170e-02 0.0000000000000000e+00  -6.8618943257520030e-03 -7.1134230562197115e-02 0.0000000000000000e+00  -7.1713897623880930e-03 -7.2870767497242389e-02 0.0000000000000000e+00  -7.4828342610083710e-03 -7.4609400649695276e-02 0.0000000000000000e+00  -7.7955076365539772e-03 -7.6349669135750253e-02 0.0000000000000000e+00  -8.1086636411863509e-03 -7.8090047991038414e-02 0.0000000000000000e+00  -8.4234142504073482e-03 -7.9831727353560852e-02 0.0000000000000000e+00  -8.7385404211951390e-03 -8.1573775737064286e-02 0.0000000000000000e+00  -9.0544444299568549e-03 -8.3315938741737761e-02 0.0000000000000000e+00  -9.3708983698725015e-03 -8.5058311949610332e-02 0.0000000000000000e+00  -9.6875437198636651e-03 -8.6800619547302837e-02 0.0000000000000000e+00  -1.0004453348050776e-02 -8.8542885390281337e-02 0.0000000000000000e+00  -1.0321486170654483e-02 -9.0285114030849434e-02 0.0000000000000000e+00  -1.0638542757284769e-02 -9.2027204608290433e-02 0.0000000000000000e+00  -1.7685783049208578e-02 -9.0744339151669823e-02 0.0000000000000000e+00  -1.7368607367111096e-02 -8.9002231544972069e-02 0.0000000000000000e+00  -1.7051360014037727e-02 -8.7260070084841559e-02 0.0000000000000000e+00  -1.6733989335217195e-02 -8.5517912044852262e-02 0.0000000000000000e+00  -1.6416502496559973e-02 -8.3775879790914665e-02 0.0000000000000000e+00  -1.6098807438266201e-02 -8.2033898000420630e-02 0.0000000000000000e+00  -1.5780897331019266e-02 -8.0292426091339825e-02 0.0000000000000000e+00  -1.5462571134748930e-02 -7.8551566199082948e-02 0.0000000000000000e+00  -1.5144194433323363e-02 -7.6811193975140524e-02 0.0000000000000000e+00  -1.4825525305628827e-02 -7.5072399726036632e-02 0.0000000000000000e+00  -1.4506524716104892e-02 -7.3334590455620019e-02 0.0000000000000000e+00  -1.4187902588563107e-02 -7.1598999323632853e-02 0.0000000000000000e+00  -1.3869074744439229e-02 -6.9866621021601572e-02 0.0000000000000000e+00  -1.3549616268770831e-02 -6.8135212309889143e-02 0.0000000000000000e+00  -1.3231392110134493e-02 -6.6408027311735091e-02 0.0000000000000000e+00  -1.2913204471411650e-02 -6.4686068725951451e-02 0.0000000000000000e+00  -1.2594468153243650e-02 -6.2965586505761686e-02 0.0000000000000000e+00  -1.2278184110346391e-02 -6.1251166276941008e-02 0.0000000000000000e+00  -1.1962071292055941e-02 -5.9543629835609603e-02 0.0000000000000000e+00  -1.1645347660677921e-02 -5.7838002193979658e-02 0.0000000000000000e+00  -1.1332100971136082e-02 -5.6140442866443603e-02 0.0000000000000000e+00  -1.1019128326863702e-02 -5.4451922155636212e-02 0.0000000000000000e+00  -1.0705419284639080e-02 -5.2765903716697662e-02 0.0000000000000000e+00  -1.0396355646180577e-02 -5.1090467756638495e-02 0.0000000000000000e+00  -1.0087710315398454e-02 -4.9427041139998990e-02 0.0000000000000000e+00  -9.7787491943714579e-03 -4.7768103155153618e-02 0.0000000000000000e+00  -9.4738847413416167e-03 -4.6121014642000212e-02 0.0000000000000000e+00  -9.1706668679525927e-03 -4.4489750414965681e-02 0.0000000000000000e+00  -8.8676266579010028e-03 -4.2861550373251241e-02 0.0000000000000000e+00  -8.5728688552411531e-03 -4.1249772846102435e-02 0.0000000000000000e+00  -8.2778216165850411e-03 -3.9658540378831569e-02 0.0000000000000000e+00  -7.9821071953007829e-03 -3.8072178239029600e-02 0.0000000000000000e+00  -7.6936056279389622e-03 -3.6506703968556833e-02 0.0000000000000000e+00  -7.4090354981690369e-03 -3.4951806065371592e-02 0.0000000000000000e+00  -7.1278376873415315e-03 -3.3415160393362578e-02 0.0000000000000000e+00  -6.8534052951430965e-03 -3.1900896129691152e-02 0.0000000000000000e+00  -6.5764712135149292e-03 -3.0399860611998449e-02 0.0000000000000000e+00  -6.3077721854475207e-03 -2.8921507195953832e-02 0.0000000000000000e+00  -6.0395254421635718e-03 -2.7463514862735971e-02 0.0000000000000000e+00  -5.7741833828514957e-03 -2.6029383637531951e-02 0.0000000000000000e+00  -5.5154520402475853e-03 -2.4620372979560566e-02 0.0000000000000000e+00  -5.2657625929760895e-03 -2.3229676818174571e-02 0.0000000000000000e+00  -5.0227112423282989e-03 -2.1867953064416797e-02 0.0000000000000000e+00  -4.7711817138555287e-03 -2.0529653413282164e-02 0.0000000000000000e+00  -4.5369657518735595e-03 -1.9222836273761125e-02 0.0000000000000000e+00  -4.2973183773308875e-03 -1.7951467875350523e-02 0.0000000000000000e+00  -4.0722834109614848e-03 -1.6703265173878844e-02 0.0000000000000000e+00  -3.8500245282521569e-03 -1.5495823743114074e-02 0.0000000000000000e+00  -3.6380367773846045e-03 -1.4312057840720585e-02 0.0000000000000000e+00  -3.4340028606281931e-03 -1.3168059144241072e-02 0.0000000000000000e+00  -3.2176428518196258e-03 -1.2054263408974969e-02 0.0000000000000000e+00  -3.0228137313723842e-03 -1.0980931997397187e-02 0.0000000000000000e+00  -2.8178123102520895e-03 -9.9550871608082552e-03 0.0000000000000000e+00  -2.6363394418017073e-03 -8.9626256149958998e-03 0.0000000000000000e+00  -2.4562228725050596e-03 -8.0314395469054025e-03 0.0000000000000000e+00  -2.2724329366830679e-03 -7.1143263189496183e-03 0.0000000000000000e+00  -2.1045899364688331e-03 -6.2630514125913087e-03 0.0000000000000000e+00  -1.9189369729339639e-03 -5.4576669919712351e-03 0.0000000000000000e+00  -1.7590572496524793e-03 -4.6959935037333266e-03 0.0000000000000000e+00  -1.5989368097939027e-03 -4.0011365629317288e-03 0.0000000000000000e+00  -1.4475434385399979e-03 -3.3430925150921332e-03 0.0000000000000000e+00  -1.3026701184335270e-03 -2.7497492824280342e-03 0.0000000000000000e+00  -1.1402096747318057e-03 -2.2011126083173373e-03 0.0000000000000000e+00  -1.0047918124552479e-03 -1.7122231224890635e-03 0.0000000000000000e+00  -8.4782165231638235e-04 -1.2836604409663395e-03 0.0000000000000000e+00  -7.1153096574086991e-04 -9.2691329719581117e-04 0.0000000000000000e+00  -5.5648873187348960e-04 -6.3185945294043627e-04 0.0000000000000000e+00  -4.1616777381389057e-04 -3.8292606573642239e-04 0.0000000000000000e+00  -2.7793437795160179e-04 -2.0853428894742430e-04 0.0000000000000000e+00  -1.3821596988862630e-04 -1.1879922951844853e-04 0.0000000000000000e+00  -1.6241038137163325e-02 -9.2807147774739501e-02 0.0000000000000000e+00  -1.2717461607833580e-02 -9.3448546216308423e-02 0.0000000000000000e+00  1.3839383544724679e-05 -1.1561787888748898e-04 0.0000000000000000e+00  -1.0836407960037446e-02 -7.3100592319376156e-02 0.0000000000000000e+00  -1.2452254485706131e-02 -8.1933387598497012e-02 0.0000000000000000e+00  2.0864604906868281e-05 -1.1375681574801811e-03 0.0000000000000000e+00  -9.0203396219181130e-03 -6.2844950946419995e-02 0.0000000000000000e+00  -9.9517042955521266e-03 -6.8019688018541691e-02 0.0000000000000000e+00  -2.0754041075669182e-04 -2.8513602874366776e-03 0.0000000000000000e+00  -1.3535457419931177e-02 -8.7029599527795071e-02 0.0000000000000000e+00  -2.8024763337657213e-04 -5.0620485477855855e-03 0.0000000000000000e+00  -5.6003226528025319e-04 -9.9280093761608002e-03 0.0000000000000000e+00  -8.1039309562759201e-03 -5.7710670212366061e-02 0.0000000000000000e+00  -1.1802858966004309e-03 -1.3967587435606511e-02 0.0000000000000000e+00  -7.2073688210235361e-03 -5.2629940223623918e-02 0.0000000000000000e+00  -1.6510230808615030e-03 -1.7764013434498727e-02 0.0000000000000000e+00  -2.3545933453838720e-03 -2.2905955853021544e-02 0.0000000000000000e+00  -6.4352622570372931e-03 -4.7475193135124438e-02 0.0000000000000000e+00  -5.4461301823532518e-03 -4.2589856017544024e-02 0.0000000000000000e+00  -2.9299783850739842e-03 -2.7045523651799075e-02 0.0000000000000000e+00  -3.6561143875767483e-03 -3.1596464523001792e-02 0.0000000000000000e+00  -4.6196408841291080e-03 -3.7584849567961286e-02 0.0000000000000000e+00  -4.1085485888981354e-04 -6.6930461049595621e-03 0.0000000000000000e+00  -1.1814569308546146e-02 -7.8469680534364691e-02 0.0000000000000000e+00  -4.1182088394575277e-03 -3.4222571121710635e-02 0.0000000000000000e+00  -9.2435263504014897e-04 -1.2014242482323514e-02 0.0000000000000000e+00  -1.9893923620033374e-03 -2.0571602450846060e-02 0.0000000000000000e+00  -7.5029018086747584e-05 -1.9385135016559427e-03 0.0000000000000000e+00  -1.4528172423970639e-02 -8.9886950261450257e-02 0.0000000000000000e+00  6.9978048757790855e-05 -5.0687589496481455e-04 0.0000000000000000e+00  -5.1167571424890783e-03 -4.5160777370198885e-02 0.0000000000000000e+00  -6.8290213673115512e-03 -5.5179560453772446e-02 0.0000000000000000e+00  -7.7266906936977438e-03 -6.0290593386301654e-02 0.0000000000000000e+00  -3.2981047464895148e-03 -2.4909322443408436e-02 0.0000000000000000e+00  -5.9566297871924351e-03 -5.0129537501626180e-02 0.0000000000000000e+00  -8.6440896199110103e-03 -6.5447754384453216e-02 0.0000000000000000e+00  -4.3172325866326529e-03 -4.0294030806343230e-02 0.0000000000000000e+00  -9.5764017371736260e-03 -7.0639280648976149e-02 0.0000000000000000e+00  -3.9805138856205281e-03 -2.9251242928249439e-02 0.0000000000000000e+00  -1.9482017376489680e-03 -1.5684916493619527e-02 0.0000000000000000e+00  -5.1042148778999454e-04 -4.0073318168112300e-03 0.0000000000000000e+00  -1.3686116921580819e-02 -8.4272446918508229e-02 0.0000000000000000e+00  -1.2312267323452366e-02 -7.5489801262033362e-02 0.0000000000000000e+00  -1.1391727203902403e-05 -8.2144103935252056e-03 0.0000000000000000e+00  -9.8237691926245062e-03 -7.5199830554437450e-02 0.0000000000000000e+00  -1.3307862868529887e-03 -8.4933778648664648e-03 0.0000000000000000e+00  -1.1861458160517443e-02 -7.1019889131730823e-02 0.0000000000000000e+00  -1.0915491767806531e-02 -6.5828687219935095e-02 0.0000000000000000e+00  -9.9788991440012634e-03 -6.0671927736119964e-02 0.0000000000000000e+00  -1.1669116005932893e-02 -8.5437164397793433e-02 0.0000000000000000e+00  3.4345747471501510e-04 -3.7677954593459437e-03 0.0000000000000000e+00  -8.1497858460895627e-03 -5.0512373797505637e-02 0.0000000000000000e+00  -9.0555150346218628e-03 -5.5561500002538823e-02 0.0000000000000000e+00  -1.4708109656869346e-03 -2.4539099497911623e-02 0.0000000000000000e+00  -3.9725600925845719e-04 -1.5337330746238569e-02 0.0000000000000000e+00  -7.0148787454373520e-03 -4.4094435444482841e-02 0.0000000000000000e+00  -6.4135655234088852e-03 -4.0677062992133133e-02 0.0000000000000000e+00  -2.0585070099701373e-03 -2.8875847822267976e-02 0.0000000000000000e+00  -6.0660314127777764e-05 -4.9694268073586274e-05 0.0000000000000000e+00  4.4021396848216341e-05 -3.8506783417821385e-05 0.0000000000000000e+00  -3.2258801914383357e-03 -3.6542588075472116e-02 0.0000000000000000e+00  -2.7714258844256834e-03 -1.8651419466774691e-02 0.0000000000000000e+00  -1.6444227007374637e-03 -1.0590949596526157e-02 0.0000000000000000e+00  -3.9707303207744168e-04 -1.4640211581489911e-03 0.0000000000000000e+00  -5.3121422004307178e-04 -2.4685400731166381e-03 0.0000000000000000e+00  -2.6885590578544856e-03 -3.3372643175558790e-02 0.0000000000000000e+00  -1.9323118403992339e-03 -1.2679727742151795e-02 0.0000000000000000e+00  -3.2293102616480366e-03 -2.1344037887602182e-02 0.0000000000000000e+00  -9.9766598089827342e-04 -6.0298352947124687e-03 0.0000000000000000e+00  -1.0720722268496618e-02 -8.0033453789720391e-02 0.0000000000000000e+00  -1.3451334096520873e-02 -7.9641057860289119e-02 0.0000000000000000e+00  2.8023906733824571e-04 -6.0708451985286458e-03 0.0000000000000000e+00  -2.7589866689356593e-04 -6.9916452315535980e-04 0.0000000000000000e+00  -1.2000672942252348e-02 -8.8955960860784555e-02 0.0000000000000000e+00  -5.8379541273740117e-03 -3.6078122323526481e-02 0.0000000000000000e+00  -5.1589735749734428e-03 -3.2870963755767243e-02 0.0000000000000000e+00  2.0602627231195315e-04 -1.0715670338316668e-02 0.0000000000000000e+00  3.5928263812328901e-04 -1.4664787134524087e-03 0.0000000000000000e+00  4.2904857042314851e-04 -2.5471429176431898e-03 0.0000000000000000e+00  -6.1643608830204649e-04 -1.8976806297389296e-02 0.0000000000000000e+00  1.2642165942390986e-04 -1.2873630152490491e-02 0.0000000000000000e+00  -7.4704162359862938e-04 -2.1630001732149587e-02 0.0000000000000000e+00  -1.7242896041875624e-04 -3.6593657765925179e-04 0.0000000000000000e+00  -1.2691154102923248e-02 -9.1387251434322345e-02 0.0000000000000000e+00  -1.1657975749325112e-02 -6.8948015901930226e-02 0.0000000000000000e+00  -1.0714567583549030e-02 -6.3769430512969821e-02 0.0000000000000000e+00  3.9333320184262865e-04 -4.6088929039541518e-03 0.0000000000000000e+00  -9.7815712643562914e-03 -5.8629985847096257e-02 0.0000000000000000e+00  -1.1130425951506278e-02 -8.3419402864111231e-02 0.0000000000000000e+00  -8.8630003524468159e-03 -5.3542408722914520e-02 0.0000000000000000e+00  -7.9673641644279151e-03 -4.8537677479769767e-02 0.0000000000000000e+00  -4.3050743644084484e-04 -1.6796988934812001e-02 0.0000000000000000e+00  -7.5112017306758335e-03 -4.5981685646063225e-02 0.0000000000000000e+00  -1.5596491272976852e-03 -2.6237740819167934e-02 0.0000000000000000e+00  -6.2499826386707407e-03 -3.8772958239980455e-02 0.0000000000000000e+00  -2.1659034989756805e-03 -3.0653019914567488e-02 0.0000000000000000e+00  -1.5131524803361225e-02 -8.8096305770789987e-02 0.0000000000000000e+00  -9.9809437727330710e-03 -7.7258894084694246e-02 0.0000000000000000e+00  -1.2942616185520773e-03 -7.4011451350858683e-03 0.0000000000000000e+00  2.8787916644553541e-04 -7.6926383207307804e-04 0.0000000000000000e+00  1.5446128618312085e-04 -2.9432335730710207e-04 0.0000000000000000e+00  -4.0674054783159282e-03 -4.3715979822320380e-02 0.0000000000000000e+00  -4.8836228074756400e-03 -3.0545937594082858e-02 0.0000000000000000e+00  -4.8782186405070729e-03 -4.8659324357137039e-02 0.0000000000000000e+00  -7.5447630623220246e-03 -6.3921177775298460e-02 0.0000000000000000e+00  -5.7599664263766094e-03 -5.3678938905274601e-02 0.0000000000000000e+00  -6.6404823698197023e-03 -5.8775207787456825e-02 0.0000000000000000e+00  -3.9877854860337642e-03 -2.6275514607080858e-02 0.0000000000000000e+00  -3.3598372063042285e-03 -3.8907002442445153e-02 0.0000000000000000e+00  -2.6575207249181598e-03 -1.6782295621103567e-02 0.0000000000000000e+00  -3.7631615332747652e-03 -2.3465863477581145e-02 0.0000000000000000e+00  -9.0366045299775065e-03 -7.2470328083947544e-02 0.0000000000000000e+00  -2.3595659366246460e-03 -1.4470221121675633e-02 0.0000000000000000e+00  -8.7001986839895552e-03 -6.8995748819172961e-02 0.0000000000000000e+00  -9.1139715926594124e-04 -4.6584252215537796e-03 0.0000000000000000e+00  -7.5432224967278297e-04 -3.3509480451851415e-03 0.0000000000000000e+00  -1.4744990136030037e-02 -8.5678438466492340e-02 0.0000000000000000e+00  -1.4225874039708460e-02 -8.2434539482082486e-02 0.0000000000000000e+00  -7.5894482325473021e-03 -6.2167969764261873e-02 0.0000000000000000e+00  -6.6887195081747038e-03 -5.7037781158867394e-02 0.0000000000000000e+00  -4.8717072696269773e-03 -4.6916025634579007e-02 0.0000000000000000e+00  -8.4174777396926019e-03 -6.7302363651326011e-02 0.0000000000000000e+00  -5.8126663995368682e-03 -5.1962460918367051e-02 0.0000000000000000e+00  -4.0422545323548133e-03 -4.2017191694706170e-02 0.0000000000000000e+00  -4.1989284942370031e-03 -2.7688046308138595e-02 0.0000000000000000e+00  3.7518542160282198e-04 -7.3687070543956134e-03 0.0000000000000000e+00  -1.3257336936883402e-02 -7.7030223841268911e-02 0.0000000000000000e+00  -1.2603620809157645e-02 -7.3735318541525527e-02 0.0000000000000000e+00  2