<?xml version="1.0"?>
<VTKFile type="UnstructuredGrid"  version="0.1"  >
<UnstructuredGrid>
<Piece  NumberOfPoints="439" NumberOfCells="725">
<Points>
<DataArray  type="Float64"  NumberOfComponents="3"  format="ascii">0.6 0.19 0  0.6 0.21 0  0.2489897949 0.21 0  0.2489897949 0.19 0  0.6 0.2 0  0.2496355385699469 0.2060260530378829 0  0.249959460510575 0.2020130349814059 0  0.2499594605105767 0.1979869650186357 0  0.24963553856995 0.1939739469621422 0  0.2539336006056293 0.21 0  0.2588774063112542 0.21 0  0.2638212120168921 0.21 0  0.26876501772253 0.21 0  0.2737088234281569 0.21 0  0.2786526291337753 0.21 0  0.2835964348393937 0.21 0  0.2885402405450166 0.21 0  0.2934840462506522 0.21 0  0.2984278519562708 0.21 0  0.3033716576618997 0.21 0  0.3083154633675181 0.21 0  0.3132592690731365 0.21 0  0.3182030747787549 0.21 0  0.3231468804843732 0.21 0  0.3280906861899917 0.21 0  0.3330344918956208 0.21 0  0.3379782976012284 0.21 0  0.3429221033068576 0.21 0  0.347865909012476 0.21 0  0.3528097147180944 0.21 0  0.3577535204237128 0.21 0  0.3626973261293311 0.21 0  0.3676411318349495 0.21 0  0.3725849375405788 0.21 0  0.3775287432461877 0.21 0  0.382472548951812 0.21 0  0.3874163546574338 0.21 0  0.3923601603630631 0.21 0  0.3973039660686706 0.21 0  0.4022477717742986 0.21 0  0.4071915774799107 0.21 0  0.4121353831855311 0.21 0  0.4170791888911518 0.21 0  0.4220229945967636 0.21 0  0.4269668003023918 0.21 0  0.4319106060080253 0.21 0  0.4368544117136773 0.21 0  0.4417982174193329 0.21 0  0.4467420231249967 0.21 0  0.4516858288306445 0.21 0  0.4566296345362864 0.21 0  0.461573440241916 0.21 0  0.4665172459475665 0.21 0  0.4714610516531998 0.21 0  0.4764048573588668 0.21 0  0.4813486630645134 0.21 0  0.486292468770176 0.21 0  0.4912362744758066 0.21 0  0.4961800801814611 0.21 0  0.5011238858870897 0.21 0  0.5060676915927493 0.21 0  0.5110114972983872 0.21 0  0.5159553030040036 0.21 0  0.5208991087096415 0.21 0  0.5258429144153002 0.21 0  0.5307867201209391 0.21 0  0.5357305258265987 0.21 0  0.5406743315322367 0.21 0  0.5456181372378529 0.21 0  0.5505619429434908 0.21 0  0.5555057486491456 0.21 0  0.5604495543547885 0.21 0  0.565393360060448 0.21 0  0.5703371657661116 0.21 0  0.5752809714717458 0.21 0  0.5802247771773834 0.21 0  0.5851685828830341 0.21 0  0.5901123885886809 0.21 0  0.5950561942943404 0.21 0  0.5950561942943833 0.19 0  0.590112388588758 0.19 0  0.5851685828831193 0.19 0  0.5802247771774727 0.19 0  0.5752809714718514 0.19 0  0.5703371657662308 0.19 0  0.565393360060618 0.19 0  0.5604495543549889 0.19 0  0.5555057486493581 0.19 0  0.5505619429437035 0.19 0  0.5456181372381043 0.19 0  0.540674331532505 0.19 0  0.5357305258268962 0.19 0  0.530786720121263 0.19 0  0.5258429144156628 0.19 0  0.5208991087100244 0.19 0  0.5159553030044218 0.19 0  0.5110114972988226 0.19 0  0.5060676915932177 0.19 0  0.5011238858875806 0.19 0  0.496180080181972 0.19 0  0.4912362744763531 0.19 0  0.4862924687707343 0.19 0  0.4813486630651046 0.19 0  0.4764048573594966 0.19 0  0.4714610516538683 0.19 0  0.4665172459482555 0.19 0  0.4615734402426349 0.19 0  0.4566296345370104 0.19 0  0.4516858288313808 0.19 0  0.4467420231257716 0.19 0  0.4417982174201465 0.19 0  0.4368544117145297 0.19 0  0.4319106060089131 0.19 0  0.4269668003032866 0.19 0  0.4220229945976482 0.19 0  0.4170791888920056 0.19 0  0.4121353831863594 0.19 0  0.4071915774806995 0.19 0  0.4022477717750478 0.19 0  0.3973039660693901 0.19 0  0.3923601603637548 0.19 0  0.3874163546581082 0.19 0  0.3824725489524824 0.19 0  0.3775287432468258 0.19 0  0.3725849375411773 0.19 0  0.3676411318355085 0.19 0  0.3626973261298614 0.19 0  0.3577535204242108 0.19 0  0.352809714718589 0.19 0  0.347865909012931 0.19 0  0.342922103307292 0.19 0  0.3379782976016536 0.19 0  0.3330344918960152 0.19 0  0.3280906861903751 0.19 0  0.3231468804847171 0.19 0  0.3182030747790592 0.19 0  0.3132592690734012 0.19 0  0.3083154633677581 0.19 0  0.3033716576621197 0.19 0  0.2984278519564813 0.19 0  0.2934840462508429 0.19 0  0.2885402405451874 0.19 0  0.2835964348395295 0.19 0  0.2786526291338716 0.19 0  0.2737088234282243 0.19 0  0.268765017722586 0.19 0  0.2638212120169476 0.19 0  0.2588774063113093 0.19 0  0.2539336006056579 0.19 0  0.6 0.1949999999999783 0  0.6 0.2049999999999729 0  0.2589734265316493 0.2005523893428403 0  0.5431462343853077 0.199999999999969 0  0.5682397894768162 0.1999704585808987 0  0.2774513927118024 0.2007941919421926 0  0.513849583376897 0.1999023426490919 0  0.5286810004937381 0.1999023426490969 0  0.2945108952057646 0.1992911908405386 0  0.5827780831384927 0.1995429801003349 0  0.3104128396569256 0.1999704585808978 0  0.3370001755418551 0.2008294612433967 0  0.4990181662600459 0.1999023426490902 0  0.3552816175709044 0.2000000000000608 0  0.4841867491431925 0.1999023426490849 0  0.3707373713905551 0.2000142376953689 0  0.3898882575102495 0.2000000000000828 0  0.4689857550492734 0.1995416724256694 0  0.4541577316841967 0.1999999999999098 0  0.4043534914018331 0.2000976573509244 0  0.4195510917439569 0.2000000000001057 0  0.4387019778644512 0.1999857623046772 0  0.3202472750256703 0.2000088842146399 0  0.5584053541080851 0.1999911157853577 0  0.4280667146887134 0.1998489048208241 0  0.3467659946265474 0.2001510951794375 0  0.3813726345658908 0.200151095179452 0  0.2860683376922098 0.2000415445706182 0  0.5911223811781194 0.1982449159348744 0  0.2679893161458627 0.201675125646729 0  0.4615734402426278 0.2022503633288003 0  0.4912362744763454 0.2022503633288091 0  0.5060676915931983 0.2022503633288118 0  0.3973039660686774 0.1977496366711965 0  0.4764048573594896 0.2022503633288051 0  0.5208991087100455 0.2022503633288184 0  0.4467420231257656 0.2022503633288 0  0.5357305258268849 0.2022503633288198 0  0.4121353831855317 0.1977496366711976 0  0.3626973261293352 0.1977496366711919 0  0.3033716576618961 0.1977496366711869 0  0.5752809714718229 0.1977496366711503 0  0.550459855919056 0.1971284784737667 0  0.3281927732146841 0.2028715215262406 0  0.5484179020497461 0.2038403215694763 0  0.3302347270839988 0.1961596784305491 0  0.5379210852238114 0.196125181664411 0  0.5230896681069652 0.1961251816644058 0  0.5082582509901222 0.1961251816644098 0  0.5774715308687094 0.2038748183355887 0  0.3011810982649548 0.2038748183355937 0  0.4785954167564111 0.196125181664404 0  0.4934268338732671 0.1961251816644063 0  0.395113406671763 0.2038748183355966 0  0.3605067667324117 0.2038748183355951 0  0.4593828808457146 0.1961251816643993 0  0.4489325825226805 0.1961251816644007 0  0.4099448237886219 0.2038748183355991 0  0.2557862999801971 0.1960858370257295 0  0.2550147360309399 0.2034426429991114 0  0.4348031476464689 0.2037737577641554 0  0.37463620160841 0.1962262422358553 0  0.3406258365864304 0.196046792193989 0  0.2813001681189834 0.1960467921940502 0  0.2912686387439893 0.1960816328649282 0  0.4246705335819892 0.2039532078059544 0  0.350162175732913 0.1960467921941878 0  0.3847688156722694 0.1960467921942359 0  0.316632368538356 0.19615945856337 0  0.5621550011053409 0.2037816492598991 0  0.5624413877019769 0.1960761923611377 0  0.3162395035833128 0.2038679557424692 0  0.2710887134207622 0.1959696443325838 0  0.5873014376403604 0.2047227881030823 0  0.4346679566442709 0.1954651459552513 0  0.4243296504077986 0.1958756980939062 0  0.3402559510833523 0.2047940500290923 0  0.2808684926760933 0.2047742417812656 0  0.2914077033138723 0.2047809517070955 0  0.3747713926104932 0.2045348540448554 0  0.3499216488898867 0.2051753413186305 0  0.3845282888292298 0.205175341318636 0  0.2648144865455052 0.1962089742986374 0  0.5943247643662894 0.2040415423589182 0  0.5320972610456145 0.1956445099050872 0  0.5172658439287727 0.1956445099050854 0  0.3069923255602658 0.2043468033872551 0  0.5024344268119265 0.1956445099050864 0  0.5716603035734351 0.2043468033872761 0  0.4876030096950741 0.1956445099050831 0  0.4728151975296263 0.1956402468909894 0  0.3663301776527538 0.20436745486386 0  0.4651631000724991 0.1956402468909893 0  0.4009372308499527 0.2043554900949198 0  0.4431091716023345 0.1956325451361429 0  0.4157593408842466 0.2043565497109067 0  0.5865057328865416 0.1956918868509067 0  0.5541600609760193 0.2044335994013721 0  0.3244925681577497 0.1955664005986376 0  0.272008018888917 0.2049327968152409 0  0.2633407725863902 0.2042483236346266 0  0.4567948413982566 0.2046536472831198 0  0.4167680012832803 0.1955060004091903 0  0.4716262585151221 0.2046536472831242 0  0.5161054367030595 0.2045563706470633 0  0.4864426024693469 0.2045563706470604 0  0.5012740195862044 0.2045563706470634 0  0.4022810343427545 0.1961423961483001 0  0.4420739040821668 0.2044853411424516 0  0.3673807293464664 0.1955677741328205 0  0.3925253672243162 0.195346352716901 0  0.5405091246712254 0.2046536472831267 0  0.357918727284983 0.1953463527168901 0  0.5307534575528717 0.2038576038516682 0  0.3079697655029555 0.1955637092892754 0  0.2985930588175599 0.1953463527168728 0  0.579671714346879 0.1955441268455555 0  0.5705023726275059 0.1953463527168462 0  0.5112451461103119 0.2035640580783926 0  0.4964137289934448 0.2035640580783915 0  0.4665727251511405 0.2038238154617746 0  0.5259274680675793 0.2038006696000127 0  0.4815823118765752 0.2035640580783898 0  0.4517504165552094 0.2039070625502732 0  0.4071070238280551 0.1961993303999926 0  0.3234846806957546 0.2047001437739977 0  0.5551679484379799 0.1952998562260008 0  0.5457754356464107 0.1954447171286166 0  0.3329307555206357 0.2046017509710421 0  0.4541577316841968 0.1960357661898101 0  0.3358300776141575 0.1950765652117375 0  0.2539718587514912 0.200011552766824 0  0.5826472073721517 0.2039971170156656 0  0.2761021761080182 0.1946948236183283 0  0.3898581462796225 0.2041572776584344 0  0.3552515063402743 0.2041572776584256 0  0.2965028074750666 0.2046578268138723 0  0.4299158836614793 0.1951782397873778 0  0.379426563923736 0.2049969334481307 0  0.2860882692072842 0.2042624797643994 0  0.3449948044168807 0.2051793676155613 0  0.2603922435707652 0.1950997711614917 0  0.5949856943860
[...]
<PointData  Vectors="f_18-1"> 
<DataArray  type="Float64"  Name="f_18-1"  NumberOfComponents="3" format="ascii">-9.9243977476288058e-03 -6.7308902767634252e-02 0.0000000000000000e+00  -4.9443664699276996e-03 -6.7938854051007955e-02 0.0000000000000000e+00  0.0000000000000000e+00 0.0000000000000000e+00 0.0000000000000000e+00  0.0000000000000000e+00 0.0000000000000000e+00 0.0000000000000000e+00  -7.4343585409914906e-03 -6.7623878037509674e-02 0.0000000000000000e+00  0.0000000000000000e+00 0.0000000000000000e+00 0.0000000000000000e+00  0.0000000000000000e+00 0.0000000000000000e+00 0.0000000000000000e+00  0.0000000000000000e+00 0.0000000000000000e+00 0.0000000000000000e+00  0.0000000000000000e+00 0.0000000000000000e+00 0.0000000000000000e+00  1.0098152067248591e-04 -8.8808500212854611e-05 0.0000000000000000e+00  2.1088096242771536e-04 -1.8565132061706320e-04 0.0000000000000000e+00  3.1887590218724861e-04 -3.0897776662309822e-04 0.0000000000000000e+00  4.1904036416865121e-04 -5.1279945249150638e-04 0.0000000000000000e+00  5.1172463975415001e-04 -7.5964861158181723e-04 0.0000000000000000e+00  6.0544623726225936e-04 -1.0675286904861651e-03 0.0000000000000000e+00  6.8683261037214666e-04 -1.4064480361826897e-03 0.0000000000000000e+00  7.5555099310827196e-04 -1.8001925139506693e-03 0.0000000000000000e+00  8.2175039771046406e-04 -2.2367416079256334e-03 0.0000000000000000e+00  8.7843315865853431e-04 -2.7156067746938440e-03 0.0000000000000000e+00  9.3461166676948870e-04 -3.2509393608178005e-03 0.0000000000000000e+00  9.8876589824059167e-04 -3.7951050325099401e-03 0.0000000000000000e+00  1.0237262824151032e-03 -4.4014173607669280e-03 0.0000000000000000e+00  1.0675638126258938e-03 -5.0411324620087431e-03 0.0000000000000000e+00  1.0901729538638815e-03 -5.7102941621065134e-03 0.0000000000000000e+00  1.1100775656853001e-03 -6.4230847661869896e-03 0.0000000000000000e+00  1.1217197326033243e-03 -7.1605285349900039e-03 0.0000000000000000e+00  1.1240299116923615e-03 -7.9396154854121642e-03 0.0000000000000000e+00  1.1170318911784803e-03 -8.7351247083588858e-03 0.0000000000000000e+00  1.1035449202953459e-03 -9.5654587180203608e-03 0.0000000000000000e+00  1.0816505292992112e-03 -1.0419354770451103e-02 0.0000000000000000e+00  1.0510053625906446e-03 -1.1296061534313721e-02 0.0000000000000000e+00  1.0176603398446323e-03 -1.2210142940016062e-02 0.0000000000000000e+00  9.8285671671851922e-04 -1.3129338375239474e-02 0.0000000000000000e+00  9.3594440950464479e-04 -1.4081197497705750e-02 0.0000000000000000e+00  8.8232740635979523e-04 -1.5045951476688281e-02 0.0000000000000000e+00  8.2292307211160990e-04 -1.6034575471540961e-02 0.0000000000000000e+00  7.5722761809872776e-04 -1.7039991982549952e-02 0.0000000000000000e+00  6.8437139391455746e-04 -1.8060980608197798e-02 0.0000000000000000e+00  6.0861863294949187e-04 -1.9107637841702628e-02 0.0000000000000000e+00  5.3175889792887168e-04 -2.0156542969366593e-02 0.0000000000000000e+00  4.4336983219123567e-04 -2.1227173081500472e-02 0.0000000000000000e+00  3.5211149477761363e-04 -2.2314794441585097e-02 0.0000000000000000e+00  2.5937064636220359e-04 -2.3406209517335182e-02 0.0000000000000000e+00  1.5730634383001805e-04 -2.4516186803052311e-02 0.0000000000000000e+00  5.6094414992436521e-05 -2.5635423303751945e-02 0.0000000000000000e+00  -5.3166821290778013e-05 -2.6765092166321492e-02 0.0000000000000000e+00  -1.6286210577420095e-04 -2.7907018552827897e-02 0.0000000000000000e+00  -2.7867536033957744e-04 -2.9055531879865464e-02 0.0000000000000000e+00  -3.9827446062853033e-04 -3.0214263374902680e-02 0.0000000000000000e+00  -5.1963602798058743e-04 -3.1380076953645177e-02 0.0000000000000000e+00  -6.4378102047966176e-04 -3.2553898485503337e-02 0.0000000000000000e+00  -7.7242272263461636e-04 -3.3734599046257197e-02 0.0000000000000000e+00  -9.0240236436265524e-04 -3.4920970316665877e-02 0.0000000000000000e+00  -1.0349130492361420e-03 -3.6113829483078029e-02 0.0000000000000000e+00  -1.1710183666744866e-03 -3.7312005658926582e-02 0.0000000000000000e+00  -1.3085643907869921e-03 -3.8514433440349639e-02 0.0000000000000000e+00  -1.4481673213277838e-03 -3.9721751054943882e-02 0.0000000000000000e+00  -1.5904297225046767e-03 -4.0932648022145697e-02 0.0000000000000000e+00  -1.7338701791568779e-03 -4.2146568316660589e-02 0.0000000000000000e+00  -1.8788951045122413e-03 -4.3363894830628476e-02 0.0000000000000000e+00  -2.0258845380050493e-03 -4.4583680692445928e-02 0.0000000000000000e+00  -2.1737816803352118e-03 -4.5805439086036535e-02 0.0000000000000000e+00  -2.3228801566967656e-03 -4.7029431105402551e-02 0.0000000000000000e+00  -2.4733490234442701e-03 -4.8254930503728664e-02 0.0000000000000000e+00  -2.6244061126597120e-03 -4.9481673346615664e-02 0.0000000000000000e+00  -2.7763146325138844e-03 -5.0709692436394796e-02 0.0000000000000000e+00  -2.9290633124767003e-03 -5.1938552085097130e-02 0.0000000000000000e+00  -3.0824719790999351e-03 -5.3168005564204146e-02 0.0000000000000000e+00  -3.2364745201672071e-03 -5.4398096646370957e-02 0.0000000000000000e+00  -3.3908333906174874e-03 -5.5628656132274509e-02 0.0000000000000000e+00  -3.5453522712116962e-03 -5.6859237758733583e-02 0.0000000000000000e+00  -3.7003247084116085e-03 -5.8090215036641940e-02 0.0000000000000000e+00  -3.8554065093094900e-03 -5.9321278555885912e-02 0.0000000000000000e+00  -4.0107095665551460e-03 -6.0552379210052701e-02 0.0000000000000000e+00  -4.1661802103091497e-03 -6.1783528386376886e-02 0.0000000000000000e+00  -4.3217102744138617e-03 -6.3014654147096866e-02 0.0000000000000000e+00  -4.4773238118694719e-03 -6.4245748478167983e-02 0.0000000000000000e+00  -4.6329878039142935e-03 -6.5476818662763017e-02 0.0000000000000000e+00  -4.7886656771303094e-03 -6.6707842715119384e-02 0.0000000000000000e+00  -9.7686851871013301e-03 -6.6077847928798977e-02 0.0000000000000000e+00  -9.6129894105503027e-03 -6.4846767879438730e-02 0.0000000000000000e+00  -9.4572832300571525e-03 -6.3615666218225217e-02 0.0000000000000000e+00  -9.3015615654888119e-03 -6.2384533966823565e-02 0.0000000000000000e+00  -9.1458193479591939e-03 -6.1153411452069151e-02 0.0000000000000000e+00  -8.9900210733250760e-03 -5.9922286837861251e-02 0.0000000000000000e+00  -8.8341493420991696e-03 -5.8691273623844874e-02 0.0000000000000000e+00  -8.6781411348286590e-03 -5.7460402394019797e-02 0.0000000000000000e+00  -8.5220901648991720e-03 -5.6229650146640699e-02 0.0000000000000000e+00  -8.3658890025650919e-03 -5.4999323302066194e-02 0.0000000000000000e+00  -8.2095275651243114e-03 -5.3769253397927742e-02 0.0000000000000000e+00  -8.0531615502974462e-03 -5.2539829815751136e-02 0.0000000000000000e+00  -7.8965477461747108e-03 -5.1311370585707422e-02 0.0000000000000000e+00  -7.7396232609840731e-03 -5.0083185631254620e-02 0.0000000000000000e+00  -7.5828210700851998e-03 -4.8856426328785049e-02 0.0000000000000000e+00  -7.4256663268387367e-03 -4.7631572732242930e-02 0.0000000000000000e+00  -7.2681138823107103e-03 -4.6407265410465602e-02 0.0000000000000000e+00  -7.1110420220541681e-03 -4.5185453975536034e-02 0.0000000000000000e+00  -6.9535127179210831e-03 -4.3966669724851776e-02 0.0000000000000000e+00  -6.7954631149753537e-03 -4.2748752013616505e-02 0.0000000000000000e+00  -6.6383553417375413e-03 -4.1534742552187115e-02 0.0000000000000000e+00  -6.4807245062509788e-03 -4.0325235862443541e-02 0.0000000000000000e+00  -6.3224553799530823e-03 -3.9116988280176547e-02 0.0000000000000000e+00  -6.1657567811010741e-03 -3.7914371584368042e-02 0.0000000000000000e+00  -6.0084608697632338e-03 -3.6718153279206009e-02 0.0000000000000000e+00  -5.8506296997304034e-03 -3.5524371220961803e-02 0.0000000000000000e+00  -5.6941391812291037e-03 -3.4337139932687194e-02 0.0000000000000000e+00  -5.5375010280969764e-03 -3.3158864124735406e-02 0.0000000000000000e+00  -5.3806191375076308e-03 -3.1982275335486900e-02 0.0000000000000000e+00  -5.2273126427299478e-03 -3.0815485179697285e-02 0.0000000000000000e+00  -5.0724737877342191e-03 -2.9660644965964322e-02 0.0000000000000000e+00  -4.9168186333919672e-03 -2.8508732236781947e-02 0.0000000000000000e+00  -4.7640082727360986e-03 -2.7369584406808495e-02 0.0000000000000000e+00  -4.6128271390161448e-03 -2.6237159937586574e-02 0.0000000000000000e+00  -4.4624760863680836e-03 -2.5116025344525686e-02 0.0000000000000000e+00  -4.3148947919530219e-03 -2.4009131246104608e-02 0.0000000000000000e+00  -4.1648974659445389e-03 -2.2910366683912935e-02 0.0000000000000000e+00  -4.0186996127027329e-03 -2.1826281402894696e-02 0.0000000000000000e+00  -3.8715777485418303e-03 -2.0755104754532110e-02 0.0000000000000000e+00  -3.7248868642278262e-03 -1.9699196695486837e-02 0.0000000000000000e+00  -3.5809268268404745e-03 -1.8659667032633935e-02 0.0000000000000000e+00  -3.4416354790940316e-03 -1.7632306217393711e-02 0.0000000000000000e+00  -3.3049982402978801e-03 -1.6623901598950292e-02 0.0000000000000000e+00  -3.1615508673461688e-03 -1.5630190215750430e-02 0.0000000000000000e+00  -3.0275468016116580e-03 -1.4657959379879432e-02 0.0000000000000000e+00  -2.8879864912830146e-03 -1.3708745527822591e-02 0.0000000000000000e+00  -2.7567128508582802e-03 -1.2775662781508648e-02 0.0000000000000000e+00  -2.6251952817693868e-03 -1.1870102896136851e-02 0.0000000000000000e+00  -2.4991237715980886e-03 -1.0981013724283728e-02 0.0000000000000000e+00  -2.3764084743201387e-03 -1.0119427223419184e-02 0.0000000000000000e+00  -2.2436482284053328e-03 -9.2781372272233518e-03 0.0000000000000000e+00  -2.1236504454455090e-03 -8.4660635437237026e-03 0.0000000000000000e+00  -1.9942409521697163e-03 -7.6868721498164145e-03 0.0000000000000000e+00  -1.8797461768276368e-03 -6.9324160871735490e-03 0.0000000000000000e+00  -1.7636370022156100e-03 -6.2218890606723296e-03 0.0000000000000000e+00  -1.6441520433603308e-03 -5.5215825708402619e-03 0.0000000000000000e+00  -1.5334737047562653e-03 -4.8693163236506022e-03 0.0000000000000000e+00  -1.4081634967377436e-03 -4.2501854681194842e-03 0.0000000000000000e+00  -1.2999406598305009e-03 -3.6639324625452043e-03 0.0000000000000000e+00  -1.1893337207445700e-03 -3.1271350581100572e-03 0.0000000000000000e+00  -1.0838081282882755e-03 -2.6180727905013861e-03 0.0000000000000000e+00  -9.8122825299894753e-04 -2.1575467288929679e-03 0.0000000000000000e+00  -8.6422799153405892e-04 -1.7304297867308288e-03 0.0000000000000000e+00  -7.6586361543940710e-04 -1.3493112087659661e-03 0.0000000000000000e+00  -6.4975294912691874e-04 -1.0136631799638766e-03 0.0000000000000000e+00  -5.4780379813067302e-04 -7.3364720054938583e-04 0.0000000000000000e+00  -4.3018773701206472e-04 -5.0102543269046256e-04 0.0000000000000000e+00  -3.2299633427060570e-04 -3.0456036574259577e-04 0.0000000000000000e+00  -2.1647298117134773e-04 -1.6628577596107785e-04 0.0000000000000000e+00  -1.0795099048553789e-04 -9.4134514447070843e-05 0.0000000000000000e+00  -8.6793621525292179e-03 -6.7466394083461334e-02 0.0000000000000000e+00  -6.1893604680006041e-03 -6.7781365174224895e-02 0.0000000000000000e+00  1.1573636142814072e-05 -9.3191535255304607e-05 0.0000000000000000e+00  -5.6452460464732779e-03 -5.3467871064362307e-02 0.0000000000000000e+00  -6.4416294398060075e-03 -5.9713947511961213e-02 0.0000000000000000e+00  2.2819122213693487e-05 -8.9493407103622173e-04 0.0000000000000000e+00  -4.7537500334029394e-03 -4.6191499650956321e-02 0.0000000000000000e+00  -5.2160208852875655e-03 -4.9868811657613102e-02 0.0000000000000000e+00  -1.3778949161231309e-04 -2.2262130575794311e-03 0.0000000000000000e+00  -7.0057863497515454e-03 -6.3320994992400001e-02 0.0000000000000000e+00  -1.6548161866978991e-04 -3.9258023214809538e-03 0.0000000000000000e+00  -2.9548373782338591e-04 -7.6253582412322673e-03 0.0000000000000000e+00  -4.2958160283096611e-03 -4.2531072529250230e-02 0.0000000000000000e+00  -6.7608912456496083e-04 -1.0670174554148985e-02 0.0000000000000000e+00  -3.8445694203320048e-03 -3.8896870496050305e-02 0.0000000000000000e+00  -9.3591401580814455e-04 -1.3506953015568245e-02 0.0000000000000000e+00  -1.3184668699592586e-03 -1.7316340283105188e-02 0.0000000000000000e+00  -3.4784135215819930e-03 -3.5200591616931926e-02 0.0000000000000000e+00  -2.9403563189143818e-03 -3.1672938267498181e-02 0.0000000000000000e+00  -1.6207823666612091e-03 -2.0360964237499144e-02 0.0000000000000000e+00  -2.0103406613084808e-03 -2.3691352990387885e-02 0.0000000000000000e+00  -2.5144946474268885e-03 -2.8049524571604464e-02 0.0000000000000000e+00  -2.4023295622589713e-04 -5.1724015125426829e-03 0.0000000000000000e+00  -6.1269839524767935e-03 -5.7265634745439380e-02 0.0000000000000000e+00  -2.2619127899942333e-03 -2.5606780047900807e-02 0.0000000000000000e+00  -5.2723240191312960e-04 -9.2022218106640984e-03 0.0000000000000000e+00  -1.1133296338930252e-03 -1.5590194646966180e-02 0.0000000000000000e+00  -4.4651103961129415e-05 -1.5181533097337850e-03 0.0000000000000000e+00  -7.5917727924313854e-03 -6.5358003558474431e-02 0.0000000000000000e+00  5.7109300804398898e-05 -4.0120590702981938e-04 0.0000000000000000e+00  -2.6168271218050274e-03 -3.3501900737003154e-02 0.0000000000000000e+00  -3.4843712007005209e-03 -4.0692085260109284e-02 0.0000000000000000e+00  -3.9346387654430361e-03 -4.4341008851298241e-02 0.0000000000000000e+00  -1.9522836533145760e-03 -1.8810819538187550e-02 0.0000000000000000e+00  -3.0439161790751165e-03 -3.7074683526811043e-02 0.0000000000000000e+00  -4.3919147172343893e-03 -4.8011104744229802e-02 0.0000000000000000e+00  -2.2072765084967627e-03 -2.9987840054801349e-02 0.0000000000000000e+00  -4.8538033931084376e-03 -5.1694238035702063e-02 0.0000000000000000e+00  -2.3185812025987170e-03 -2.1997986510334393e-02 0.0000000000000000e+00  -1.2075240013838440e-03 -1.1968949649872553e-02 0.0000000000000000e+00  -3.5582661726262681e-04 -3.1198957526815635e-03 0.0000000000000000e+00  -7.2162013698269037e-03 -6.1397478324618858e-02 0.0000000000000000e+00  -6.5891542980398418e-03 -5.5197616459168104e-02 0.0000000000000000e+00  8.7962297469866945e-05 -6.3201183557986367e-03 0.0000000000000000e+00  -4.8558060737872626e-03 -5.4900589551114265e-02 0.0000000000000000e+00  -9.0435416806337627e-04 -6.5545303641842741e-03 0.0000000000000000e+00  -6.4436842800957806e-03 -5.2046835919566728e-02 0.0000000000000000e+00  -5.9767693421193847e-03 -4.8363478554409818e-02 0.0000000000000000e+00  -5.5113511699293799e-03 -4.4692892561060009e-02 0.0000000000000000e+00  -5.7601883469476697e-03 -6.2135968276035472e-02 0.0000000000000000e+00  2.9554031359565455e-04 -2.9251046984750742e-03 0.0000000000000000e+00  -4.5910696448544829e-03 -3.7424449558068798e-02 0.0000000000000000e+00  -5.0487964933111735e-03 -4.1043085374534230e-02 0.0000000000000000e+00  -6.2568472644989530e-04 -1.8488039919143790e-02 0.0000000000000000e+00  -6.1853332734278083e-05 -1.1673496925125690e-02 0.0000000000000000e+00  -4.0110890203401096e-03 -3.2804070206407417e-02 0.0000000000000000e+00  -3.6999931772391166e-03 -3.0332682325540934e-02 0.0000000000000000e+00  -9.3211660909309224e-04 -2.1667149628078582e-02 0.0000000000000000e+00  -4.6925928325115383e-05 -4.0626102599342915e-05 0.0000000000000000e+00  3.4851831151606187e-05 -3.1586858466808056e-05 0.0000000000000000e+00  -1.5431759840089047e-03 -2.7252844681716001e-02 0.0000000000000000e+00  -1.7412838735962172e-03 -1.4191953460312667e-02 0.0000000000000000e+00  -1.0977696618399530e-03 -8.1460959024411261e-03 0.0000000000000000e+00  -2.9818839646974236e-04 -1.1521453421895378e-03 0.0000000000000000e+00  -3.9131281908213631e-04 -1.9331573460033347e-03 0.0000000000000000e+00  -1.2539526648579539e-03 -2.4946651542298089e-02 0.0000000000000000e+00  -1.2674908838428665e-03 -9.7225617761369700e-03 0.0000000000000000e+00  -2.0047736058755638e-03 -1.6191820245475424e-02 0.0000000000000000e+00  -6.9706527727331040e-04 -4.6756940924443866e-03 0.0000000000000000e+00  -5.3015422545572739e-03 -5.8318740941146842e-02 0.0000000000000000e+00  -7.2284325123790584e-03 -5.8147399805701369e-02 0.0000000000000000e+00  2.7631480822903724e-04 -4.6874775074180735e-03 0.0000000000000000e+00  -2.1060582456562530e-04 -5.5359968890314134e-04 0.0000000000000000e+00  -5.8584949464061597e-03 -6.4610600108817182e-02 0.0000000000000000e+00  -3.4421787007435640e-03 -2.7001969986181023e-02 0.0000000000000000e+00  -3.0579938148126164e-03 -2.4661327208813050e-02 0.0000000000000000e+00  2.9616536637028316e-04 -8.2028387580011207e-03 0.0000000000000000e+00  2.8754926153372508e-04 -1.1480365896551397e-03 0.0000000000000000e+00  3.4962471836587068e-04 -1.9842131522885514e-03 0.0000000000000000e+00  -1.4021935588613387e-04 -1.4377426773429998e-02 0.0000000000000000e+00  2.7797894725357431e-04 -9.8228884761816428e-03 0.0000000000000000e+00  -1.7060881977960969e-04 -1.6335097890045294e-02 0.0000000000000000e+00  -1.3243464209689048e-04 -2.9110267901723020e-04 0.0000000000000000e+00  -6.2492769767054273e-03 -6.6338023984155128e-02 0.0000000000000000e+00  -6.3797588336086857e-03 -5.0584482826369910e-02 0.0000000000000000e+00  -5.9130785811538902e-03 -4.6905520712107199e-02 0.0000000000000000e+00  3.4360870096728879e-04 -3.5692938148179127e-03 0.0000000000000000e+00  -5.4481337858021811e-03 -4.3242272985447798e-02 0.0000000000000000e+00  -5.4598152102986880e-03 -6.0703660976553324e-02 0.0000000000000000e+00  -4.9864844389299516e-03 -3.9603689096318277e-02 0.0000000000000000e+00  -4.5324509059980599e-03 -3.6011363016440028e-02 0.0000000000000000e+00  -5.3336065285439597e-05 -1.2759140961187895e-02 0.0000000000000000e+00  -4.2991349758001937e-03 -3.4170901859479776e-02 0.0000000000000000e+00  -6.4329218277709094e-04 -1.9731511921268589e-02 0.0000000000000000e+00  -3.6473977306966435e-03 -2.8958029844673043e-02 0.0000000000000000e+00  -9.5744328715149474e-04 -2.2960772869550877e-02 0.0000000000000000e+00  -8.0820819327138849e-03 -6.4127951138114134e-02 0.0000000000000000e+00  -4.8882931322195185e-03 -5.6348588045740097e-02 0.0000000000000000e+00  -8.9758914211170117e-04 -5.7250344171083231e-03 0.0000000000000000e+00  2.2814035140334080e-04 -6.0542492718192848e-04 0.0000000000000000e+00  1.2213934700628580e-04 -2.3363380071002274e-04 0.0000000000000000e+00  -1.9143131526474903e-03 -3.2432429894562347e-02 0.0000000000000000e+00  -2.9334764712933962e-03 -2.2966037822814794e-02 0.0000000000000000e+00  -2.3264831647076159e-03 -3.5989813000216635e-02 0.0000000000000000e+00  -3.6734869319501452e-03 -4.6895175967489128e-02 0.0000000000000000e+00  -2.7790623583366023e-03 -3.9589297895917218e-02 0.0000000000000000e+00  -3.2215478183590320e-03 -4.3230264752547570e-02 0.0000000000000000e+00  -2.4151048337683022e-03 -1.9829433113324354e-02 0.0000000000000000e+00  -1.5640201586487247e-03 -2.8959093211486271e-02 0.0000000000000000e+00  -1.7063713504639917e-03 -1.2802211303685277e-02 0.0000000000000000e+00  -2.3350824555907744e-03 -1.7765598865525176e-02 0.0000000000000000e+00  -4.4061780787889530e-03 -5.2958190241839065e-02 0.0000000000000000e+00  -1.5435348344221386e-03 -1.1071830738834448e-02 0.0000000000000000e+00  -4.2996357084014144e-03 -5.0507636781278904e-02 0.0000000000000000e+00  -6.5304056077143224e-04 -3.6249166389369951e-03 0.0000000000000000e+00  -5.5159154586023390e-04 -2.6173916252814544e-03 0.0000000000000000e+00  -7.9036405099881853e-03 -6.2421446243542782e-02 0.0000000000000000e+00  -7.6640332749486687e-03 -6.0131780980210610e-02 0.0000000000000000e+00  -3.7692167092094392e-03 -4.5661060070495092e-02 0.0000000000000000e+00  -3.3182959856914280e-03 -4.2003164900902022e-02 0.0000000000000000e+00  -2.3818105700960045e-03 -3.4746815589493239e-02 0.0000000000000000e+00  -4.1637407147597566e-03 -4.9307232035848386e-02 0.0000000000000000e+00  -2.8771352765662589e-03 -3.8372742772610768e-02 0.0000000000000000e+00  -1.9529755395255265e-03 -3.1214798367826889e-02 0.0000000000000000e+00  -2.5258720468724896e-03 -2.0866372956243169e-02 0.0000000000000000e+00  3.6748589593915497e-04 -5.6722586002712575e-03 0.0000000000000000e+00  -7.1924104000031025e-03 -5.6312098690777627e-02 0.0000000000000000e+00  -6.8603652255413020e-03 -5.3979056774172640e-02 0.0000000000000000e+00  3.10628