<?xml version="1.0"?>
<VTKFile type="UnstructuredGrid"  version="0.1"  >
<UnstructuredGrid>
<Piece  NumberOfPoints="439" NumberOfCells="725">
<Points>
<DataArray  type="Float64"  NumberOfComponents="3"  format="ascii">0.6 0.19 0  0.6 0.21 0  0.2489897949 0.21 0  0.2489897949 0.19 0  0.6 0.2 0  0.2496355385699469 0.2060260530378829 0  0.249959460510575 0.2020130349814059 0  0.2499594605105767 0.1979869650186357 0  0.24963553856995 0.1939739469621422 0  0.2539336006056293 0.21 0  0.2588774063112542 0.21 0  0.2638212120168921 0.21 0  0.26876501772253 0.21 0  0.2737088234281569 0.21 0  0.2786526291337753 0.21 0  0.2835964348393937 0.21 0  0.2885402405450166 0.21 0  0.2934840462506522 0.21 0  0.2984278519562708 0.21 0  0.3033716576618997 0.21 0  0.3083154633675181 0.21 0  0.3132592690731365 0.21 0  0.3182030747787549 0.21 0  0.3231468804843732 0.21 0  0.3280906861899917 0.21 0  0.3330344918956208 0.21 0  0.3379782976012284 0.21 0  0.3429221033068576 0.21 0  0.347865909012476 0.21 0  0.3528097147180944 0.21 0  0.3577535204237128 0.21 0  0.3626973261293311 0.21 0  0.3676411318349495 0.21 0  0.3725849375405788 0.21 0  0.3775287432461877 0.21 0  0.382472548951812 0.21 0  0.3874163546574338 0.21 0  0.3923601603630631 0.21 0  0.3973039660686706 0.21 0  0.4022477717742986 0.21 0  0.4071915774799107 0.21 0  0.4121353831855311 0.21 0  0.4170791888911518 0.21 0  0.4220229945967636 0.21 0  0.4269668003023918 0.21 0  0.4319106060080253 0.21 0  0.4368544117136773 0.21 0  0.4417982174193329 0.21 0  0.4467420231249967 0.21 0  0.4516858288306445 0.21 0  0.4566296345362864 0.21 0  0.461573440241916 0.21 0  0.4665172459475665 0.21 0  0.4714610516531998 0.21 0  0.4764048573588668 0.21 0  0.4813486630645134 0.21 0  0.486292468770176 0.21 0  0.4912362744758066 0.21 0  0.4961800801814611 0.21 0  0.5011238858870897 0.21 0  0.5060676915927493 0.21 0  0.5110114972983872 0.21 0  0.5159553030040036 0.21 0  0.5208991087096415 0.21 0  0.5258429144153002 0.21 0  0.5307867201209391 0.21 0  0.5357305258265987 0.21 0  0.5406743315322367 0.21 0  0.5456181372378529 0.21 0  0.5505619429434908 0.21 0  0.5555057486491456 0.21 0  0.5604495543547885 0.21 0  0.565393360060448 0.21 0  0.5703371657661116 0.21 0  0.5752809714717458 0.21 0  0.5802247771773834 0.21 0  0.5851685828830341 0.21 0  0.5901123885886809 0.21 0  0.5950561942943404 0.21 0  0.5950561942943833 0.19 0  0.590112388588758 0.19 0  0.5851685828831193 0.19 0  0.5802247771774727 0.19 0  0.5752809714718514 0.19 0  0.5703371657662308 0.19 0  0.565393360060618 0.19 0  0.5604495543549889 0.19 0  0.5555057486493581 0.19 0  0.5505619429437035 0.19 0  0.5456181372381043 0.19 0  0.540674331532505 0.19 0  0.5357305258268962 0.19 0  0.530786720121263 0.19 0  0.5258429144156628 0.19 0  0.5208991087100244 0.19 0  0.5159553030044218 0.19 0  0.5110114972988226 0.19 0  0.5060676915932177 0.19 0  0.5011238858875806 0.19 0  0.496180080181972 0.19 0  0.4912362744763531 0.19 0  0.4862924687707343 0.19 0  0.4813486630651046 0.19 0  0.4764048573594966 0.19 0  0.4714610516538683 0.19 0  0.4665172459482555 0.19 0  0.4615734402426349 0.19 0  0.4566296345370104 0.19 0  0.4516858288313808 0.19 0  0.4467420231257716 0.19 0  0.4417982174201465 0.19 0  0.4368544117145297 0.19 0  0.4319106060089131 0.19 0  0.4269668003032866 0.19 0  0.4220229945976482 0.19 0  0.4170791888920056 0.19 0  0.4121353831863594 0.19 0  0.4071915774806995 0.19 0  0.4022477717750478 0.19 0  0.3973039660693901 0.19 0  0.3923601603637548 0.19 0  0.3874163546581082 0.19 0  0.3824725489524824 0.19 0  0.3775287432468258 0.19 0  0.3725849375411773 0.19 0  0.3676411318355085 0.19 0  0.3626973261298614 0.19 0  0.3577535204242108 0.19 0  0.352809714718589 0.19 0  0.347865909012931 0.19 0  0.342922103307292 0.19 0  0.3379782976016536 0.19 0  0.3330344918960152 0.19 0  0.3280906861903751 0.19 0  0.3231468804847171 0.19 0  0.3182030747790592 0.19 0  0.3132592690734012 0.19 0  0.3083154633677581 0.19 0  0.3033716576621197 0.19 0  0.2984278519564813 0.19 0  0.2934840462508429 0.19 0  0.2885402405451874 0.19 0  0.2835964348395295 0.19 0  0.2786526291338716 0.19 0  0.2737088234282243 0.19 0  0.268765017722586 0.19 0  0.2638212120169476 0.19 0  0.2588774063113093 0.19 0  0.2539336006056579 0.19 0  0.6 0.1949999999999783 0  0.6 0.2049999999999729 0  0.2589734265316493 0.2005523893428403 0  0.5431462343853077 0.199999999999969 0  0.5682397894768162 0.1999704585808987 0  0.2774513927118024 0.2007941919421926 0  0.513849583376897 0.1999023426490919 0  0.5286810004937381 0.1999023426490969 0  0.2945108952057646 0.1992911908405386 0  0.5827780831384927 0.1995429801003349 0  0.3104128396569256 0.1999704585808978 0  0.3370001755418551 0.2008294612433967 0  0.4990181662600459 0.1999023426490902 0  0.3552816175709044 0.2000000000000608 0  0.4841867491431925 0.1999023426490849 0  0.3707373713905551 0.2000142376953689 0  0.3898882575102495 0.2000000000000828 0  0.4689857550492734 0.1995416724256694 0  0.4541577316841967 0.1999999999999098 0  0.4043534914018331 0.2000976573509244 0  0.4195510917439569 0.2000000000001057 0  0.4387019778644512 0.1999857623046772 0  0.3202472750256703 0.2000088842146399 0  0.5584053541080851 0.1999911157853577 0  0.4280667146887134 0.1998489048208241 0  0.3467659946265474 0.2001510951794375 0  0.3813726345658908 0.200151095179452 0  0.2860683376922098 0.2000415445706182 0  0.5911223811781194 0.1982449159348744 0  0.2679893161458627 0.201675125646729 0  0.4615734402426278 0.2022503633288003 0  0.4912362744763454 0.2022503633288091 0  0.5060676915931983 0.2022503633288118 0  0.3973039660686774 0.1977496366711965 0  0.4764048573594896 0.2022503633288051 0  0.5208991087100455 0.2022503633288184 0  0.4467420231257656 0.2022503633288 0  0.5357305258268849 0.2022503633288198 0  0.4121353831855317 0.1977496366711976 0  0.3626973261293352 0.1977496366711919 0  0.3033716576618961 0.1977496366711869 0  0.5752809714718229 0.1977496366711503 0  0.550459855919056 0.1971284784737667 0  0.3281927732146841 0.2028715215262406 0  0.5484179020497461 0.2038403215694763 0  0.3302347270839988 0.1961596784305491 0  0.5379210852238114 0.196125181664411 0  0.5230896681069652 0.1961251816644058 0  0.5082582509901222 0.1961251816644098 0  0.5774715308687094 0.2038748183355887 0  0.3011810982649548 0.2038748183355937 0  0.4785954167564111 0.196125181664404 0  0.4934268338732671 0.1961251816644063 0  0.395113406671763 0.2038748183355966 0  0.3605067667324117 0.2038748183355951 0  0.4593828808457146 0.1961251816643993 0  0.4489325825226805 0.1961251816644007 0  0.4099448237886219 0.2038748183355991 0  0.2557862999801971 0.1960858370257295 0  0.2550147360309399 0.2034426429991114 0  0.4348031476464689 0.2037737577641554 0  0.37463620160841 0.1962262422358553 0  0.3406258365864304 0.196046792193989 0  0.2813001681189834 0.1960467921940502 0  0.2912686387439893 0.1960816328649282 0  0.4246705335819892 0.2039532078059544 0  0.350162175732913 0.1960467921941878 0  0.3847688156722694 0.1960467921942359 0  0.316632368538356 0.19615945856337 0  0.5621550011053409 0.2037816492598991 0  0.5624413877019769 0.1960761923611377 0  0.3162395035833128 0.2038679557424692 0  0.2710887134207622 0.1959696443325838 0  0.5873014376403604 0.2047227881030823 0  0.4346679566442709 0.1954651459552513 0  0.4243296504077986 0.1958756980939062 0  0.3402559510833523 0.2047940500290923 0  0.2808684926760933 0.2047742417812656 0  0.2914077033138723 0.2047809517070955 0  0.3747713926104932 0.2045348540448554 0  0.3499216488898867 0.2051753413186305 0  0.3845282888292298 0.205175341318636 0  0.2648144865455052 0.1962089742986374 0  0.5943247643662894 0.2040415423589182 0  0.5320972610456145 0.1956445099050872 0  0.5172658439287727 0.1956445099050854 0  0.3069923255602658 0.2043468033872551 0  0.5024344268119265 0.1956445099050864 0  0.5716603035734351 0.2043468033872761 0  0.4876030096950741 0.1956445099050831 0  0.4728151975296263 0.1956402468909894 0  0.3663301776527538 0.20436745486386 0  0.4651631000724991 0.1956402468909893 0  0.4009372308499527 0.2043554900949198 0  0.4431091716023345 0.1956325451361429 0  0.4157593408842466 0.2043565497109067 0  0.5865057328865416 0.1956918868509067 0  0.5541600609760193 0.2044335994013721 0  0.3244925681577497 0.1955664005986376 0  0.272008018888917 0.2049327968152409 0  0.2633407725863902 0.2042483236346266 0  0.4567948413982566 0.2046536472831198 0  0.4167680012832803 0.1955060004091903 0  0.4716262585151221 0.2046536472831242 0  0.5161054367030595 0.2045563706470633 0  0.4864426024693469 0.2045563706470604 0  0.5012740195862044 0.2045563706470634 0  0.4022810343427545 0.1961423961483001 0  0.4420739040821668 0.2044853411424516 0  0.3673807293464664 0.1955677741328205 0  0.3925253672243162 0.195346352716901 0  0.5405091246712254 0.2046536472831267 0  0.357918727284983 0.1953463527168901 0  0.5307534575528717 0.2038576038516682 0  0.3079697655029555 0.1955637092892754 0  0.2985930588175599 0.1953463527168728 0  0.579671714346879 0.1955441268455555 0  0.5705023726275059 0.1953463527168462 0  0.5112451461103119 0.2035640580783926 0  0.4964137289934448 0.2035640580783915 0  0.4665727251511405 0.2038238154617746 0  0.5259274680675793 0.2038006696000127 0  0.4815823118765752 0.2035640580783898 0  0.4517504165552094 0.2039070625502732 0  0.4071070238280551 0.1961993303999926 0  0.3234846806957546 0.2047001437739977 0  0.5551679484379799 0.1952998562260008 0  0.5457754356464107 0.1954447171286166 0  0.3329307555206357 0.2046017509710421 0  0.4541577316841968 0.1960357661898101 0  0.3358300776141575 0.1950765652117375 0  0.2539718587514912 0.200011552766824 0  0.5826472073721517 0.2039971170156656 0  0.2761021761080182 0.1946948236183283 0  0.3898581462796225 0.2041572776584344 0  0.3552515063402743 0.2041572776584256 0  0.2965028074750666 0.2046578268138723 0  0.4299158836614793 0.1951782397873778 0  0.379426563923736 0.2049969334481307 0  0.2860882692072842 0.2042624797643994 0  0.3449948044168807 0.2051793676155613 0  0.2603922435707652 0.1950997711614917 0  0.5949856943860
[...]
<PointData  Vectors="f_18-1"> 
<DataArray  type="Float64"  Name="f_18-1"  NumberOfComponents="3" format="ascii">-1.6028146845882583e-02 -8.6137138971619023e-02 0.0000000000000000e+00  -9.2792179444439581e-03 -8.7310362559879520e-02 0.0000000000000000e+00  0.0000000000000000e+00 0.0000000000000000e+00 0.0000000000000000e+00  0.0000000000000000e+00 0.0000000000000000e+00 0.0000000000000000e+00  -1.2653624063537795e-02 -8.6723704185961495e-02 0.0000000000000000e+00  0.0000000000000000e+00 0.0000000000000000e+00 0.0000000000000000e+00  0.0000000000000000e+00 0.0000000000000000e+00 0.0000000000000000e+00  0.0000000000000000e+00 0.0000000000000000e+00 0.0000000000000000e+00  0.0000000000000000e+00 0.0000000000000000e+00 0.0000000000000000e+00  1.1326488444157327e-04 -9.9013173564600621e-05 0.0000000000000000e+00  2.3736216732571784e-04 -2.0724204060161612e-04 0.0000000000000000e+00  3.5968008676816668e-04 -3.4536398031357284e-04 0.0000000000000000e+00  4.7344670205868623e-04 -5.7528970655009977e-04 0.0000000000000000e+00  5.7911841487624544e-04 -8.5489731524312801e-04 0.0000000000000000e+00  6.8620268647270086e-04 -1.2048467289731998e-03 0.0000000000000000e+00  7.7928065852108372e-04 -1.5912126624506981e-03 0.0000000000000000e+00  8.5770554853079419e-04 -2.0415779215098456e-03 0.0000000000000000e+00  9.3325265540402226e-04 -2.5424792522404866e-03 0.0000000000000000e+00  9.9755940738640637e-04 -3.0936929790786444e-03 0.0000000000000000e+00  1.0609899956705734e-03 -3.7127564189646696e-03 0.0000000000000000e+00  1.1223856001132413e-03 -4.3427826786074713e-03 0.0000000000000000e+00  1.1602931261359437e-03 -5.0479657531845032e-03 0.0000000000000000e+00  1.2089388424355563e-03 -5.7947115419210550e-03 0.0000000000000000e+00  1.2315980392154807e-03 -6.5775912163521799e-03 0.0000000000000000e+00  1.2505014670450643e-03 -7.4155788080413169e-03 0.0000000000000000e+00  1.2592041225962087e-03 -8.2848565955474743e-03 0.0000000000000000e+00  1.2555911122197076e-03 -9.2074741961899794e-03 0.0000000000000000e+00  1.2400937182741542e-03 -1.0151951211490514e-02 0.0000000000000000e+00  1.2157780104481545e-03 -1.1142331053345151e-02 0.0000000000000000e+00  1.1802087451267334e-03 -1.2164293307982826e-02 0.0000000000000000e+00  1.1325672893179341e-03 -1.3217632414708384e-02 0.0000000000000000e+00  1.0804303030720317e-03 -1.4323333362009968e-02 0.0000000000000000e+00  1.0266996683366266e-03 -1.5436873608960944e-02 0.0000000000000000e+00  9.5507974355193959e-04 -1.6596647810240173e-02 0.0000000000000000e+00  8.7352415041266776e-04 -1.7775722087736635e-02 0.0000000000000000e+00  7.8286544379588784e-04 -1.8989895775429515e-02 0.0000000000000000e+00  6.8242199677980486e-04 -2.0229221143096984e-02 0.0000000000000000e+00  5.7060595045791980e-04 -2.1492416844330512e-02 0.0000000000000000e+00  4.5313514707308165e-04 -2.2795733348537732e-02 0.0000000000000000e+00  3.3430795154278678e-04 -2.4102999031602915e-02 0.0000000000000000e+00  1.9618254832473264e-04 -2.5444355261804857e-02 0.0000000000000000e+00  5.2447678034863215e-05 -2.6813987362424848e-02 0.0000000000000000e+00  -9.3626068209913291e-05 -2.8190197555125775e-02 0.0000000000000000e+00  -2.5630918008603709e-04 -2.9597158256823405e-02 0.0000000000000000e+00  -4.1796483290870349e-04 -3.1020554568529538e-02 0.0000000000000000e+00  -5.9414005655183423e-04 -3.2462071797713758e-02 0.0000000000000000e+00  -7.7175786587951759e-04 -3.3925756160084961e-02 0.0000000000000000e+00  -9.6082526385273545e-04 -3.5401305843807282e-02 0.0000000000000000e+00  -1.1577107245430919e-03 -3.6895827399219198e-02 0.0000000000000000e+00  -1.3583305603934283e-03 -3.8404006395738252e-02 0.0000000000000000e+00  -1.5646737631600800e-03 -3.9927720190860487e-02 0.0000000000000000e+00  -1.7803976206850634e-03 -4.1464705407992561e-02 0.0000000000000000e+00  -1.9991627644917725e-03 -4.3013532985462261e-02 0.0000000000000000e+00  -2.2233829171824414e-03 -4.4575806276204180e-02 0.0000000000000000e+00  -2.4556150142995602e-03 -4.6149137359869752e-02 0.0000000000000000e+00  -2.6911636875837333e-03 -4.7732207858851773e-02 0.0000000000000000e+00  -2.9314240718413547e-03 -4.9326429334985794e-02 0.0000000000000000e+00  -3.1781743840782160e-03 -5.0929033438075047e-02 0.0000000000000000e+00  -3.4278849006650490e-03 -5.2539490159360283e-02 0.0000000000000000e+00  -3.6815824768361939e-03 -5.4158722585989610e-02 0.0000000000000000e+00  -3.9406681463266188e-03 -5.5784547517066956e-02 0.0000000000000000e+00  -4.2022762344161935e-03 -5.7416294235575704e-02 0.0000000000000000e+00  -4.4672446390308105e-03 -5.9054651780482172e-02 0.0000000000000000e+00  -4.7364589157199329e-03 -6.0697722546838265e-02 0.0000000000000000e+00  -5.0074924754728786e-03 -6.2345215162908842e-02 0.0000000000000000e+00  -5.2812028349777836e-03 -6.3997211650286379e-02 0.0000000000000000e+00  -5.5577255398893341e-03 -6.5652546043664425e-02 0.0000000000000000e+00  -5.8366246772441066e-03 -6.7310291474630385e-02 0.0000000000000000e+00  -6.1179255842670312e-03 -6.8971027685541725e-02 0.0000000000000000e+00  -6.4007281496501582e-03 -7.0634372421685035e-02 0.0000000000000000e+00  -6.6840834547428306e-03 -7.2298058829672829e-02 0.0000000000000000e+00  -6.9696341121423915e-03 -7.3964123675902993e-02 0.0000000000000000e+00  -7.2556490653917444e-03 -7.5631222458284353e-02 0.0000000000000000e+00  -7.5430391016393147e-03 -7.7298864711447410e-02 0.0000000000000000e+00  -7.8314073687384828e-03 -7.8967396231066286e-02 0.0000000000000000e+00  -8.1201613455855973e-03 -8.0635910164567365e-02 0.0000000000000000e+00  -8.4096039475398711e-03 -8.2304648335897221e-02 0.0000000000000000e+00  -8.6993716630111156e-03 -8.3973452528926684e-02 0.0000000000000000e+00  -8.9892198793434189e-03 -8.5641933944442555e-02 0.0000000000000000e+00  -1.5738065566143423e-02 -8.4468737118979398e-02 0.0000000000000000e+00  -1.5447815337081026e-02 -8.2800304690674481e-02 0.0000000000000000e+00  -1.5157372338570070e-02 -8.1131756480527797e-02 0.0000000000000000e+00  -1.4866647504082484e-02 -7.9463417812343798e-02 0.0000000000000000e+00  -1.4575712107793945e-02 -7.7795564067823092e-02 0.0000000000000000e+00  -1.4284478903663895e-02 -7.6128036195359308e-02 0.0000000000000000e+00  -1.3993050558873059e-02 -7.4461754079658063e-02 0.0000000000000000e+00  -1.3701041154091285e-02 -7.2796796570308006e-02 0.0000000000000000e+00  -1.3409280373841521e-02 -7.1132875541749227e-02 0.0000000000000000e+00  -1.3117324762617807e-02 -6.9471528625731901e-02 0.0000000000000000e+00  -1.2825162865056462e-02 -6.7811691215399136e-02 0.0000000000000000e+00  -1.2533792187035230e-02 -6.6155019151096672e-02 0.0000000000000000e+00  -1.2242270492764164e-02 -6.4502566094819053e-02 0.0000000000000000e+00  -1.1950006980392816e-02 -6.2851298081293833e-02 0.0000000000000000e+00  -1.1659394957082183e-02 -6.1205458015404300e-02 0.0000000000000000e+00  -1.1368726262244919e-02 -5.9566204346526333e-02 0.0000000000000000e+00  -1.1077328425646323e-02 -5.7928790655839925e-02 0.0000000000000000e+00  -1.0788909763633565e-02 -5.6299166778540702e-02 0.0000000000000000e+00  -1.0500561813901830e-02 -5.4678430435926732e-02 0.0000000000000000e+00  -1.0211425346038546e-02 -5.3060164407884004e-02 0.0000000000000000e+00  -9.9266771455846694e-03 -5.1452398719364571e-02 0.0000000000000000e+00  -9.6422856683798849e-03 -4.9856137210022841e-02 0.0000000000000000e+00  -9.3570977277522161e-03 -4.8262990300092054e-02 0.0000000000000000e+00  -9.0778034751589822e-03 -4.6683109804778133e-02 0.0000000000000000e+00  -8.7990704479858801e-03 -4.5117622353099809e-02 0.0000000000000000e+00  -8.5200725493024630e-03 -4.3557342935702272e-02 0.0000000000000000e+00  -8.2460347000208722e-03 -4.2011161783137144e-02 0.0000000000000000e+00  -7.9737657162160542e-03 -4.0483096126476138e-02 0.0000000000000000e+00  -7.7018329325014507e-03 -3.8958548433714622e-02 0.0000000000000000e+00  -7.4391727962912881e-03 -3.7452860246310005e-02 0.0000000000000000e+00  -7.1758904240715486e-03 -3.5970341684709348e-02 0.0000000000000000e+00  -6.9118932371564209e-03 -3.4493181475999384e-02 0.0000000000000000e+00  -6.6557485861938083e-03 -3.3039676768261805e-02 0.0000000000000000e+00  -6.4039372114289422e-03 -3.1597936374150440e-02 0.0000000000000000e+00  -6.1557575356168135e-03 -3.0176463841697684e-02 0.0000000000000000e+00  -5.9147468817805169e-03 -2.8779390645910188e-02 0.0000000000000000e+00  -5.6711840703559425e-03 -2.7396582336395824e-02 0.0000000000000000e+00  -5.4362262122004722e-03 -2.6038139223818330e-02 0.0000000000000000e+00  -5.2017814866532142e-03 -2.4700952446990474e-02 0.0000000000000000e+00  -4.9704312264709652e-03 -2.3388516038298418e-02 0.0000000000000000e+00  -4.7458674974512121e-03 -2.2101734709729169e-02 0.0000000000000000e+00  -4.5305113829998932e-03 -2.0833680411789207e-02 0.0000000000000000e+00  -4.3215036546488473e-03 -1.9594669889917069e-02 0.0000000000000000e+00  -4.1039999395726372e-03 -1.8378654643136077e-02 0.0000000000000000e+00  -3.9032372947447845e-03 -1.7193727659648585e-02 0.0000000000000000e+00  -3.6968635034366234e-03 -1.6043246436554311e-02 0.0000000000000000e+00  -3.5044651151081808e-03 -1.4915431698393098e-02 0.0000000000000000e+00  -3.3141500769599125e-03 -1.3826712334581982e-02 0.0000000000000000e+00  -3.1335885457595062e-03 -1.2760886484876768e-02 0.0000000000000000e+00  -2.9600863894392584e-03 -1.1732910966904523e-02 0.0000000000000000e+00  -2.7748377170524223e-03 -1.0733171992958550e-02 0.0000000000000000e+00  -2.6093502945305292e-03 -9.7715131347807186e-03 0.0000000000000000e+00  -2.4340702031288718e-03 -8.8537565606044595e-03 0.0000000000000000e+00  -2.2801826310644546e-03 -7.9671007885547592e-03 0.0000000000000000e+00  -2.1268433121556926e-03 -7.1363866325181904e-03 0.0000000000000000e+00  -1.9702037518134060e-03 -6.3183559157914664e-03 0.0000000000000000e+00  -1.8272857076081881e-03 -5.5603141443831368e-03 0.0000000000000000e+00  -1.6679416909981253e-03 -4.8432499101914292e-03 0.0000000000000000e+00  -1.5312745309807938e-03 -4.1658807749195732e-03 0.0000000000000000e+00  -1.3936696025283561e-03 -3.5483444544137507e-03 0.0000000000000000e+00  -1.2635744975896884e-03 -2.9639014343006988e-03 0.0000000000000000e+00  -1.1386603827387620e-03 -2.4372686501442807e-03 0.0000000000000000e+00  -9.9779794009491308e-04 -1.9503071996520112e-03 0.0000000000000000e+00  -8.8043430071012437e-04 -1.5167609565537349e-03 0.0000000000000000e+00  -7.4360348537187942e-04 -1.1367343723089943e-03 0.0000000000000000e+00  -6.2462814776140458e-04 -8.2055422001069286e-04 0.0000000000000000e+00  -4.8878835282744650e-04 -5.5903390299188668e-04 0.0000000000000000e+00  -3.6577384631239051e-04 -3.3855447908928216e-04 0.0000000000000000e+00  -2.4438206190413982e-04 -1.8416394087249725e-04 0.0000000000000000e+00  -1.2152362725608463e-04 -1.0473663677067228e-04 0.0000000000000000e+00  -1.4340818656280062e-02 -8.6430439909447140e-02 0.0000000000000000e+00  -1.0966476448990597e-02 -8.7017005087467833e-02 0.0000000000000000e+00  1.2951922213079448e-05 -1.0186064926122564e-04 0.0000000000000000e+00  -9.3273738536366110e-03 -6.7558041059387494e-02 0.0000000000000000e+00  -1.0800353283761579e-02 -7.6003097528600017e-02 0.0000000000000000e+00  2.3396208776152576e-05 -1.0039960842061488e-03 0.0000000000000000e+00  -7.6838521249683270e-03 -5.7781562850817467e-02 0.0000000000000000e+00  -8.5259066139884727e-03 -6.2710119991195717e-02 0.0000000000000000e+00  -1.6892729960845253e-04 -2.5202262235573692e-03 0.0000000000000000e+00  -1.1797159403285981e-02 -8.0884174589461844e-02 0.0000000000000000e+00  -2.1702585304015463e-04 -4.4786532806359624e-03 0.0000000000000000e+00  -4.1994240573301909e-04 -8.8056531452209829e-03 0.0000000000000000e+00  -6.8599906926107707e-03 -5.2905318899116011e-02 0.0000000000000000e+00  -9.3049059951178783e-04 -1.2422976811157536e-02 0.0000000000000000e+00  -6.0604070392179955e-03 -4.8099003068170346e-02 0.0000000000000000e+00  -1.3103084505616644e-03 -1.5840977595330073e-02 0.0000000000000000e+00  -1.8861278617388136e-03 -2.0502768221810463e-02 0.0000000000000000e+00  -5.3848368329423952e-03 -4.3246040121094502e-02 0.0000000000000000e+00  -4.5096687205237636e-03 -3.8666512244233828e-02 0.0000000000000000e+00  -2.3607212668394343e-03 -2.4279332872203400e-02 0.0000000000000000e+00  -2.9726542465444723e-03 -2.8458809173812511e-02 0.0000000000000000e+00  -3.7946128376594780e-03 -3.4000498869378865e-02 0.0000000000000000e+00  -3.1893206476701365e-04 -5.9266292606239886e-03 0.0000000000000000e+00  -1.0217928776942204e-02 -7.2688916250569835e-02 0.0000000000000000e+00  -3.3680915829465323e-03 -3.0883994001153263e-02 0.0000000000000000e+00  -7.2305835822668947e-04 -1.0671445056277281e-02 0.0000000000000000e+00  -1.5829118935947210e-03 -1.8381617473245668e-02 0.0000000000000000e+00  -5.7119598222128125e-05 -1.7122865600548850e-03 0.0000000000000000e+00  -1.2724912990077346e-02 -8.3624601762864390e-02 0.0000000000000000e+00  6.4061201286578993e-05 -4.4698472066295741e-04 0.0000000000000000e+00  -4.1744343108014031e-03 -4.1065288953138990e-02 0.0000000000000000e+00  -5.6791075149980426e-03 -5.0500876501391220e-02 0.0000000000000000e+00  -6.4796069902103588e-03 -5.5346242999200219e-02 0.0000000000000000e+00  -2.7216868416995847e-03 -2.2335663145469632e-02 0.0000000000000000e+00  -4.9086037027541813e-03 -4.5733939299887796e-02 0.0000000000000000e+00  -7.3042637916831852e-03 -6.0252132602078005e-02 0.0000000000000000e+00  -3.4835344857749098e-03 -3.6515042156919683e-02 0.0000000000000000e+00  -8.1469879937742535e-03 -6.5201959361915682e-02 0.0000000000000000e+00  -3.2973072754170695e-03 -2.6310016666136939e-02 0.0000000000000000e+00  -1.6016215383883577e-03 -1.3973050376324268e-02 0.0000000000000000e+00  -4.2929866774035020e-04 -3.5456845846094597e-03 0.0000000000000000e+00  -1.1961807601872744e-02 -7.8248763489547193e-02 0.0000000000000000e+00  -1.0716008073388334e-02 -6.9848704035121958e-02 0.0000000000000000e+00  5.1327026086200676e-05 -7.2751463085595058e-03 0.0000000000000000e+00  -8.3447214769559533e-03 -6.9552315682445603e-02 0.0000000000000000e+00  -1.1212620557288942e-03 -7.5356460258860477e-03 0.0000000000000000e+00  -1.0320514788219659e-02 -6.5583448336265573e-02 0.0000000000000000e+00  -9.4600449828808955e-03 -6.0633854495062187e-02 0.0000000000000000e+00  -8.6108420087389718e-03 -5.5728050667985585e-02 0.0000000000000000e+00  -1.0025172445185561e-02 -7.9346856684356246e-02 0.0000000000000000e+00  3.2596712023707738e-04 -3.3278758762791175e-03 0.0000000000000000e+00  -6.9666462069709646e-03 -4.6115536088651668e-02 0.0000000000000000e+00  -7.7778428596967826e-03 -5.0882520561613624e-02 0.0000000000000000e+00  -1.0613384711185953e-03 -2.1977732579752801e-02 0.0000000000000000e+00  -2.1059091256045621e-04 -1.3643943818444235e-02 0.0000000000000000e+00  -5.9602498655425889e-03 -4.0088018726662400e-02 0.0000000000000000e+00  -5.4300900701885115e-03 -3.6894316309367077e-02 0.0000000000000000e+00  -1.5398659359506478e-03 -2.5944277311422730e-02 0.0000000000000000e+00  -5.3128149247205418e-05 -4.3716227178646595e-05 0.0000000000000000e+00  3.9246065216852931e-05 -3.3924103365067532e-05 0.0000000000000000e+00  -2.5159805530050967e-03 -3.3019778134318396e-02 0.0000000000000000e+00  -2.3122924084483308e-03 -1.6654863705687431e-02 0.0000000000000000e+00  -1.3815643710006595e-03 -9.4078468967592251e-03 0.0000000000000000e+00  -3.4455959613234941e-04 -1.2942346214242510e-03 0.0000000000000000e+00  -4.5778019397895640e-04 -2.1833985528159389e-03 0.0000000000000000e+00  -2.0601068112984663e-03 -3.0084645617076484e-02 0.0000000000000000e+00  -1.6184732995702560e-03 -1.1277371948316892e-02 0.0000000000000000e+00  -2.6979965491231526e-03 -1.9095895857628026e-02 0.0000000000000000e+00  -8.4606065327340015e-04 -5.3429318346566983e-03 0.0000000000000000e+00  -9.1612243579795027e-03 -7.4174139633968350e-02 0.0000000000000000e+00  -1.1772070610486823e-02 -7.3820717694787041e-02 0.0000000000000000e+00  2.8948992929596644e-04 -5.3689915806289122e-03 0.0000000000000000e+00  -2.4081897978338136e-04 -6.1775714122146315e-04 0.0000000000000000e+00  -1.0315193481623545e-02 -8.2714889308247330e-02 0.0000000000000000e+00  -4.9394106748970835e-03 -3.2619027381451164e-02 0.0000000000000000e+00  -4.3430108740775374e-03 -2.9649657321460934e-02 0.0000000000000000e+00  2.7297190595885893e-04 -9.5009097099285570e-03 0.0000000000000000e+00  3.2448284032220973e-04 -1.2932212372219166e-03 0.0000000000000000e+00  3.9288501348224146e-04 -2.2477006392501364e-03 0.0000000000000000e+00  -3.6101507371640571e-04 -1.6924527796967861e-02 0.0000000000000000e+00  2.2794330527332675e-04 -1.1429975426958776e-02 0.0000000000000000e+00  -4.4352181486048567e-04 -1.9327268094077851e-02 0.0000000000000000e+00  -1.5067278362248509e-04 -3.2306686322695373e-04 0.0000000000000000e+00  -1.0956947719179121e-02 -8.5045484926262002e-02 0.0000000000000000e+00  -1.0142764492181711e-02 -6.3608454948786988e-02 0.0000000000000000e+00  -9.2853217353458910e-03 -5.8674864519706764e-02 0.0000000000000000e+00  3.7697073835261398e-04 -4.0723800599232326e-03 0.0000000000000000e+00  -8.4403683089700563e-03 -5.3791400581902279e-02 0.0000000000000000e+00  -9.5259463652200144e-03 -7.7413446978724793e-02 0.0000000000000000e+00  -7.6132619372545679e-03 -4.8975433510640196e-02 0.0000000000000000e+00  -6.8128221615719967e-03 -4.4258880491837509e-02 0.0000000000000000e+00  -2.2218306781847651e-04 -1.4957027070704763e-02 0.0000000000000000e+00  -6.4072107903426342e-03 -4.1858492843148631e-02 0.0000000000000000e+00  -1.1199506510649741e-03 -2.3526909231068094e-02 0.0000000000000000e+00  -5.2964626429084383e-03 -3.5122103516926850e-02 0.0000000000000000e+00  -1.6150281495157415e-03 -2.7575888835376094e-02 0.0000000000000000e+00  -1.3315261587296708e-02 -8.1916676403543762e-02 0.0000000000000000e+00  -8.4776393879972510e-03 -7.1518596870966983e-02 0.0000000000000000e+00  -1.0983835967120536e-03 -6.5637202832927472e-03 0.0000000000000000e+00  2.5777710810537268e-04 -6.7797186048155654e-04 0.0000000000000000e+00  1.3787310654901058e-04 -2.5932725666689347e-04 0.0000000000000000e+00  -3.2107998104128730e-03 -3.9703978718087660e-02 0.0000000000000000e+00  -4.1128406148987088e-03 -2.7508597278055994e-02 0.0000000000000000e+00  -3.9121880911396354e-03 -4.4342389935768667e-02 0.0000000000000000e+00  -6.2737391680817572e-03 -5.8791643207435837e-02 0.0000000000000000e+00  -4.6862395577454020e-03 -4.9074811312444899e-02 0.0000000000000000e+00  -5.4655609888079734e-03 -5.3900529080175417e-02 0.0000000000000000e+00  -3.3362041398907836e-03 -2.3589139991894569e-02 0.0000000000000000e+00  -2.6105393209860293e-03 -3.5215300160593828e-02 0.0000000000000000e+00  -2.2287927026107155e-03 -1.4968494232152182e-02 0.0000000000000000e+00  -3.1606696822376189e-03 -2.1028411005571936e-02 0.0000000000000000e+00  -7.6173790108031410e-03 -6.6942803150446914e-02 0.0000000000000000e+00  -1.9838664529095835e-03 -1.2887009629775421e-02 0.0000000000000000e+00  -7.3268443369407443e-03 -6.3629223362318035e-02 0.0000000000000000e+00  -7.8012275912630095e-04 -4.1257044647662255e-03 0.0000000000000000e+00  -6.4991566639584957e-04 -2.9659849924322367e-03 0.0000000000000000e+00  -1.2963647870512445e-02 -7.9601387680385952e-02 0.0000000000000000e+00  -1.2491333206762227e-02 -7.6496078168293388e-02 0.0000000000000000e+00  -6.3321339557154653e-03 -5.7126451465182797e-02 0.0000000000000000e+00  -5.5281606832751828e-03 -5.2256012531016083e-02 0.0000000000000000e+00  -3.9254483121931522e-03 -4.2706750764585306e-02 0.0000000000000000e+00  -7.0725714796953231e-03 -6.2014699141815267e-02 0.0000000000000000e+00  -4.7538604081914255e-03 -4.7457257245278085e-02 0.0000000000000000e+00  -3.2071221372889334e-03 -3.8117870572456934e-02 0.0000000000000000e+00  -3.5142168656684394e-03 -2.4881646712138022e-02 0.0000000000000000e+00  3.8671342649971988e-04 -6.5202871609753065e-03 0.0000000000000000e+00  -1.1606236316260779e-02 -7.1326353640218942e-02 0.0000000000000000e+00  -1.1007328765123022e-02 -6.8177744591572317e-02 0.0000000000000000e+00  3.04