<?xml version="1.0"?>
<VTKFile type="UnstructuredGrid"  version="0.1"  >
<UnstructuredGrid>
<Piece  NumberOfPoints="439" NumberOfCells="725">
<Points>
<DataArray  type="Float64"  NumberOfComponents="3"  format="ascii">0.6 0.19 0  0.6 0.21 0  0.2489897949 0.21 0  0.2489897949 0.19 0  0.6 0.2 0  0.2496355385699469 0.2060260530378829 0  0.249959460510575 0.2020130349814059 0  0.2499594605105767 0.1979869650186357 0  0.24963553856995 0.1939739469621422 0  0.2539336006056293 0.21 0  0.2588774063112542 0.21 0  0.2638212120168921 0.21 0  0.26876501772253 0.21 0  0.2737088234281569 0.21 0  0.2786526291337753 0.21 0  0.2835964348393937 0.21 0  0.2885402405450166 0.21 0  0.2934840462506522 0.21 0  0.2984278519562708 0.21 0  0.3033716576618997 0.21 0  0.3083154633675181 0.21 0  0.3132592690731365 0.21 0  0.3182030747787549 0.21 0  0.3231468804843732 0.21 0  0.3280906861899917 0.21 0  0.3330344918956208 0.21 0  0.3379782976012284 0.21 0  0.3429221033068576 0.21 0  0.347865909012476 0.21 0  0.3528097147180944 0.21 0  0.3577535204237128 0.21 0  0.3626973261293311 0.21 0  0.3676411318349495 0.21 0  0.3725849375405788 0.21 0  0.3775287432461877 0.21 0  0.382472548951812 0.21 0  0.3874163546574338 0.21 0  0.3923601603630631 0.21 0  0.3973039660686706 0.21 0  0.4022477717742986 0.21 0  0.4071915774799107 0.21 0  0.4121353831855311 0.21 0  0.4170791888911518 0.21 0  0.4220229945967636 0.21 0  0.4269668003023918 0.21 0  0.4319106060080253 0.21 0  0.4368544117136773 0.21 0  0.4417982174193329 0.21 0  0.4467420231249967 0.21 0  0.4516858288306445 0.21 0  0.4566296345362864 0.21 0  0.461573440241916 0.21 0  0.4665172459475665 0.21 0  0.4714610516531998 0.21 0  0.4764048573588668 0.21 0  0.4813486630645134 0.21 0  0.486292468770176 0.21 0  0.4912362744758066 0.21 0  0.4961800801814611 0.21 0  0.5011238858870897 0.21 0  0.5060676915927493 0.21 0  0.5110114972983872 0.21 0  0.5159553030040036 0.21 0  0.5208991087096415 0.21 0  0.5258429144153002 0.21 0  0.5307867201209391 0.21 0  0.5357305258265987 0.21 0  0.5406743315322367 0.21 0  0.5456181372378529 0.21 0  0.5505619429434908 0.21 0  0.5555057486491456 0.21 0  0.5604495543547885 0.21 0  0.565393360060448 0.21 0  0.5703371657661116 0.21 0  0.5752809714717458 0.21 0  0.5802247771773834 0.21 0  0.5851685828830341 0.21 0  0.5901123885886809 0.21 0  0.5950561942943404 0.21 0  0.5950561942943833 0.19 0  0.590112388588758 0.19 0  0.5851685828831193 0.19 0  0.5802247771774727 0.19 0  0.5752809714718514 0.19 0  0.5703371657662308 0.19 0  0.565393360060618 0.19 0  0.5604495543549889 0.19 0  0.5555057486493581 0.19 0  0.5505619429437035 0.19 0  0.5456181372381043 0.19 0  0.540674331532505 0.19 0  0.5357305258268962 0.19 0  0.530786720121263 0.19 0  0.5258429144156628 0.19 0  0.5208991087100244 0.19 0  0.5159553030044218 0.19 0  0.5110114972988226 0.19 0  0.5060676915932177 0.19 0  0.5011238858875806 0.19 0  0.496180080181972 0.19 0  0.4912362744763531 0.19 0  0.4862924687707343 0.19 0  0.4813486630651046 0.19 0  0.4764048573594966 0.19 0  0.4714610516538683 0.19 0  0.4665172459482555 0.19 0  0.4615734402426349 0.19 0  0.4566296345370104 0.19 0  0.4516858288313808 0.19 0  0.4467420231257716 0.19 0  0.4417982174201465 0.19 0  0.4368544117145297 0.19 0  0.4319106060089131 0.19 0  0.4269668003032866 0.19 0  0.4220229945976482 0.19 0  0.4170791888920056 0.19 0  0.4121353831863594 0.19 0  0.4071915774806995 0.19 0  0.4022477717750478 0.19 0  0.3973039660693901 0.19 0  0.3923601603637548 0.19 0  0.3874163546581082 0.19 0  0.3824725489524824 0.19 0  0.3775287432468258 0.19 0  0.3725849375411773 0.19 0  0.3676411318355085 0.19 0  0.3626973261298614 0.19 0  0.3577535204242108 0.19 0  0.352809714718589 0.19 0  0.347865909012931 0.19 0  0.342922103307292 0.19 0  0.3379782976016536 0.19 0  0.3330344918960152 0.19 0  0.3280906861903751 0.19 0  0.3231468804847171 0.19 0  0.3182030747790592 0.19 0  0.3132592690734012 0.19 0  0.3083154633677581 0.19 0  0.3033716576621197 0.19 0  0.2984278519564813 0.19 0  0.2934840462508429 0.19 0  0.2885402405451874 0.19 0  0.2835964348395295 0.19 0  0.2786526291338716 0.19 0  0.2737088234282243 0.19 0  0.268765017722586 0.19 0  0.2638212120169476 0.19 0  0.2588774063113093 0.19 0  0.2539336006056579 0.19 0  0.6 0.1949999999999783 0  0.6 0.2049999999999729 0  0.2589734265316493 0.2005523893428403 0  0.5431462343853077 0.199999999999969 0  0.5682397894768162 0.1999704585808987 0  0.2774513927118024 0.2007941919421926 0  0.513849583376897 0.1999023426490919 0  0.5286810004937381 0.1999023426490969 0  0.2945108952057646 0.1992911908405386 0  0.5827780831384927 0.1995429801003349 0  0.3104128396569256 0.1999704585808978 0  0.3370001755418551 0.2008294612433967 0  0.4990181662600459 0.1999023426490902 0  0.3552816175709044 0.2000000000000608 0  0.4841867491431925 0.1999023426490849 0  0.3707373713905551 0.2000142376953689 0  0.3898882575102495 0.2000000000000828 0  0.4689857550492734 0.1995416724256694 0  0.4541577316841967 0.1999999999999098 0  0.4043534914018331 0.2000976573509244 0  0.4195510917439569 0.2000000000001057 0  0.4387019778644512 0.1999857623046772 0  0.3202472750256703 0.2000088842146399 0  0.5584053541080851 0.1999911157853577 0  0.4280667146887134 0.1998489048208241 0  0.3467659946265474 0.2001510951794375 0  0.3813726345658908 0.200151095179452 0  0.2860683376922098 0.2000415445706182 0  0.5911223811781194 0.1982449159348744 0  0.2679893161458627 0.201675125646729 0  0.4615734402426278 0.2022503633288003 0  0.4912362744763454 0.2022503633288091 0  0.5060676915931983 0.2022503633288118 0  0.3973039660686774 0.1977496366711965 0  0.4764048573594896 0.2022503633288051 0  0.5208991087100455 0.2022503633288184 0  0.4467420231257656 0.2022503633288 0  0.5357305258268849 0.2022503633288198 0  0.4121353831855317 0.1977496366711976 0  0.3626973261293352 0.1977496366711919 0  0.3033716576618961 0.1977496366711869 0  0.5752809714718229 0.1977496366711503 0  0.550459855919056 0.1971284784737667 0  0.3281927732146841 0.2028715215262406 0  0.5484179020497461 0.2038403215694763 0  0.3302347270839988 0.1961596784305491 0  0.5379210852238114 0.196125181664411 0  0.5230896681069652 0.1961251816644058 0  0.5082582509901222 0.1961251816644098 0  0.5774715308687094 0.2038748183355887 0  0.3011810982649548 0.2038748183355937 0  0.4785954167564111 0.196125181664404 0  0.4934268338732671 0.1961251816644063 0  0.395113406671763 0.2038748183355966 0  0.3605067667324117 0.2038748183355951 0  0.4593828808457146 0.1961251816643993 0  0.4489325825226805 0.1961251816644007 0  0.4099448237886219 0.2038748183355991 0  0.2557862999801971 0.1960858370257295 0  0.2550147360309399 0.2034426429991114 0  0.4348031476464689 0.2037737577641554 0  0.37463620160841 0.1962262422358553 0  0.3406258365864304 0.196046792193989 0  0.2813001681189834 0.1960467921940502 0  0.2912686387439893 0.1960816328649282 0  0.4246705335819892 0.2039532078059544 0  0.350162175732913 0.1960467921941878 0  0.3847688156722694 0.1960467921942359 0  0.316632368538356 0.19615945856337 0  0.5621550011053409 0.2037816492598991 0  0.5624413877019769 0.1960761923611377 0  0.3162395035833128 0.2038679557424692 0  0.2710887134207622 0.1959696443325838 0  0.5873014376403604 0.2047227881030823 0  0.4346679566442709 0.1954651459552513 0  0.4243296504077986 0.1958756980939062 0  0.3402559510833523 0.2047940500290923 0  0.2808684926760933 0.2047742417812656 0  0.2914077033138723 0.2047809517070955 0  0.3747713926104932 0.2045348540448554 0  0.3499216488898867 0.2051753413186305 0  0.3845282888292298 0.205175341318636 0  0.2648144865455052 0.1962089742986374 0  0.5943247643662894 0.2040415423589182 0  0.5320972610456145 0.1956445099050872 0  0.5172658439287727 0.1956445099050854 0  0.3069923255602658 0.2043468033872551 0  0.5024344268119265 0.1956445099050864 0  0.5716603035734351 0.2043468033872761 0  0.4876030096950741 0.1956445099050831 0  0.4728151975296263 0.1956402468909894 0  0.3663301776527538 0.20436745486386 0  0.4651631000724991 0.1956402468909893 0  0.4009372308499527 0.2043554900949198 0  0.4431091716023345 0.1956325451361429 0  0.4157593408842466 0.2043565497109067 0  0.5865057328865416 0.1956918868509067 0  0.5541600609760193 0.2044335994013721 0  0.3244925681577497 0.1955664005986376 0  0.272008018888917 0.2049327968152409 0  0.2633407725863902 0.2042483236346266 0  0.4567948413982566 0.2046536472831198 0  0.4167680012832803 0.1955060004091903 0  0.4716262585151221 0.2046536472831242 0  0.5161054367030595 0.2045563706470633 0  0.4864426024693469 0.2045563706470604 0  0.5012740195862044 0.2045563706470634 0  0.4022810343427545 0.1961423961483001 0  0.4420739040821668 0.2044853411424516 0  0.3673807293464664 0.1955677741328205 0  0.3925253672243162 0.195346352716901 0  0.5405091246712254 0.2046536472831267 0  0.357918727284983 0.1953463527168901 0  0.5307534575528717 0.2038576038516682 0  0.3079697655029555 0.1955637092892754 0  0.2985930588175599 0.1953463527168728 0  0.579671714346879 0.1955441268455555 0  0.5705023726275059 0.1953463527168462 0  0.5112451461103119 0.2035640580783926 0  0.4964137289934448 0.2035640580783915 0  0.4665727251511405 0.2038238154617746 0  0.5259274680675793 0.2038006696000127 0  0.4815823118765752 0.2035640580783898 0  0.4517504165552094 0.2039070625502732 0  0.4071070238280551 0.1961993303999926 0  0.3234846806957546 0.2047001437739977 0  0.5551679484379799 0.1952998562260008 0  0.5457754356464107 0.1954447171286166 0  0.3329307555206357 0.2046017509710421 0  0.4541577316841968 0.1960357661898101 0  0.3358300776141575 0.1950765652117375 0  0.2539718587514912 0.200011552766824 0  0.5826472073721517 0.2039971170156656 0  0.2761021761080182 0.1946948236183283 0  0.3898581462796225 0.2041572776584344 0  0.3552515063402743 0.2041572776584256 0  0.2965028074750666 0.2046578268138723 0  0.4299158836614793 0.1951782397873778 0  0.379426563923736 0.2049969334481307 0  0.2860882692072842 0.2042624797643994 0  0.3449948044168807 0.2051793676155613 0  0.2603922435707652 0.1950997711614917 0  0.5949856943860
[...]
<PointData  Vectors="f_18-1"> 
<DataArray  type="Float64"  Name="f_18-1"  NumberOfComponents="3" format="ascii">-7.3142580843376763e-03 -5.6337925442477746e-02 0.0000000000000000e+00  -3.0786477455374849e-03 -5.6790949256994273e-02 0.0000000000000000e+00  0.0000000000000000e+00 0.0000000000000000e+00 0.0000000000000000e+00  0.0000000000000000e+00 0.0000000000000000e+00 0.0000000000000000e+00  -5.1965758337758185e-03 -5.6564330405734761e-02 0.0000000000000000e+00  0.0000000000000000e+00 0.0000000000000000e+00 0.0000000000000000e+00  0.0000000000000000e+00 0.0000000000000000e+00 0.0000000000000000e+00  0.0000000000000000e+00 0.0000000000000000e+00 0.0000000000000000e+00  0.0000000000000000e+00 0.0000000000000000e+00 0.0000000000000000e+00  8.2357601907890796e-05 -7.1774948727020997e-05 0.0000000000000000e+00  1.7239468758741992e-04 -1.4968433193597648e-04 0.0000000000000000e+00  2.6117452124542045e-04 -2.4898615257407548e-04 0.0000000000000000e+00  3.4418789954598406e-04 -4.1417453768574988e-04 0.0000000000000000e+00  4.2154004678095740e-04 -6.1466167713390587e-04 0.0000000000000000e+00  5.0036963989852606e-04 -8.6528382501413763e-04 0.0000000000000000e+00  5.6936555189487817e-04 -1.1415120823066126e-03 0.0000000000000000e+00  6.2849391800358259e-04 -1.4629471127224211e-03 0.0000000000000000e+00  6.8603194652873574e-04 -1.8194992621386166e-03 0.0000000000000000e+00  7.3624940519178119e-04 -2.2108036297123304e-03 0.0000000000000000e+00  7.8684617757991443e-04 -2.6482173951847630e-03 0.0000000000000000e+00  8.3590069042909019e-04 -3.0927233294882383e-03 0.0000000000000000e+00  8.7033036723708709e-04 -3.5882510416964026e-03 0.0000000000000000e+00  9.1280375791613741e-04 -4.1108545497120031e-03 0.0000000000000000e+00  9.3855536172471831e-04 -4.6579129690981248e-03 0.0000000000000000e+00  9.6324898402030111e-04 -5.2410218500327762e-03 0.0000000000000000e+00  9.8190154182568640e-04 -5.8447109941091504e-03 0.0000000000000000e+00  9.9402393896232534e-04 -6.4833580878139313e-03 0.0000000000000000e+00  9.9892788001648605e-04 -7.1361409687078830e-03 0.0000000000000000e+00  9.9942435635558182e-04 -7.8184817480235289e-03 0.0000000000000000e+00  9.9351994235298731e-04 -8.5210246603437279e-03 0.0000000000000000e+00  9.8083409507397959e-04 -9.2431811338978230e-03 0.0000000000000000e+00  9.6685282606715568e-04 -9.9971194228810189e-03 0.0000000000000000e+00  9.5174616171197720e-04 -1.0755389094837803e-02 0.0000000000000000e+00  9.2722222988204201e-04 -1.1541588682089930e-02 0.0000000000000000e+00  8.9736411477319518e-04 -1.2338776461745055e-02 0.0000000000000000e+00  8.6328464312727937e-04 -1.3156190468350282e-02 0.0000000000000000e+00  8.2441414512504337e-04 -1.3987835236526231e-02 0.0000000000000000e+00  7.8005185145551767e-04 -1.4832778762647658e-02 0.0000000000000000e+00  7.3419431799967138e-04 -1.5699493831868461e-02 0.0000000000000000e+00  6.8760188261414901e-04 -1.6568188985388487e-02 0.0000000000000000e+00  6.3208611449959049e-04 -1.7455845615826179e-02 0.0000000000000000e+00  5.7485608256336305e-04 -1.8358443060008910e-02 0.0000000000000000e+00  5.1661023630097415e-04 -1.9264467410428532e-02 0.0000000000000000e+00  4.5103431175135775e-04 -2.0187220248672134e-02 0.0000000000000000e+00  3.8666483813579313e-04 -2.1118265468884637e-02 0.0000000000000000e+00  3.1557514697976702e-04 -2.2059035601939898e-02 0.0000000000000000e+00  2.4457924397287400e-04 -2.3010891215380982e-02 0.0000000000000000e+00  1.6829770823282428e-04 -2.3968954500702876e-02 0.0000000000000000e+00  8.8918536137319590e-05 -2.4936373278212045e-02 0.0000000000000000e+00  8.1514483050521677e-06 -2.5910145269984010e-02 0.0000000000000000e+00  -7.4845460117848057e-05 -2.6891138743530454e-02 0.0000000000000000e+00  -1.6159000799157060e-04 -2.7878290989815931e-02 0.0000000000000000e+00  -2.4922091278628045e-04 -2.8870526650647335e-02 0.0000000000000000e+00  -3.3862467670190614e-04 -2.9868763880136557e-02 0.0000000000000000e+00  -4.3087459149265556e-04 -3.0871989033207127e-02 0.0000000000000000e+00  -5.2392229696777515e-04 -3.1879625546417295e-02 0.0000000000000000e+00  -6.1822971400731224e-04 -3.2892487281640570e-02 0.0000000000000000e+00  -7.1481167404725517e-04 -3.3909575967984676e-02 0.0000000000000000e+00  -8.1214295333921277e-04 -3.4930649159520488e-02 0.0000000000000000e+00  -9.1071458665417649e-04 -3.5956174553897137e-02 0.0000000000000000e+00  -1.0114890339364680e-03 -3.6985388061194578e-02 0.0000000000000000e+00  -1.1132671814818112e-03 -3.8017543487254932e-02 0.0000000000000000e+00  -1.2165621306815244e-03 -3.9052841431796069e-02 0.0000000000000000e+00  -1.3217994103247800e-03 -4.0090370345180953e-02 0.0000000000000000e+00  -1.4279741662664158e-03 -4.1129368589083726e-02 0.0000000000000000e+00  -1.5354356774407172e-03 -4.2169747470025214e-02 0.0000000000000000e+00  -1.6440253814105096e-03 -4.3210815434527122e-02 0.0000000000000000e+00  -1.7533313891602554e-03 -4.4252252107279580e-02 0.0000000000000000e+00  -1.8630825945589200e-03 -4.5294057980751964e-02 0.0000000000000000e+00  -1.9729310950152789e-03 -4.6336284755937741e-02 0.0000000000000000e+00  -2.0827407150065601e-03 -4.7378654190331028e-02 0.0000000000000000e+00  -2.1926566760129443e-03 -4.8421800260972217e-02 0.0000000000000000e+00  -2.3022886502827465e-03 -4.9465697964471728e-02 0.0000000000000000e+00  -2.4123022887904155e-03 -5.0510279812190674e-02 0.0000000000000000e+00  -2.5225027729460438e-03 -5.1556159538284373e-02 0.0000000000000000e+00  -2.6328498940286840e-03 -5.2602203770040691e-02 0.0000000000000000e+00  -2.7438495108722139e-03 -5.3649158582649924e-02 0.0000000000000000e+00  -2.8551794235416165e-03 -5.4696656809227105e-02 0.0000000000000000e+00  -2.9666938565704667e-03 -5.5743785674159566e-02 0.0000000000000000e+00  -7.2021027911873441e-03 -5.5290777093076227e-02 0.0000000000000000e+00  -7.0898033349554778e-03 -5.4243588362202867e-02 0.0000000000000000e+00  -6.9773610305726144e-03 -5.3196426139765093e-02 0.0000000000000000e+00  -6.8646198340830454e-03 -5.2149743486192682e-02 0.0000000000000000e+00  -6.7517082496705598e-03 -5.1103777668449535e-02 0.0000000000000000e+00  -6.6387510555928255e-03 -5.0058437972922504e-02 0.0000000000000000e+00  -6.5259092925141760e-03 -4.9014253934438014e-02 0.0000000000000000e+00  -6.4129103645502268e-03 -4.7970963809589637e-02 0.0000000000000000e+00  -6.3003765132890552e-03 -4.6928272944050692e-02 0.0000000000000000e+00  -6.1879537680556611e-03 -4.5886388819419643e-02 0.0000000000000000e+00  -6.0756444549138131e-03 -4.4844757071118867e-02 0.0000000000000000e+00  -5.9634916008721537e-03 -4.3803607639291593e-02 0.0000000000000000e+00  -5.8510688940207924e-03 -4.2763022356232229e-02 0.0000000000000000e+00  -5.7382793925584204e-03 -4.1722537456384129e-02 0.0000000000000000e+00  -5.6253437570565482e-03 -4.0683276158759808e-02 0.0000000000000000e+00  -5.5117269165350985e-03 -3.9646209743168535e-02 0.0000000000000000e+00  -5.3974850864779928e-03 -3.8609873497343565e-02 0.0000000000000000e+00  -5.2835971974907036e-03 -3.7576888011978046e-02 0.0000000000000000e+00  -5.1690245431767982e-03 -3.6548201050034021e-02 0.0000000000000000e+00  -5.0538325174832727e-03 -3.5520793300243853e-02 0.0000000000000000e+00  -4.9399944616143566e-03 -3.4498793262429474e-02 0.0000000000000000e+00  -4.8257250886377355e-03 -3.3482382532297433e-02 0.0000000000000000e+00  -4.7109716717362608e-03 -3.2467422297304510e-02 0.0000000000000000e+00  -4.5983289463110014e-03 -3.1458912132144849e-02 0.0000000000000000e+00  -4.4852730032752938e-03 -3.0456708455673834e-02 0.0000000000000000e+00  -4.3718756160174939e-03 -2.9456693768722269e-02 0.0000000000000000e+00  -4.2599588269775180e-03 -2.8462933184405740e-02 0.0000000000000000e+00  -4.1477997905898095e-03 -2.7477035807920040e-02 0.0000000000000000e+00  -4.0354784680716798e-03 -2.6492585855152406e-02 0.0000000000000000e+00  -3.9261135037102915e-03 -2.5516904737632830e-02 0.0000000000000000e+00  -3.8149839226336120e-03 -2.4551809361817330e-02 0.0000000000000000e+00  -3.7030371109745231e-03 -2.3589301818027042e-02 0.0000000000000000e+00  -3.5931965044317385e-03 -2.2638382655423912e-02 0.0000000000000000e+00  -3.4846294138574430e-03 -2.1693625932807110e-02 0.0000000000000000e+00  -3.3764894674343398e-03 -2.0759091936263133e-02 0.0000000000000000e+00  -3.2704335740080725e-03 -1.9837370067351659e-02 0.0000000000000000e+00  -3.1621031233286744e-03 -1.8922871456248224e-02 0.0000000000000000e+00  -3.0567494710175389e-03 -1.8021477618859173e-02 0.0000000000000000e+00  -2.9503422868300353e-03 -1.7131320568701508e-02 0.0000000000000000e+00  -2.8440374433658430e-03 -1.6254414195957540e-02 0.0000000000000000e+00  -2.7397677606422425e-03 -1.5391621500140576e-02 0.0000000000000000e+00  -2.6392497345240100e-03 -1.4539338824291686e-02 0.0000000000000000e+00  -2.5405141931382365e-03 -1.3703154147822846e-02 0.0000000000000000e+00  -2.4356766159006962e-03 -1.2879094545475311e-02 0.0000000000000000e+00  -2.3382220741149135e-03 -1.2073365602455973e-02 0.0000000000000000e+00  -2.2354308942495373e-03 -1.1286850294603634e-02 0.0000000000000000e+00  -2.1391587107276000e-03 -1.0514183240717295e-02 0.0000000000000000e+00  -2.0419059869584691e-03 -9.7647869751495992e-03 0.0000000000000000e+00  -1.9487892864916904e-03 -9.0295293739144356e-03 0.0000000000000000e+00  -1.8577841890823823e-03 -8.3177262514228488e-03 0.0000000000000000e+00  -1.7578354219035938e-03 -7.6230265198647873e-03 0.0000000000000000e+00  -1.6680265800469527e-03 -6.9534247053274316e-03 0.0000000000000000e+00  -1.5697366547181109e-03 -6.3114675353629947e-03 0.0000000000000000e+00  -1.4835602468603873e-03 -5.6906826615688091e-03 0.0000000000000000e+00  -1.3953598614778226e-03 -5.1065270910885304e-03 0.0000000000000000e+00  -1.3043228874978353e-03 -4.5307866599508259e-03 0.0000000000000000e+00  -1.2198744434515970e-03 -3.9949995711007578e-03 0.0000000000000000e+00  -1.1230000159416472e-03 -3.4861424330425396e-03 0.0000000000000000e+00  -1.0396473349293014e-03 -3.0045506465280398e-03 0.0000000000000000e+00  -9.5360183525217287e-04 -2.5633926971774064e-03 0.0000000000000000e+00  -8.7126756274162457e-04 -2.1450541256637758e-03 0.0000000000000000e+00  -7.9058737300003107e-04 -1.7665767832902492e-03 0.0000000000000000e+00  -6.9761880855641833e-04 -1.4154568124283072e-03 0.0000000000000000e+00  -6.1927461488201321e-04 -1.1025091452104270e-03 0.0000000000000000e+00  -5.2587968647967338e-04 -8.2698533960466104e-04 0.0000000000000000e+00  -4.4363383735535148e-04 -5.9753058498470920e-04 0.0000000000000000e+00  -3.4830912186108350e-04 -4.0717109436681954e-04 0.0000000000000000e+00  -2.6146248882290572e-04 -2.4683607617821701e-04 0.0000000000000000e+00  -1.7512719049035913e-04 -1.3437451196980920e-04 0.0000000000000000e+00  -8.7217652545769036e-05 -7.6044767524255000e-05 0.0000000000000000e+00  -6.2553743664673488e-03 -5.6451187030061696e-02 0.0000000000000000e+00  -4.1376689168999073e-03 -5.6677559318213673e-02 0.0000000000000000e+00  1.0004645090933909e-05 -7.4498165184475884e-05 0.0000000000000000e+00  -3.9138206742771360e-03 -4.4547680770040649e-02 0.0000000000000000e+00  -4.4842262676240687e-03 -4.9839576022304932e-02 0.0000000000000000e+00  2.2855693017637418e-05 -7.2661191791355934e-04 0.0000000000000000e+00  -3.2803847089703598e-03 -3.8384902196331040e-02 0.0000000000000000e+00  -3.6100096696260252e-03 -4.1499077646828718e-02 0.0000000000000000e+00  -1.0000717949979000e-04 -1.8170651340682778e-03 0.0000000000000000e+00  -4.9030289265027983e-03 -5.2905698703845670e-02 0.0000000000000000e+00  -1.0863011274181157e-04 -3.2092894345128668e-03 0.0000000000000000e+00  -1.7597099697674520e-04 -6.2409024375992602e-03 0.0000000000000000e+00  -2.9562291767370554e-03 -3.5294718552969818e-02 0.0000000000000000e+00  -4.5080436947235138e-04 -8.7490337037124787e-03 0.0000000000000000e+00  -2.6392936964204318e-03 -3.2240583672571113e-02 0.0000000000000000e+00  -6.2684588796992860e-04 -1.1092546121496297e-02 0.0000000000000000e+00  -8.8796595700686254e-04 -1.4246092651047969e-02 0.0000000000000000e+00  -2.3954174867977149e-03 -2.9145949451980194e-02 0.0000000000000000e+00  -2.0051668004195189e-03 -2.6193644698555389e-02 0.0000000000000000e+00  -1.0918055342692475e-03 -1.6769488088835795e-02 0.0000000000000000e+00  -1.3620615377316475e-03 -1.9535929606260997e-02 0.0000000000000000e+00  -1.7101852844680471e-03 -2.3166758206874884e-02 0.0000000000000000e+00  -1.5781678422342036e-04 -4.2304128229792258e-03 0.0000000000000000e+00  -4.2584321139338133e-03 -4.7763840050347714e-02 0.0000000000000000e+00  -1.5399737647654713e-03 -2.1130687339936994e-02 0.0000000000000000e+00  -3.4716779645075068e-04 -7.5388143919166680e-03 0.0000000000000000e+00  -7.4378024346298424e-04 -1.2816164770284889e-02 0.0000000000000000e+00  -2.8559174410409020e-05 -1.2366749193188516e-03 0.0000000000000000e+00  -5.3668778633210049e-03 -5.4643983037855358e-02 0.0000000000000000e+00  4.8431704502874777e-05 -3.2410668496164004e-04 0.0000000000000000e+00  -1.7046357567313661e-03 -2.7714057173733004e-02 0.0000000000000000e+00  -2.3066800536828370e-03 -3.3738110408991551e-02 0.0000000000000000e+00  -2.6217801238760893e-03 -3.6811328200714408e-02 0.0000000000000000e+00  -1.3899845357531169e-03 -1.5491597698568506e-02 0.0000000000000000e+00  -2.0004715582554516e-03 -3.0704007899502797e-02 0.0000000000000000e+00  -2.9450114148712502e-03 -3.9915394666134564e-02 0.0000000000000000e+00  -1.4222210876238008e-03 -2.4776608671916025e-02 0.0000000000000000e+00  -3.2741845965217589e-03 -4.3035987011480890e-02 0.0000000000000000e+00  -1.6445636952601038e-03 -1.8136453438080385e-02 0.0000000000000000e+00  -8.7177191673730708e-04 -9.8268218659544049e-03 0.0000000000000000e+00  -2.7148683426433127e-04 -2.5508427574558313e-03 0.0000000000000000e+00  -5.1126350247738608e-03 -5.1278205047964862e-02 0.0000000000000000e+00  -4.6831843025721808e-03 -4.6024288107358355e-02 0.0000000000000000e+00  1.2363300493819468e-04 -5.1669380708067487e-03 0.0000000000000000e+00  -3.2230607446632016e-03 -4.5745043555344617e-02 0.0000000000000000e+00  -6.8773501928691492e-04 -5.3695626863687392e-03 0.0000000000000000e+00  -4.6115750122750427e-03 -4.3360291115232846e-02 0.0000000000000000e+00  -4.2766366893382387e-03 -4.0239612603301826e-02 0.0000000000000000e+00  -3.9429954521580067e-03 -3.7134127727869226e-02 0.0000000000000000e+00  -3.8669408564814250e-03 -5.1880191096064288e-02 0.0000000000000000e+00  2.6036261229761282e-04 -2.3863287237831910e-03 0.0000000000000000e+00  -3.2885079788389166e-03 -3.1022092186685876e-02 0.0000000000000000e+00  -3.6129699175211677e-03 -3.4058548148443474e-02 0.0000000000000000e+00  -2.9701972039910797e-04 -1.5204851937170171e-02 0.0000000000000000e+00  6.8944531540440023e-05 -9.5680715677897415e-03 0.0000000000000000e+00  -2.8798020013205629e-03 -2.7154978960791366e-02 0.0000000000000000e+00  -2.6603652178672802e-03 -2.5088631794425737e-02 0.0000000000000000e+00  -5.0032319735255802e-04 -1.7840825511342528e-02 0.0000000000000000e+00  -3.7840221663395623e-05 -3.2246334352409064e-05 0.0000000000000000e+00  2.8635122945431121e-05 -2.5018482177354901e-05 0.0000000000000000e+00  -9.1522309317481742e-04 -2.2488035895450158e-02 0.0000000000000000e+00  -1.2823221876266948e-03 -1.1669657510169887e-02 0.0000000000000000e+00  -8.2888122277576751e-04 -6.6777129003275492e-03 0.0000000000000000e+00  -2.3811472555732856e-04 -9.3844696796885547e-04 0.0000000000000000e+00  -3.0952354781046444e-04 -1.5785963071289031e-03 0.0000000000000000e+00  -7.1344282160927021e-04 -2.0566337863111031e-02 0.0000000000000000e+00  -9.4973152294087408e-04 -7.9760714617612000e-03 0.0000000000000000e+00  -1.4718414021492930e-03 -1.3326318939118261e-02 0.0000000000000000e+00  -5.3696341274217876e-04 -3.8280823656661237e-03 0.0000000000000000e+00  -3.5427185914146202e-03 -4.8640748476884890e-02 0.0000000000000000e+00  -5.1757072186470725e-03 -4.8527331473503334e-02 0.0000000000000000e+00  2.6061321408169999e-04 -3.8287790317915516e-03 0.0000000000000000e+00  -1.6936285532080609e-04 -4.4910823630570638e-04 0.0000000000000000e+00  -3.9090074840178925e-03 -5.3981193135129377e-02 0.0000000000000000e+00  -2.4990714076460899e-03 -2.2310191935931020e-02 0.0000000000000000e+00  -2.2165269316358309e-03 -2.0358038891175035e-02 0.0000000000000000e+00  3.1722034323474694e-04 -6.7081845967367111e-03 0.0000000000000000e+00  2.4083604847316732e-04 -9.3221600260138290e-04 0.0000000000000000e+00  2.9735689384858166e-04 -1.6157726680904043e-03 0.0000000000000000e+00  4.2626792153464597e-05 -1.1800573239533376e-02 0.0000000000000000e+00  3.2353242337639651e-04 -8.0397367172341701e-03 0.0000000000000000e+00  4.6474271196226238e-05 -1.3418455748778434e-02 0.0000000000000000e+00  -1.0659678096980922e-04 -2.3520587671860193e-04 0.0000000000000000e+00  -4.2120042729007750e-03 -5.5453680505006687e-02 0.0000000000000000e+00  -4.5812793209340274e-03 -4.2123437228720154e-02 0.0000000000000000e+00  -4.2463981228856836e-03 -3.9007220276498542e-02 0.0000000000000000e+00  3.0526212171188741e-04 -2.9132743398278520e-03 0.0000000000000000e+00  -3.9132686611435619e-03 -3.5912153476892021e-02 0.0000000000000000e+00  -3.6364758663406920e-03 -5.0661664174575662e-02 0.0000000000000000e+00  -3.5842474733352538e-03 -3.2851502856115593e-02 0.0000000000000000e+00  -3.2627281586811584e-03 -2.9840652015354154e-02 0.0000000000000000e+00  9.1068364815250454e-05 -1.0463472050769798e-02 0.0000000000000000e+00  -3.0978147384713448e-03 -2.8300325323636407e-02 0.0000000000000000e+00  -2.9220518878406290e-04 -1.6233862394189794e-02 0.0000000000000000e+00  -2.6387933031232773e-03 -2.3942206687688317e-02 0.0000000000000000e+00  -5.0024526561575559e-04 -1.8913569164099340e-02 0.0000000000000000e+00  -5.8026542977386445e-03 -5.3608260740256590e-02 0.0000000000000000e+00  -3.2263898600841481e-03 -4.6968865594279964e-02 0.0000000000000000e+00  -6.9089089687961072e-04 -4.6896306957521861e-03 0.0000000000000000e+00  1.8902773629104536e-04 -4.8975709783047002e-04 0.0000000000000000e+00  1.0067600571280074e-04 -1.8802177170924628e-04 0.0000000000000000e+00  -1.1367041350352782e-03 -2.6810296408264236e-02 0.0000000000000000e+00  -2.1395150421580091e-03 -1.8948956110633221e-02 0.0000000000000000e+00  -1.4196194262062927e-03 -2.9786025626820398e-02 0.0000000000000000e+00  -2.3579015795079364e-03 -3.8961033944138794e-02 0.0000000000000000e+00  -1.7349591661713576e-03 -3.2802679113459646e-02 0.0000000000000000e+00  -2.0414634305297072e-03 -3.5864852270984252e-02 0.0000000000000000e+00  -1.7578020023603490e-03 -1.6341642945137930e-02 0.0000000000000000e+00  -9.0372665606834883e-04 -2.3908979881589090e-02 0.0000000000000000e+00  -1.2722413312928782e-03 -1.0521346797583134e-02 0.0000000000000000e+00  -1.7221466802800789e-03 -1.4632699110727506e-02 0.0000000000000000e+00  -2.8752264203871650e-03 -4.4096700341944586e-02 0.0000000000000000e+00  -1.1602725209549965e-03 -9.0913950662299282e-03 0.0000000000000000e+00  -2.8256278547358943e-03 -4.2023889457780336e-02 0.0000000000000000e+00  -5.1054650853688986e-04 -2.9670441127402050e-03 0.0000000000000000e+00  -4.3576365035109479e-04 -2.1405520427437786e-03 0.0000000000000000e+00  -5.6787743859810407e-03 -5.2157637418442655e-02 0.0000000000000000e+00  -5.5124213609659420e-03 -5.0213549571609846e-02 0.0000000000000000e+00  -2.4597196774380080e-03 -3.7921093383209356e-02 0.0000000000000000e+00  -2.1443485807042424e-03 -3.4835206206901718e-02 0.0000000000000000e+00  -1.4872224823007001e-03 -2.8749141053339138e-02 0.0000000000000000e+00  -2.7307560210066742e-03 -4.1006961746641646e-02 0.0000000000000000e+00  -1.8384460003048871e-03 -3.1786244625676960e-02 0.0000000000000000e+00  -1.1895449672758450e-03 -2.5795367993983853e-02 0.0000000000000000e+00  -1.8338154405938127e-03 -1.7201996945798465e-02 0.0000000000000000e+00  3.4567493377456144e-04 -4.6337416582541233e-03 0.0000000000000000e+00  -5.1749668418369270e-03 -4.6975668836087212e-02 0.0000000000000000e+00  -4.9322473802896217e-03 -4.4999530330068406e-02 0.0000000000000000e+00  3.14816060651587