<?xml version="1.0"?>
<VTKFile type="UnstructuredGrid"  version="0.1"  >
<UnstructuredGrid>
<Piece  NumberOfPoints="439" NumberOfCells="725">
<Points>
<DataArray  type="Float64"  NumberOfComponents="3"  format="ascii">0.6 0.19 0  0.6 0.21 0  0.2489897949 0.21 0  0.2489897949 0.19 0  0.6 0.2 0  0.2496355385699469 0.2060260530378829 0  0.249959460510575 0.2020130349814059 0  0.2499594605105767 0.1979869650186357 0  0.24963553856995 0.1939739469621422 0  0.2539336006056293 0.21 0  0.2588774063112542 0.21 0  0.2638212120168921 0.21 0  0.26876501772253 0.21 0  0.2737088234281569 0.21 0  0.2786526291337753 0.21 0  0.2835964348393937 0.21 0  0.2885402405450166 0.21 0  0.2934840462506522 0.21 0  0.2984278519562708 0.21 0  0.3033716576618997 0.21 0  0.3083154633675181 0.21 0  0.3132592690731365 0.21 0  0.3182030747787549 0.21 0  0.3231468804843732 0.21 0  0.3280906861899917 0.21 0  0.3330344918956208 0.21 0  0.3379782976012284 0.21 0  0.3429221033068576 0.21 0  0.347865909012476 0.21 0  0.3528097147180944 0.21 0  0.3577535204237128 0.21 0  0.3626973261293311 0.21 0  0.3676411318349495 0.21 0  0.3725849375405788 0.21 0  0.3775287432461877 0.21 0  0.382472548951812 0.21 0  0.3874163546574338 0.21 0  0.3923601603630631 0.21 0  0.3973039660686706 0.21 0  0.4022477717742986 0.21 0  0.4071915774799107 0.21 0  0.4121353831855311 0.21 0  0.4170791888911518 0.21 0  0.4220229945967636 0.21 0  0.4269668003023918 0.21 0  0.4319106060080253 0.21 0  0.4368544117136773 0.21 0  0.4417982174193329 0.21 0  0.4467420231249967 0.21 0  0.4516858288306445 0.21 0  0.4566296345362864 0.21 0  0.461573440241916 0.21 0  0.4665172459475665 0.21 0  0.4714610516531998 0.21 0  0.4764048573588668 0.21 0  0.4813486630645134 0.21 0  0.486292468770176 0.21 0  0.4912362744758066 0.21 0  0.4961800801814611 0.21 0  0.5011238858870897 0.21 0  0.5060676915927493 0.21 0  0.5110114972983872 0.21 0  0.5159553030040036 0.21 0  0.5208991087096415 0.21 0  0.5258429144153002 0.21 0  0.5307867201209391 0.21 0  0.5357305258265987 0.21 0  0.5406743315322367 0.21 0  0.5456181372378529 0.21 0  0.5505619429434908 0.21 0  0.5555057486491456 0.21 0  0.5604495543547885 0.21 0  0.565393360060448 0.21 0  0.5703371657661116 0.21 0  0.5752809714717458 0.21 0  0.5802247771773834 0.21 0  0.5851685828830341 0.21 0  0.5901123885886809 0.21 0  0.5950561942943404 0.21 0  0.5950561942943833 0.19 0  0.590112388588758 0.19 0  0.5851685828831193 0.19 0  0.5802247771774727 0.19 0  0.5752809714718514 0.19 0  0.5703371657662308 0.19 0  0.565393360060618 0.19 0  0.5604495543549889 0.19 0  0.5555057486493581 0.19 0  0.5505619429437035 0.19 0  0.5456181372381043 0.19 0  0.540674331532505 0.19 0  0.5357305258268962 0.19 0  0.530786720121263 0.19 0  0.5258429144156628 0.19 0  0.5208991087100244 0.19 0  0.5159553030044218 0.19 0  0.5110114972988226 0.19 0  0.5060676915932177 0.19 0  0.5011238858875806 0.19 0  0.496180080181972 0.19 0  0.4912362744763531 0.19 0  0.4862924687707343 0.19 0  0.4813486630651046 0.19 0  0.4764048573594966 0.19 0  0.4714610516538683 0.19 0  0.4665172459482555 0.19 0  0.4615734402426349 0.19 0  0.4566296345370104 0.19 0  0.4516858288313808 0.19 0  0.4467420231257716 0.19 0  0.4417982174201465 0.19 0  0.4368544117145297 0.19 0  0.4319106060089131 0.19 0  0.4269668003032866 0.19 0  0.4220229945976482 0.19 0  0.4170791888920056 0.19 0  0.4121353831863594 0.19 0  0.4071915774806995 0.19 0  0.4022477717750478 0.19 0  0.3973039660693901 0.19 0  0.3923601603637548 0.19 0  0.3874163546581082 0.19 0  0.3824725489524824 0.19 0  0.3775287432468258 0.19 0  0.3725849375411773 0.19 0  0.3676411318355085 0.19 0  0.3626973261298614 0.19 0  0.3577535204242108 0.19 0  0.352809714718589 0.19 0  0.347865909012931 0.19 0  0.342922103307292 0.19 0  0.3379782976016536 0.19 0  0.3330344918960152 0.19 0  0.3280906861903751 0.19 0  0.3231468804847171 0.19 0  0.3182030747790592 0.19 0  0.3132592690734012 0.19 0  0.3083154633677581 0.19 0  0.3033716576621197 0.19 0  0.2984278519564813 0.19 0  0.2934840462508429 0.19 0  0.2885402405451874 0.19 0  0.2835964348395295 0.19 0  0.2786526291338716 0.19 0  0.2737088234282243 0.19 0  0.268765017722586 0.19 0  0.2638212120169476 0.19 0  0.2588774063113093 0.19 0  0.2539336006056579 0.19 0  0.6 0.1949999999999783 0  0.6 0.2049999999999729 0  0.2589734265316493 0.2005523893428403 0  0.5431462343853077 0.199999999999969 0  0.5682397894768162 0.1999704585808987 0  0.2774513927118024 0.2007941919421926 0  0.513849583376897 0.1999023426490919 0  0.5286810004937381 0.1999023426490969 0  0.2945108952057646 0.1992911908405386 0  0.5827780831384927 0.1995429801003349 0  0.3104128396569256 0.1999704585808978 0  0.3370001755418551 0.2008294612433967 0  0.4990181662600459 0.1999023426490902 0  0.3552816175709044 0.2000000000000608 0  0.4841867491431925 0.1999023426490849 0  0.3707373713905551 0.2000142376953689 0  0.3898882575102495 0.2000000000000828 0  0.4689857550492734 0.1995416724256694 0  0.4541577316841967 0.1999999999999098 0  0.4043534914018331 0.2000976573509244 0  0.4195510917439569 0.2000000000001057 0  0.4387019778644512 0.1999857623046772 0  0.3202472750256703 0.2000088842146399 0  0.5584053541080851 0.1999911157853577 0  0.4280667146887134 0.1998489048208241 0  0.3467659946265474 0.2001510951794375 0  0.3813726345658908 0.200151095179452 0  0.2860683376922098 0.2000415445706182 0  0.5911223811781194 0.1982449159348744 0  0.2679893161458627 0.201675125646729 0  0.4615734402426278 0.2022503633288003 0  0.4912362744763454 0.2022503633288091 0  0.5060676915931983 0.2022503633288118 0  0.3973039660686774 0.1977496366711965 0  0.4764048573594896 0.2022503633288051 0  0.5208991087100455 0.2022503633288184 0  0.4467420231257656 0.2022503633288 0  0.5357305258268849 0.2022503633288198 0  0.4121353831855317 0.1977496366711976 0  0.3626973261293352 0.1977496366711919 0  0.3033716576618961 0.1977496366711869 0  0.5752809714718229 0.1977496366711503 0  0.550459855919056 0.1971284784737667 0  0.3281927732146841 0.2028715215262406 0  0.5484179020497461 0.2038403215694763 0  0.3302347270839988 0.1961596784305491 0  0.5379210852238114 0.196125181664411 0  0.5230896681069652 0.1961251816644058 0  0.5082582509901222 0.1961251816644098 0  0.5774715308687094 0.2038748183355887 0  0.3011810982649548 0.2038748183355937 0  0.4785954167564111 0.196125181664404 0  0.4934268338732671 0.1961251816644063 0  0.395113406671763 0.2038748183355966 0  0.3605067667324117 0.2038748183355951 0  0.4593828808457146 0.1961251816643993 0  0.4489325825226805 0.1961251816644007 0  0.4099448237886219 0.2038748183355991 0  0.2557862999801971 0.1960858370257295 0  0.2550147360309399 0.2034426429991114 0  0.4348031476464689 0.2037737577641554 0  0.37463620160841 0.1962262422358553 0  0.3406258365864304 0.196046792193989 0  0.2813001681189834 0.1960467921940502 0  0.2912686387439893 0.1960816328649282 0  0.4246705335819892 0.2039532078059544 0  0.350162175732913 0.1960467921941878 0  0.3847688156722694 0.1960467921942359 0  0.316632368538356 0.19615945856337 0  0.5621550011053409 0.2037816492598991 0  0.5624413877019769 0.1960761923611377 0  0.3162395035833128 0.2038679557424692 0  0.2710887134207622 0.1959696443325838 0  0.5873014376403604 0.2047227881030823 0  0.4346679566442709 0.1954651459552513 0  0.4243296504077986 0.1958756980939062 0  0.3402559510833523 0.2047940500290923 0  0.2808684926760933 0.2047742417812656 0  0.2914077033138723 0.2047809517070955 0  0.3747713926104932 0.2045348540448554 0  0.3499216488898867 0.2051753413186305 0  0.3845282888292298 0.205175341318636 0  0.2648144865455052 0.1962089742986374 0  0.5943247643662894 0.2040415423589182 0  0.5320972610456145 0.1956445099050872 0  0.5172658439287727 0.1956445099050854 0  0.3069923255602658 0.2043468033872551 0  0.5024344268119265 0.1956445099050864 0  0.5716603035734351 0.2043468033872761 0  0.4876030096950741 0.1956445099050831 0  0.4728151975296263 0.1956402468909894 0  0.3663301776527538 0.20436745486386 0  0.4651631000724991 0.1956402468909893 0  0.4009372308499527 0.2043554900949198 0  0.4431091716023345 0.1956325451361429 0  0.4157593408842466 0.2043565497109067 0  0.5865057328865416 0.1956918868509067 0  0.5541600609760193 0.2044335994013721 0  0.3244925681577497 0.1955664005986376 0  0.272008018888917 0.2049327968152409 0  0.2633407725863902 0.2042483236346266 0  0.4567948413982566 0.2046536472831198 0  0.4167680012832803 0.1955060004091903 0  0.4716262585151221 0.2046536472831242 0  0.5161054367030595 0.2045563706470633 0  0.4864426024693469 0.2045563706470604 0  0.5012740195862044 0.2045563706470634 0  0.4022810343427545 0.1961423961483001 0  0.4420739040821668 0.2044853411424516 0  0.3673807293464664 0.1955677741328205 0  0.3925253672243162 0.195346352716901 0  0.5405091246712254 0.2046536472831267 0  0.357918727284983 0.1953463527168901 0  0.5307534575528717 0.2038576038516682 0  0.3079697655029555 0.1955637092892754 0  0.2985930588175599 0.1953463527168728 0  0.579671714346879 0.1955441268455555 0  0.5705023726275059 0.1953463527168462 0  0.5112451461103119 0.2035640580783926 0  0.4964137289934448 0.2035640580783915 0  0.4665727251511405 0.2038238154617746 0  0.5259274680675793 0.2038006696000127 0  0.4815823118765752 0.2035640580783898 0  0.4517504165552094 0.2039070625502732 0  0.4071070238280551 0.1961993303999926 0  0.3234846806957546 0.2047001437739977 0  0.5551679484379799 0.1952998562260008 0  0.5457754356464107 0.1954447171286166 0  0.3329307555206357 0.2046017509710421 0  0.4541577316841968 0.1960357661898101 0  0.3358300776141575 0.1950765652117375 0  0.2539718587514912 0.200011552766824 0  0.5826472073721517 0.2039971170156656 0  0.2761021761080182 0.1946948236183283 0  0.3898581462796225 0.2041572776584344 0  0.3552515063402743 0.2041572776584256 0  0.2965028074750666 0.2046578268138723 0  0.4299158836614793 0.1951782397873778 0  0.379426563923736 0.2049969334481307 0  0.2860882692072842 0.2042624797643994 0  0.3449948044168807 0.2051793676155613 0  0.2603922435707652 0.1950997711614917 0  0.5949856943860
[...]
<PointData  Vectors="f_18-1"> 
<DataArray  type="Float64"  Name="f_18-1"  NumberOfComponents="3" format="ascii">-2.1330269856722817e-02 -1.0158372481368311e-01 0.0000000000000000e+00  -1.3694889797332320e-02 -1.0309863238498980e-01 0.0000000000000000e+00  0.0000000000000000e+00 0.0000000000000000e+00 0.0000000000000000e+00  0.0000000000000000e+00 0.0000000000000000e+00 0.0000000000000000e+00  -1.7512572535742028e-02 -1.0234117203246686e-01 0.0000000000000000e+00  0.0000000000000000e+00 0.0000000000000000e+00 0.0000000000000000e+00  0.0000000000000000e+00 0.0000000000000000e+00 0.0000000000000000e+00  0.0000000000000000e+00 0.0000000000000000e+00 0.0000000000000000e+00  0.0000000000000000e+00 0.0000000000000000e+00 0.0000000000000000e+00  1.4181811857260615e-04 -1.2450278882015443e-04 0.0000000000000000e+00  2.9727141214007380e-04 -2.6180209659493317e-04 0.0000000000000000e+00  4.5022303225627158e-04 -4.3737125072243303e-04 0.0000000000000000e+00  5.9140081544674350e-04 -7.2938678641375264e-04 0.0000000000000000e+00  7.2150153888455009e-04 -1.0847652327880667e-03 0.0000000000000000e+00  8.5185390815139595e-04 -1.5295395965393727e-03 0.0000000000000000e+00  9.6356054132154263e-04 -2.0206571642957206e-03 0.0000000000000000e+00  1.0549268767790108e-03 -2.5925102100942897e-03 0.0000000000000000e+00  1.1408404879800918e-03 -3.2284619315051722e-03 0.0000000000000000e+00  1.2106489741549524e-03 -3.9277316513312245e-03 0.0000000000000000e+00  1.2763820742989953e-03 -4.7125098974717507e-03 0.0000000000000000e+00  1.3388800909043647e-03 -5.5112514953864636e-03 0.0000000000000000e+00  1.3682835758058447e-03 -6.4032691796521027e-03 0.0000000000000000e+00  1.4086336637051118e-03 -7.3477938006181543e-03 0.0000000000000000e+00  1.4145305547528088e-03 -8.3362861175629212e-03 0.0000000000000000e+00  1.4123003828585949e-03 -9.3927447198445049e-03 0.0000000000000000e+00  1.3951970370257032e-03 -1.0487302579223005e-02 0.0000000000000000e+00  1.3593379214761536e-03 -1.1646482682000688e-02 0.0000000000000000e+00  1.3072031684101823e-03 -1.2831391377135910e-02 0.0000000000000000e+00  1.2409307191495595e-03 -1.4071017316015911e-02 0.0000000000000000e+00  1.1585790350739039e-03 -1.5347672101093423e-02 0.0000000000000000e+00  1.0593444782771254e-03 -1.6660358145900372e-02 0.0000000000000000e+00  9.5070725228428609e-04 -1.8033592543267075e-02 0.0000000000000000e+00  8.3918293045599866e-04 -1.9415473459896599e-02 0.0000000000000000e+00  7.0327434628760324e-04 -2.0849227751175210e-02 0.0000000000000000e+00  5.5436273485558153e-04 -2.2303756885746290e-02 0.0000000000000000e+00  3.9219386362696279e-04 -2.3796963316070355e-02 0.0000000000000000e+00  2.1686099523567090e-04 -2.5317302703318448e-02 0.0000000000000000e+00  2.6926136594188284e-05 -2.6862636869116167e-02 0.0000000000000000e+00  -1.7247769778195660e-04 -2.8450515884362048e-02 0.0000000000000000e+00  -3.7412185711322462e-04 -3.0042188422419649e-02 0.0000000000000000e+00  -5.9911944707642380e-04 -3.1668229037885305e-02 0.0000000000000000e+00  -8.3228795419092335e-04 -3.3322369090077505e-02 0.0000000000000000e+00  -1.0687138166921661e-03 -3.4982685690343546e-02 0.0000000000000000e+00  -1.3245128017981434e-03 -3.6672333028301432e-02 0.0000000000000000e+00  -1.5808434933678710e-03 -3.8377715166474903e-02 0.0000000000000000e+00  -1.8528178120980991e-03 -4.0098901262104580e-02 0.0000000000000000e+00  -2.1281411122976222e-03 -4.1840441416457305e-02 0.0000000000000000e+00  -2.4150495861625875e-03 -4.3591670411131545e-02 0.0000000000000000e+00  -2.7104244440754369e-03 -4.5359066551587189e-02 0.0000000000000000e+00  -3.0102394545140441e-03 -4.7137846055712321e-02 0.0000000000000000e+00  -3.3163649104450410e-03 -4.8929357071559078e-02 0.0000000000000000e+00  -3.6314002952768454e-03 -5.0731339184190344e-02 0.0000000000000000e+00  -3.9498504637554147e-03 -5.2542556354565451e-02 0.0000000000000000e+00  -4.2738585710082027e-03 -5.4364154659772713e-02 0.0000000000000000e+00  -4.6050183133792347e-03 -5.6193953725759527e-02 0.0000000000000000e+00  -4.9394832531269835e-03 -5.8030768419108397e-02 0.0000000000000000e+00  -5.2784251422349823e-03 -5.9875576378054768e-02 0.0000000000000000e+00  -5.6226942257085154e-03 -6.1726037438120246e-02 0.0000000000000000e+00  -5.9696153131629593e-03 -6.3581668746043041e-02 0.0000000000000000e+00  -6.3199687851541626e-03 -6.5443077891257709e-02 0.0000000000000000e+00  -6.6743519525408893e-03 -6.7308554944001384e-02 0.0000000000000000e+00  -7.0307601809550865e-03 -6.9177632484713994e-02 0.0000000000000000e+00  -7.3897850337777066e-03 -7.1050746662763106e-02 0.0000000000000000e+00  -7.7517469889232899e-03 -7.2926573299151712e-02 0.0000000000000000e+00  -8.1150931385953248e-03 -7.4804932462745999e-02 0.0000000000000000e+00  -8.4803687876842879e-03 -7.6685836721289480e-02 0.0000000000000000e+00  -8.8475501149769542e-03 -7.8568483968113778e-02 0.0000000000000000e+00  -9.2162893904109474e-03 -8.0452367225702690e-02 0.0000000000000000e+00  -9.5865365449993301e-03 -8.2337677687033040e-02 0.0000000000000000e+00  -9.9577422240171611e-03 -8.4224114492266383e-02 0.0000000000000000e+00  -1.0329315225344615e-02 -8.6110610043691624e-02 0.0000000000000000e+00  -1.0702104490085311e-02 -8.7997992841347322e-02 0.0000000000000000e+00  -1.1075195748839313e-02 -8.9885604704125294e-02 0.0000000000000000e+00  -1.1448856329914220e-02 -9.1773261717148516e-02 0.0000000000000000e+00  -1.1822931150648081e-02 -9.3661001187963444e-02 0.0000000000000000e+00  -1.2197140134274840e-02 -9.5548675525139432e-02 0.0000000000000000e+00  -1.2571515442828120e-02 -9.7436261042415484e-02 0.0000000000000000e+00  -1.2945965160005688e-02 -9.9323776438998840e-02 0.0000000000000000e+00  -1.3320422218653500e-02 -1.0121121042931729e-01 0.0000000000000000e+00  -2.0955802505744095e-02 -9.9696297523412136e-02 0.0000000000000000e+00  -2.0581310239352214e-02 -9.7808825880626282e-02 0.0000000000000000e+00  -2.0206769476592151e-02 -9.5921307871613473e-02 0.0000000000000000e+00  -1.9832149888473961e-02 -9.4033751262543055e-02 0.0000000000000000e+00  -1.9457447745977331e-02 -9.2146236918539778e-02 0.0000000000000000e+00  -1.9082580742952920e-02 -9.0258730772555751e-02 0.0000000000000000e+00  -1.8707545938232005e-02 -8.8371549798572646e-02 0.0000000000000000e+00  -1.8332214139647324e-02 -8.6484800096964132e-02 0.0000000000000000e+00  -1.7956835260465862e-02 -8.4598398689073789e-02 0.0000000000000000e+00  -1.7581270800380504e-02 -8.2713145052169798e-02 0.0000000000000000e+00  -1.7205471844515530e-02 -8.0828607468076324e-02 0.0000000000000000e+00  -1.6829981224847992e-02 -7.8945666606212314e-02 0.0000000000000000e+00  -1.6454368057128750e-02 -7.7065075055679513e-02 0.0000000000000000e+00  -1.6078260699914759e-02 -7.5185199953557158e-02 0.0000000000000000e+00  -1.5703077580684371e-02 -7.3308436724056320e-02 0.0000000000000000e+00  -1.5327916694659032e-02 -7.1435711315460740e-02 0.0000000000000000e+00  -1.4952255224346869e-02 -6.9564171918986339e-02 0.0000000000000000e+00  -1.4578499725828304e-02 -6.7697421485651554e-02 0.0000000000000000e+00  -1.4204879191183838e-02 -6.5836446302300955e-02 0.0000000000000000e+00  -1.3830659642354699e-02 -6.3977162722760730e-02 0.0000000000000000e+00  -1.3459399152166861e-02 -6.2124747972650593e-02 0.0000000000000000e+00  -1.3088476370592425e-02 -6.0280377042662224e-02 0.0000000000000000e+00  -1.2716851726873936e-02 -5.8438320980460957e-02 0.0000000000000000e+00  -1.2349501623831442e-02 -5.6605657374397142e-02 0.0000000000000000e+00  -1.1982739235282007e-02 -5.4783998768398408e-02 0.0000000000000000e+00  -1.1615705694716507e-02 -5.2966537933010496e-02 0.0000000000000000e+00  -1.1252580082937665e-02 -5.1159832944933821e-02 0.0000000000000000e+00  -1.0891272481876138e-02 -4.9368053829060600e-02 0.0000000000000000e+00  -1.0529983765467850e-02 -4.7579111709303422e-02 0.0000000000000000e+00  -1.0176847718065093e-02 -4.5805632591309431e-02 0.0000000000000000e+00  -9.8237246010560199e-03 -4.4052268552350789e-02 0.0000000000000000e+00  -9.4698529938093707e-03 -4.2303881870351751e-02 0.0000000000000000e+00  -9.1233699217670230e-03 -4.0576015944486295e-02 0.0000000000000000e+00  -8.7809459819816124e-03 -3.8858935583792650e-02 0.0000000000000000e+00  -8.4421788728883378e-03 -3.7160447522626733e-02 0.0000000000000000e+00  -8.1109013124524201e-03 -3.5485162013884693e-02 0.0000000000000000e+00  -7.7771493679179579e-03 -3.3823910408818533e-02 0.0000000000000000e+00  -7.4526827729607071e-03 -3.2186446455181039e-02 0.0000000000000000e+00  -7.1291676141391298e-03 -3.0570759675983702e-02 0.0000000000000000e+00  -6.8093270295033212e-03 -2.8980532062525762e-02 0.0000000000000000e+00  -6.4972379728757490e-03 -2.7417132842459148e-02 0.0000000000000000e+00  -6.1953382566299151e-03 -2.5873127979508668e-02 0.0000000000000000e+00  -5.9014376993305733e-03 -2.4360223596217003e-02 0.0000000000000000e+00  -5.5988775941758859e-03 -2.2872974343766440e-02 0.0000000000000000e+00  -5.3160114373942760e-03 -2.1419521531242356e-02 0.0000000000000000e+00  -5.0280899481534476e-03 -2.0004986373967287e-02 0.0000000000000000e+00  -4.7567745679283485e-03 -1.8615399928536523e-02 0.0000000000000000e+00  -4.4896395812051475e-03 -1.7270655747033573e-02 0.0000000000000000e+00  -4.2343674515932265e-03 -1.5951672259255142e-02 0.0000000000000000e+00  -3.9889440862911811e-03 -1.4676462652586179e-02 0.0000000000000000e+00  -3.7304737062541435e-03 -1.3435127977005475e-02 0.0000000000000000e+00  -3.4969890278267754e-03 -1.2238275225941498e-02 0.0000000000000000e+00  -3.2532602902666944e-03 -1.1094675799784020e-02 0.0000000000000000e+00  -3.0366824314071272e-03 -9.9877592745709586e-03 0.0000000000000000e+00  -2.8231310187620887e-03 -8.9493620204533168e-03 0.0000000000000000e+00  -2.6057553947947841e-03 -7.9267324454001826e-03 0.0000000000000000e+00  -2.4078091718622730e-03 -6.9773534478280363e-03 0.0000000000000000e+00  -2.1908181495535308e-03 -6.0796595663660941e-03 0.0000000000000000e+00  -2.0036749318124783e-03 -5.2302430201137352e-03 0.0000000000000000e+00  -1.8175528038576428e-03 -4.4555333488071648e-03 0.0000000000000000e+00  -1.6418608602890290e-03 -3.7217138656421168e-03 0.0000000000000000e+00  -1.4745341637087616e-03 -3.0601552227003531e-03 0.0000000000000000e+00  -1.2880710724003964e-03 -2.4488285378415037e-03 0.0000000000000000e+00  -1.1328507766273095e-03 -1.9039451131761705e-03 0.0000000000000000e+00  -9.5416321373973550e-04 -1.4267791077549165e-03 0.0000000000000000e+00  -7.9949676009067239e-04 -1.0296609007113347e-03 0.0000000000000000e+00  -6.2442228036233558e-04 -7.0161636958547340e-04 0.0000000000000000e+00  -4.6630520588183624e-04 -4.2490411245741180e-04 0.0000000000000000e+00  -3.1104752910784885e-04 -2.3126913914325831e-04 0.0000000000000000e+00  -1.5455711528170054e-04 -1.3208198435955205e-04 0.0000000000000000e+00  -1.9421403081900084e-02 -1.0196245146955081e-01 0.0000000000000000e+00  -1.5603745147506105e-02 -1.0271990038242816e-01 0.0000000000000000e+00  1.4781932079300589e-05 -1.2796692111346689e-04 0.0000000000000000e+00  -1.3208899933439671e-02 -8.0639003633610581e-02 0.0000000000000000e+00  -1.5117931556276429e-02 -9.0212582335505179e-02 0.0000000000000000e+00  1.7908210520296703e-05 -1.2678880264217643e-03 0.0000000000000000e+00  -1.1049774542339720e-02 -6.9498264424191505e-02 0.0000000000000000e+00  -1.2157269697825797e-02 -7.5124313344365728e-02 0.0000000000000000e+00  -2.4973952566394002e-04 -3.1822036839087298e-03 0.0000000000000000e+00  -1.6382462994009098e-02 -9.5731387440874463e-02 0.0000000000000000e+00  -3.5230565834690886e-04 -5.6545316945535605e-03 0.0000000000000000e+00  -7.2632668465192891e-04 -1.1095735970469121e-02 0.0000000000000000e+00  -9.9553578912858036e-03 -6.3904263727444510e-02 0.0000000000000000e+00  -1.4810166371488933e-03 -1.5606002911564127e-02 0.0000000000000000e+00  -8.8795699462201165e-03 -5.8356174697387103e-02 0.0000000000000000e+00  -2.0697540349888977e-03 -1.9841634468305881e-02 0.0000000000000000e+00  -2.9461030364118265e-03 -2.5566516874609639e-02 0.0000000000000000e+00  -7.9349581519094874e-03 -5.2710093416165171e-02 0.0000000000000000e+00  -6.7520425760086997e-03 -4.7346883180926426e-02 0.0000000000000000e+00  -3.6635914651528992e-03 -3.0165646097277916e-02 0.0000000000000000e+00  -4.5573317543804882e-03 -3.5210147719031464e-02 0.0000000000000000e+00  -5.7417265566101442e-03 -4.1831542678012451e-02 0.0000000000000000e+00  -5.1694759145973614e-04 -7.4779201762993951e-03 0.0000000000000000e+00  -1.4365342583387175e-02 -8.6459458989063709e-02 0.0000000000000000e+00  -5.1209253740185819e-03 -3.8115480381682325e-02 0.0000000000000000e+00  -1.1643848545554974e-03 -1.3424897791946741e-02 0.0000000000000000e+00  -2.4966449061412724e-03 -2.2969977253329443e-02 0.0000000000000000e+00  -9.4592500032851881e-05 -2.1624408467239547e-03 0.0000000000000000e+00  -1.7510144497660272e-02 -9.8818942851113062e-02 0.0000000000000000e+00  7.5935798398236572e-05 -5.6405247825570468e-04 0.0000000000000000e+00  -6.4389920828420615e-03 -5.0187479966580559e-02 0.0000000000000000e+00  -8.5125321494425605e-03 -6.1157011243488490e-02 0.0000000000000000e+00  -9.5901496355073716e-03 -6.6731710503528260e-02 0.0000000000000000e+00  -4.0335628153389822e-03 -2.7781063396216877e-02 0.0000000000000000e+00  -7.4594311134391208e-03 -5.5635732792534982e-02 0.0000000000000000e+00  -1.0685915847159194e-02 -7.2344478656165140e-02 0.0000000000000000e+00  -5.4605384900845363e-03 -4.4833374491309863e-02 0.0000000000000000e+00  -1.1794451451131685e-02 -7.7983128894173859e-02 0.0000000000000000e+00  -4.8729908114719112e-03 -3.2598457290181508e-02 0.0000000000000000e+00  -2.3669343098347705e-03 -1.7513659010290089e-02 0.0000000000000000e+00  -5.9916024189902019e-04 -4.4725000495974996e-03 0.0000000000000000e+00  -1.6498975721080087e-02 -9.2732967208507169e-02 0.0000000000000000e+00  -1.4855480189016515e-02 -8.3211374947376210e-02 0.0000000000000000e+00  -8.9269361743134866e-05 -9.1852146096658271e-03 0.0000000000000000e+00  -1.2143691729333064e-02 -8.2939410064015895e-02 0.0000000000000000e+00  -1.5691724284114495e-03 -9.4804861051385834e-03 0.0000000000000000e+00  -1.4288863334130176e-02 -7.8356959851295496e-02 0.0000000000000000e+00  -1.3169753148897699e-02 -7.2719095955460444e-02 0.0000000000000000e+00  -1.2058227010701568e-02 -6.7107406819662735e-02 0.0000000000000000e+00  -1.4326963192281314e-02 -9.4033268817061630e-02 0.0000000000000000e+00  3.5830354930779562e-04 -4.2122292393804084e-03 0.0000000000000000e+00  -9.8749961604216036e-03 -5.6014663368379583e-02 0.0000000000000000e+00  -1.0958258394784532e-02 -6.1534078743608257e-02 0.0000000000000000e+00  -1.9921867357120828e-03 -2.7402138461669733e-02 0.0000000000000000e+00  -6.2833527782203962e-04 -1.7150023417317670e-02 0.0000000000000000e+00  -8.5097461984155361e-03 -4.8976033126692145e-02 0.0000000000000000e+00  -7.7837817709358248e-03 -4.5216131026423245e-02 0.0000000000000000e+00  -2.7299738025218265e-03 -3.2217287352971954e-02 0.0000000000000000e+00  -6.8108437558040411e-05 -5.4753154107262178e-05 0.0000000000000000e+00  4.8770941138369442e-05 -4.2379247598101203e-05 0.0000000000000000e+00  -4.1779407720126836e-03 -4.0703825196840078e-02 0.0000000000000000e+00  -3.3357154786406054e-03 -2.0813298016424453e-02 0.0000000000000000e+00  -1.9488712184176917e-03 -1.1822272902673923e-02 0.0000000000000000e+00  -4.5134404961322077e-04 -1.6303070472254296e-03 0.0000000000000000e+00  -6.0871244633606172e-04 -2.7518093141499162e-03 0.0000000000000000e+00  -3.5186243693194784e-03 -3.7199581023238691e-02 0.0000000000000000e+00  -2.3017543293945347e-03 -1.4154262500257819e-02 0.0000000000000000e+00  -3.8931091898974225e-03 -2.3809542617836695e-02 0.0000000000000000e+00  -1.1658507459616561e-03 -6.7293738918960209e-03 0.0000000000000000e+00  -1.3203109994434484e-02 -8.8177840918519032e-02 0.0000000000000000e+00  -1.6164639345542291e-02 -8.7704123809087459e-02 0.0000000000000000e+00  2.6345737622448590e-04 -6.7893617446417465e-03 0.0000000000000000e+00  -3.1141859402287163e-04 -7.7727072011566018e-04 0.0000000000000000e+00  -1.4747735100401546e-02 -9.7850811773722207e-02 0.0000000000000000e+00  -7.0614300769536627e-03 -4.0138942197388380e-02 0.0000000000000000e+00  -6.2491264650162076e-03 -3.6595943612031383e-02 0.0000000000000000e+00  1.1908894520626029e-04 -1.1987881908672957e-02 0.0000000000000000e+00  3.9406237925061397e-04 -1.6373654920477539e-03 0.0000000000000000e+00  4.6451234562123740e-04 -2.8467205774914779e-03 0.0000000000000000e+00  -9.3626142892284209e-04 -2.1213379223713944e-02 0.0000000000000000e+00  -2.8424594978628058e-06 -1.4401946027624516e-02 0.0000000000000000e+00  -1.1306545461658081e-03 -2.4172187452663293e-02 0.0000000000000000e+00  -1.9419671718321670e-04 -4.0634151028734147e-04 0.0000000000000000e+00  -1.5539778243779726e-02 -1.0048063406666080e-01 0.0000000000000000e+00  -1.4031907195260533e-02 -7.6104853097423750e-02 0.0000000000000000e+00  -1.2914887524613965e-02 -7.0476398335381205e-02 0.0000000000000000e+00  4.0581486875733869e-04 -5.1540775565054858e-03 0.0000000000000000e+00  -1.1806506661131880e-02 -6.4878744331902563e-02 0.0000000000000000e+00  -1.3706804763848958e-02 -9.1850080499641759e-02 0.0000000000000000e+00  -1.0711151036842408e-02 -5.9325316824444106e-02 0.0000000000000000e+00  -9.6387612364364252e-03 -5.3848682516680582e-02 0.0000000000000000e+00  -6.9018363216987366e-04 -1.8781123229694028e-02 0.0000000000000000e+00  -9.0910806930996190e-03 -5.1045498591258218e-02 0.0000000000000000e+00  -2.1234940117645551e-03 -2.9291819933896571e-02 0.0000000000000000e+00  -7.5672717313706511e-03 -4.3114256925373240e-02 0.0000000000000000e+00  -2.8842434268390119e-03 -3.4190126433879434e-02 0.0000000000000000e+00  -1.8135051398583898e-02 -9.6862950345284901e-02 0.0000000000000000e+00  -1.2350577936922966e-02 -8.5175164140111531e-02 0.0000000000000000e+00  -1.5142457103641145e-03 -8.2594009681973210e-03 0.0000000000000000e+00  3.1808357674750553e-04 -8.5777876652173228e-04 0.0000000000000000e+00  1.7107012265585487e-04 -3.2734901040136721e-04 0.0000000000000000e+00  -5.2533809088374517e-03 -4.8615109491887805e-02 0.0000000000000000e+00  -5.9002855125656894e-03 -3.4019636554583864e-02 0.0000000000000000e+00  -6.2454638799581677e-03 -5.4040833443500490e-02 0.0000000000000000e+00  -9.4585147581653373e-03 -7.0698980691678223e-02 0.0000000000000000e+00  -7.3120854524020206e-03 -5.9532609865040054e-02 0.0000000000000000e+00  -8.3740557655484996e-03 -6.5094886772109006e-02 0.0000000000000000e+00  -4.8260091224072909e-03 -2.9288957091796946e-02 0.0000000000000000e+00  -4.3742243944553758e-03 -4.3318077775394953e-02 0.0000000000000000e+00  -3.1773848515549898e-03 -1.8728001001751881e-02 0.0000000000000000e+00  -4.5255618219722004e-03 -2.6164668827701076e-02 0.0000000000000000e+00  -1.1239112183906386e-02 -7.9984829841555388e-02 0.0000000000000000e+00  -2.8072929573909203e-03 -1.6149366462155069e-02 0.0000000000000000e+00  -1.0810908879061307e-02 -7.6209398041483412e-02 0.0000000000000000e+00  -1.0544045105072607e-03 -5.1967119477745556e-03 0.0000000000000000e+00  -8.6591973001709055e-04 -3.7363626914026357e-03 0.0000000000000000e+00  -1.7673653886377146e-02 -9.4242449498877376e-02 0.0000000000000000e+00  -1.7054140438208128e-02 -9.0726493643848674e-02 0.0000000000000000e+00  -9.4749750397049547e-03 -6.8784814218571327e-02 0.0000000000000000e+00  -8.3940656198401246e-03 -6.3193766374843544e-02 0.0000000000000000e+00  -6.2039036230480569e-03 -5.2124244380265250e-02 0.0000000000000000e+00  -1.0472368992566931e-02 -7.4369947945411352e-02 0.0000000000000000e+00  -7.3368072089669122e-03 -5.7649912273872006e-02 0.0000000000000000e+00  -5.1915330466126269e-03 -4.6741610145878208e-02 0.0000000000000000e+00  -5.0867323403417817e-03 -3.0856405746165005e-02 0.0000000000000000e+00  3.5398977336789081e-04 -8.2433282326258035e-03 0.0000000000000000e+00  -1.5909363121741345e-02 -8.4869571996255014e-02 0.0000000000000000e+00  -1.5142491153842110e-02 -8.1298232883466964e-02 0.0000000000000000e+00