<?xml version="1.0"?>
<VTKFile type="UnstructuredGrid"  version="0.1"  >
<UnstructuredGrid>
<Piece  NumberOfPoints="439" NumberOfCells="725">
<Points>
<DataArray  type="Float64"  NumberOfComponents="3"  format="ascii">0.6 0.19 0  0.6 0.21 0  0.2489897949 0.21 0  0.2489897949 0.19 0  0.6 0.2 0  0.2496355385699469 0.2060260530378829 0  0.249959460510575 0.2020130349814059 0  0.2499594605105767 0.1979869650186357 0  0.24963553856995 0.1939739469621422 0  0.2539336006056293 0.21 0  0.2588774063112542 0.21 0  0.2638212120168921 0.21 0  0.26876501772253 0.21 0  0.2737088234281569 0.21 0  0.2786526291337753 0.21 0  0.2835964348393937 0.21 0  0.2885402405450166 0.21 0  0.2934840462506522 0.21 0  0.2984278519562708 0.21 0  0.3033716576618997 0.21 0  0.3083154633675181 0.21 0  0.3132592690731365 0.21 0  0.3182030747787549 0.21 0  0.3231468804843732 0.21 0  0.3280906861899917 0.21 0  0.3330344918956208 0.21 0  0.3379782976012284 0.21 0  0.3429221033068576 0.21 0  0.347865909012476 0.21 0  0.3528097147180944 0.21 0  0.3577535204237128 0.21 0  0.3626973261293311 0.21 0  0.3676411318349495 0.21 0  0.3725849375405788 0.21 0  0.3775287432461877 0.21 0  0.382472548951812 0.21 0  0.3874163546574338 0.21 0  0.3923601603630631 0.21 0  0.3973039660686706 0.21 0  0.4022477717742986 0.21 0  0.4071915774799107 0.21 0  0.4121353831855311 0.21 0  0.4170791888911518 0.21 0  0.4220229945967636 0.21 0  0.4269668003023918 0.21 0  0.4319106060080253 0.21 0  0.4368544117136773 0.21 0  0.4417982174193329 0.21 0  0.4467420231249967 0.21 0  0.4516858288306445 0.21 0  0.4566296345362864 0.21 0  0.461573440241916 0.21 0  0.4665172459475665 0.21 0  0.4714610516531998 0.21 0  0.4764048573588668 0.21 0  0.4813486630645134 0.21 0  0.486292468770176 0.21 0  0.4912362744758066 0.21 0  0.4961800801814611 0.21 0  0.5011238858870897 0.21 0  0.5060676915927493 0.21 0  0.5110114972983872 0.21 0  0.5159553030040036 0.21 0  0.5208991087096415 0.21 0  0.5258429144153002 0.21 0  0.5307867201209391 0.21 0  0.5357305258265987 0.21 0  0.5406743315322367 0.21 0  0.5456181372378529 0.21 0  0.5505619429434908 0.21 0  0.5555057486491456 0.21 0  0.5604495543547885 0.21 0  0.565393360060448 0.21 0  0.5703371657661116 0.21 0  0.5752809714717458 0.21 0  0.5802247771773834 0.21 0  0.5851685828830341 0.21 0  0.5901123885886809 0.21 0  0.5950561942943404 0.21 0  0.5950561942943833 0.19 0  0.590112388588758 0.19 0  0.5851685828831193 0.19 0  0.5802247771774727 0.19 0  0.5752809714718514 0.19 0  0.5703371657662308 0.19 0  0.565393360060618 0.19 0  0.5604495543549889 0.19 0  0.5555057486493581 0.19 0  0.5505619429437035 0.19 0  0.5456181372381043 0.19 0  0.540674331532505 0.19 0  0.5357305258268962 0.19 0  0.530786720121263 0.19 0  0.5258429144156628 0.19 0  0.5208991087100244 0.19 0  0.5159553030044218 0.19 0  0.5110114972988226 0.19 0  0.5060676915932177 0.19 0  0.5011238858875806 0.19 0  0.496180080181972 0.19 0  0.4912362744763531 0.19 0  0.4862924687707343 0.19 0  0.4813486630651046 0.19 0  0.4764048573594966 0.19 0  0.4714610516538683 0.19 0  0.4665172459482555 0.19 0  0.4615734402426349 0.19 0  0.4566296345370104 0.19 0  0.4516858288313808 0.19 0  0.4467420231257716 0.19 0  0.4417982174201465 0.19 0  0.4368544117145297 0.19 0  0.4319106060089131 0.19 0  0.4269668003032866 0.19 0  0.4220229945976482 0.19 0  0.4170791888920056 0.19 0  0.4121353831863594 0.19 0  0.4071915774806995 0.19 0  0.4022477717750478 0.19 0  0.3973039660693901 0.19 0  0.3923601603637548 0.19 0  0.3874163546581082 0.19 0  0.3824725489524824 0.19 0  0.3775287432468258 0.19 0  0.3725849375411773 0.19 0  0.3676411318355085 0.19 0  0.3626973261298614 0.19 0  0.3577535204242108 0.19 0  0.352809714718589 0.19 0  0.347865909012931 0.19 0  0.342922103307292 0.19 0  0.3379782976016536 0.19 0  0.3330344918960152 0.19 0  0.3280906861903751 0.19 0  0.3231468804847171 0.19 0  0.3182030747790592 0.19 0  0.3132592690734012 0.19 0  0.3083154633677581 0.19 0  0.3033716576621197 0.19 0  0.2984278519564813 0.19 0  0.2934840462508429 0.19 0  0.2885402405451874 0.19 0  0.2835964348395295 0.19 0  0.2786526291338716 0.19 0  0.2737088234282243 0.19 0  0.268765017722586 0.19 0  0.2638212120169476 0.19 0  0.2588774063113093 0.19 0  0.2539336006056579 0.19 0  0.6 0.1949999999999783 0  0.6 0.2049999999999729 0  0.2589734265316493 0.2005523893428403 0  0.5431462343853077 0.199999999999969 0  0.5682397894768162 0.1999704585808987 0  0.2774513927118024 0.2007941919421926 0  0.513849583376897 0.1999023426490919 0  0.5286810004937381 0.1999023426490969 0  0.2945108952057646 0.1992911908405386 0  0.5827780831384927 0.1995429801003349 0  0.3104128396569256 0.1999704585808978 0  0.3370001755418551 0.2008294612433967 0  0.4990181662600459 0.1999023426490902 0  0.3552816175709044 0.2000000000000608 0  0.4841867491431925 0.1999023426490849 0  0.3707373713905551 0.2000142376953689 0  0.3898882575102495 0.2000000000000828 0  0.4689857550492734 0.1995416724256694 0  0.4541577316841967 0.1999999999999098 0  0.4043534914018331 0.2000976573509244 0  0.4195510917439569 0.2000000000001057 0  0.4387019778644512 0.1999857623046772 0  0.3202472750256703 0.2000088842146399 0  0.5584053541080851 0.1999911157853577 0  0.4280667146887134 0.1998489048208241 0  0.3467659946265474 0.2001510951794375 0  0.3813726345658908 0.200151095179452 0  0.2860683376922098 0.2000415445706182 0  0.5911223811781194 0.1982449159348744 0  0.2679893161458627 0.201675125646729 0  0.4615734402426278 0.2022503633288003 0  0.4912362744763454 0.2022503633288091 0  0.5060676915931983 0.2022503633288118 0  0.3973039660686774 0.1977496366711965 0  0.4764048573594896 0.2022503633288051 0  0.5208991087100455 0.2022503633288184 0  0.4467420231257656 0.2022503633288 0  0.5357305258268849 0.2022503633288198 0  0.4121353831855317 0.1977496366711976 0  0.3626973261293352 0.1977496366711919 0  0.3033716576618961 0.1977496366711869 0  0.5752809714718229 0.1977496366711503 0  0.550459855919056 0.1971284784737667 0  0.3281927732146841 0.2028715215262406 0  0.5484179020497461 0.2038403215694763 0  0.3302347270839988 0.1961596784305491 0  0.5379210852238114 0.196125181664411 0  0.5230896681069652 0.1961251816644058 0  0.5082582509901222 0.1961251816644098 0  0.5774715308687094 0.2038748183355887 0  0.3011810982649548 0.2038748183355937 0  0.4785954167564111 0.196125181664404 0  0.4934268338732671 0.1961251816644063 0  0.395113406671763 0.2038748183355966 0  0.3605067667324117 0.2038748183355951 0  0.4593828808457146 0.1961251816643993 0  0.4489325825226805 0.1961251816644007 0  0.4099448237886219 0.2038748183355991 0  0.2557862999801971 0.1960858370257295 0  0.2550147360309399 0.2034426429991114 0  0.4348031476464689 0.2037737577641554 0  0.37463620160841 0.1962262422358553 0  0.3406258365864304 0.196046792193989 0  0.2813001681189834 0.1960467921940502 0  0.2912686387439893 0.1960816328649282 0  0.4246705335819892 0.2039532078059544 0  0.350162175732913 0.1960467921941878 0  0.3847688156722694 0.1960467921942359 0  0.316632368538356 0.19615945856337 0  0.5621550011053409 0.2037816492598991 0  0.5624413877019769 0.1960761923611377 0  0.3162395035833128 0.2038679557424692 0  0.2710887134207622 0.1959696443325838 0  0.5873014376403604 0.2047227881030823 0  0.4346679566442709 0.1954651459552513 0  0.4243296504077986 0.1958756980939062 0  0.3402559510833523 0.2047940500290923 0  0.2808684926760933 0.2047742417812656 0  0.2914077033138723 0.2047809517070955 0  0.3747713926104932 0.2045348540448554 0  0.3499216488898867 0.2051753413186305 0  0.3845282888292298 0.205175341318636 0  0.2648144865455052 0.1962089742986374 0  0.5943247643662894 0.2040415423589182 0  0.5320972610456145 0.1956445099050872 0  0.5172658439287727 0.1956445099050854 0  0.3069923255602658 0.2043468033872551 0  0.5024344268119265 0.1956445099050864 0  0.5716603035734351 0.2043468033872761 0  0.4876030096950741 0.1956445099050831 0  0.4728151975296263 0.1956402468909894 0  0.3663301776527538 0.20436745486386 0  0.4651631000724991 0.1956402468909893 0  0.4009372308499527 0.2043554900949198 0  0.4431091716023345 0.1956325451361429 0  0.4157593408842466 0.2043565497109067 0  0.5865057328865416 0.1956918868509067 0  0.5541600609760193 0.2044335994013721 0  0.3244925681577497 0.1955664005986376 0  0.272008018888917 0.2049327968152409 0  0.2633407725863902 0.2042483236346266 0  0.4567948413982566 0.2046536472831198 0  0.4167680012832803 0.1955060004091903 0  0.4716262585151221 0.2046536472831242 0  0.5161054367030595 0.2045563706470633 0  0.4864426024693469 0.2045563706470604 0  0.5012740195862044 0.2045563706470634 0  0.4022810343427545 0.1961423961483001 0  0.4420739040821668 0.2044853411424516 0  0.3673807293464664 0.1955677741328205 0  0.3925253672243162 0.195346352716901 0  0.5405091246712254 0.2046536472831267 0  0.357918727284983 0.1953463527168901 0  0.5307534575528717 0.2038576038516682 0  0.3079697655029555 0.1955637092892754 0  0.2985930588175599 0.1953463527168728 0  0.579671714346879 0.1955441268455555 0  0.5705023726275059 0.1953463527168462 0  0.5112451461103119 0.2035640580783926 0  0.4964137289934448 0.2035640580783915 0  0.4665727251511405 0.2038238154617746 0  0.5259274680675793 0.2038006696000127 0  0.4815823118765752 0.2035640580783898 0  0.4517504165552094 0.2039070625502732 0  0.4071070238280551 0.1961993303999926 0  0.3234846806957546 0.2047001437739977 0  0.5551679484379799 0.1952998562260008 0  0.5457754356464107 0.1954447171286166 0  0.3329307555206357 0.2046017509710421 0  0.4541577316841968 0.1960357661898101 0  0.3358300776141575 0.1950765652117375 0  0.2539718587514912 0.200011552766824 0  0.5826472073721517 0.2039971170156656 0  0.2761021761080182 0.1946948236183283 0  0.3898581462796225 0.2041572776584344 0  0.3552515063402743 0.2041572776584256 0  0.2965028074750666 0.2046578268138723 0  0.4299158836614793 0.1951782397873778 0  0.379426563923736 0.2049969334481307 0  0.2860882692072842 0.2042624797643994 0  0.3449948044168807 0.2051793676155613 0  0.2603922435707652 0.1950997711614917 0  0.5949856943860
[...]
<PointData  Vectors="f_18-1"> 
<DataArray  type="Float64"  Name="f_18-1"  NumberOfComponents="3" format="ascii">-2.3904315449207084e-02 -1.0641233308894746e-01 0.0000000000000000e+00  -1.5557968777987640e-02 -1.0823719825295969e-01 0.0000000000000000e+00  0.0000000000000000e+00 0.0000000000000000e+00 0.0000000000000000e+00  0.0000000000000000e+00 0.0000000000000000e+00 0.0000000000000000e+00  -1.9731085378751498e-02 -1.0732472837894881e-01 0.0000000000000000e+00  0.0000000000000000e+00 0.0000000000000000e+00 0.0000000000000000e+00  0.0000000000000000e+00 0.0000000000000000e+00 0.0000000000000000e+00  0.0000000000000000e+00 0.0000000000000000e+00 0.0000000000000000e+00  0.0000000000000000e+00 0.0000000000000000e+00 0.0000000000000000e+00  1.3474876447803951e-04 -1.1721418066206112e-04 0.0000000000000000e+00  2.8325275704554648e-04 -2.4667888197705054e-04 0.0000000000000000e+00  4.2979128286530801e-04 -4.1259410723898718e-04 0.0000000000000000e+00  5.6576632387770243e-04 -6.9025072838366642e-04 0.0000000000000000e+00  6.9182211510651604e-04 -1.0289937805035181e-03 0.0000000000000000e+00  8.1900832998009119e-04 -1.4539585617944248e-03 0.0000000000000000e+00  9.2875690343654767e-04 -1.9240906235606801e-03 0.0000000000000000e+00  1.0196245310763045e-03 -2.4730034598142579e-03 0.0000000000000000e+00  1.1060261497129740e-03 -3.0847451136207043e-03 0.0000000000000000e+00  1.1774406530188123e-03 -3.7590071313208400e-03 0.0000000000000000e+00  1.2459068643531554e-03 -4.5181174245977193e-03 0.0000000000000000e+00  1.3117099901739310e-03 -5.2912877286502872e-03 0.0000000000000000e+00  1.3458354167547749e-03 -6.1579899542186563e-03 0.0000000000000000e+00  1.3918719609315056e-03 -7.0777929206080562e-03 0.0000000000000000e+00  1.4040163305893225e-03 -8.0424499621213671e-03 0.0000000000000000e+00  1.4089517559632485e-03 -9.0769729983960629e-03 0.0000000000000000e+00  1.3996061151756113e-03 -1.0150971618503153e-02 0.0000000000000000e+00  1.3719681225923155e-03 -1.1292276938216038e-02 0.0000000000000000e+00  1.3280525694977616e-03 -1.2461188082459412e-02 0.0000000000000000e+00  1.2703040425003764e-03 -1.3688140499044503e-02 0.0000000000000000e+00  1.1963187461854442e-03 -1.4954896236746878e-02 0.0000000000000000e+00  1.1049300289604467e-03 -1.6261046755988665e-02 0.0000000000000000e+00  1.0043148216339732e-03 -1.7633710308349544e-02 0.0000000000000000e+00  9.0114282595520317e-04 -1.9016437845604018e-02 0.0000000000000000e+00  7.7197994452965284e-04 -2.0456985895780499e-02 0.0000000000000000e+00  6.2873415818517529e-04 -2.1921702425893405e-02 0.0000000000000000e+00  4.7128319257352561e-04 -2.3430733465367174e-02 0.0000000000000000e+00  2.9940812680052476e-04 -2.4971419214927196e-02 0.0000000000000000e+00  1.1107095907006781e-04 -2.6542015742504338e-02 0.0000000000000000e+00  -8.7822850373539855e-05 -2.8163816608163514e-02 0.0000000000000000e+00  -2.8879436413167657e-04 -2.9790754744503566e-02 0.0000000000000000e+00  -5.1746310139219511e-04 -3.1459998581630295e-02 0.0000000000000000e+00  -7.5589247178723784e-04 -3.3165216112909582e-02 0.0000000000000000e+00  -9.9795297771535212e-04 -3.4878760670310871e-02 0.0000000000000000e+00  -1.2641882287723952e-03 -3.6630343427982215e-02 0.0000000000000000e+00  -1.5307046258823058e-03 -3.8403132769718275e-02 0.0000000000000000e+00  -1.8175630009078054e-03 -4.0197746081211683e-02 0.0000000000000000e+00  -2.1084533598181910e-03 -4.2020532354663291e-02 0.0000000000000000e+00  -2.4151130606622612e-03 -4.3857340416757984e-02 0.0000000000000000e+00  -2.7336058028978732e-03 -4.5717548467298669e-02 0.0000000000000000e+00  -3.0582409718834429e-03 -4.7594802674867293e-02 0.0000000000000000e+00  -3.3917685637582526e-03 -4.9491272927412892e-02 0.0000000000000000e+00  -3.7386295747363850e-03 -5.1403740793725165e-02 0.0000000000000000e+00  -4.0906619465776719e-03 -5.3330976018312243e-02 0.0000000000000000e+00  -4.4511493272659441e-03 -5.5274703182883904e-02 0.0000000000000000e+00  -4.8230515770042535e-03 -5.7231631761374850e-02 0.0000000000000000e+00  -5.2002893248194113e-03 -5.9200382667907420e-02 0.0000000000000000e+00  -5.5847869209193378e-03 -6.1182513426256128e-02 0.0000000000000000e+00  -5.9783159969318961e-03 -6.3174301874210789e-02 0.0000000000000000e+00  -6.3764163756956579e-03 -6.5175287369360721e-02 0.0000000000000000e+00  -6.7804470807918509e-03 -6.7186457841070191e-02 0.0000000000000000e+00  -7.1917116176871965e-03 -6.9204927680899836e-02 0.0000000000000000e+00  -7.6066779944377293e-03 -7.1230100534719357e-02 0.0000000000000000e+00  -8.0264260710692162e-03 -7.3262693468057818e-02 0.0000000000000000e+00  -8.4516925492621933e-03 -7.5300322223960867e-02 0.0000000000000000e+00  -8.8796007161847258e-03 -7.7342833426744362e-02 0.0000000000000000e+00  -9.3111595097737972e-03 -7.9390215779998871e-02 0.0000000000000000e+00  -9.7463561925015697e-03 -8.1441053485020273e-02 0.0000000000000000e+00  -1.0184552614422917e-02 -8.3494345013878396e-02 0.0000000000000000e+00  -1.0625766452465818e-02 -8.5550670335138176e-02 0.0000000000000000e+00  -1.1068918270954811e-02 -8.7609641873528557e-02 0.0000000000000000e+00  -1.1512734340562878e-02 -8.9668893057498505e-02 0.0000000000000000e+00  -1.1959168826475783e-02 -9.1730435806816585e-02 0.0000000000000000e+00  -1.2406199390224734e-02 -9.3792950055628724e-02 0.0000000000000000e+00  -1.2854702185335309e-02 -9.5855854116474751e-02 0.0000000000000000e+00  -1.3304287003269834e-02 -9.7919517380657975e-02 0.0000000000000000e+00  -1.3754254337291770e-02 -9.9983099328218930e-02 0.0000000000000000e+00  -1.4204902278694179e-02 -1.0204679866829848e-01 0.0000000000000000e+00  -1.4655859242903317e-02 -1.0411051184982090e-01 0.0000000000000000e+00  -1.5106858796402079e-02 -1.0617389504992887e-01 0.0000000000000000e+00  -2.3453163608610939e-02 -1.0434910727980951e-01 0.0000000000000000e+00  -2.3001831916787230e-02 -1.0228583035683379e-01 0.0000000000000000e+00  -2.2550283764099899e-02 -1.0022243263934384e-01 0.0000000000000000e+00  -2.2098445734261417e-02 -9.8159222489537998e-02 0.0000000000000000e+00  -2.1646415517908468e-02 -9.6096479976403082e-02 0.0000000000000000e+00  -2.1194067628096256e-02 -9.4034067180977662e-02 0.0000000000000000e+00  -2.0741555375535316e-02 -9.1972916451371206e-02 0.0000000000000000e+00  -2.0288495390380412e-02 -8.9913172211030928e-02 0.0000000000000000e+00  -1.9835693663793837e-02 -8.7854482316040344e-02 0.0000000000000000e+00  -1.9382821665930177e-02 -8.5798575967624233e-02 0.0000000000000000e+00  -1.8929759680200293e-02 -8.3744324061769793e-02 0.0000000000000000e+00  -1.8477747328775881e-02 -8.1693485217843476e-02 0.0000000000000000e+00  -1.8025859568794725e-02 -7.9647412586325697e-02 0.0000000000000000e+00  -1.7573173414272961e-02 -7.7602762906219952e-02 0.0000000000000000e+00  -1.7122766028552353e-02 -7.5564154756839419e-02 0.0000000000000000e+00  -1.6672838265488689e-02 -7.3533223601755890e-02 0.0000000000000000e+00  -1.6222169586717270e-02 -7.1504530337520883e-02 0.0000000000000000e+00  -1.5775624362988960e-02 -6.9484688748328846e-02 0.0000000000000000e+00  -1.5329912406560514e-02 -6.7475413960797370e-02 0.0000000000000000e+00  -1.4883401627726847e-02 -6.5469198599572800e-02 0.0000000000000000e+00  -1.4442980603218388e-02 -6.3475145182913237e-02 0.0000000000000000e+00  -1.4003950620067242e-02 -6.1495093096173917e-02 0.0000000000000000e+00  -1.3564110643819556e-02 -5.9518986000457311e-02 0.0000000000000000e+00  -1.3132602067049078e-02 -5.7558651521794221e-02 0.0000000000000000e+00  -1.2703084170316428e-02 -5.5616357349766110e-02 0.0000000000000000e+00  -1.2273651429782749e-02 -5.3680704592645408e-02 0.0000000000000000e+00  -1.1851744878773397e-02 -5.1762357843643650e-02 0.0000000000000000e+00  -1.1433886331922260e-02 -4.9866959236677305e-02 0.0000000000000000e+00  -1.1016759519602364e-02 -4.7975987962043116e-02 0.0000000000000000e+00  -1.0613363826681176e-02 -4.6108120632285032e-02 0.0000000000000000e+00  -1.0211469279390335e-02 -4.4269827736172246e-02 0.0000000000000000e+00  -9.8091745280672951e-03 -4.2438393979584682e-02 0.0000000000000000e+00  -9.4191651134896155e-03 -4.0636250237969719e-02 0.0000000000000000e+00  -9.0357466990558227e-03 -3.8848633389511084e-02 0.0000000000000000e+00  -8.6587923841551610e-03 -3.7086484066308913e-02 0.0000000000000000e+00  -8.2931896181517133e-03 -3.5354862792737737e-02 0.0000000000000000e+00  -7.9254965338114956e-03 -3.3641705145200991e-02 0.0000000000000000e+00  -7.5709786169403225e-03 -3.1959010446511643e-02 0.0000000000000000e+00  -7.2189095258345807e-03 -3.0303581974594658e-02 0.0000000000000000e+00  -6.8729001173260303e-03 -2.8679682155809797e-02 0.0000000000000000e+00  -6.5378009585817104e-03 -2.7088153044754409e-02 0.0000000000000000e+00  -6.2161420058089801e-03 -2.5519841930997482e-02 0.0000000000000000e+00  -5.9050510099104957e-03 -2.3988264299265583e-02 0.0000000000000000e+00  -5.5848684244907331e-03 -2.2486796523211620e-02 0.0000000000000000e+00  -5.2887077067043081e-03 -2.1023688465814119e-02 0.0000000000000000e+00  -4.9880267634167114e-03 -1.9604953085794765e-02 0.0000000000000000e+00  -4.7069696615616380e-03 -1.8213898799482979e-02 0.0000000000000000e+00  -4.4313519954396205e-03 -1.6872355306531604e-02 0.0000000000000000e+00  -4.1698159677477165e-03 -1.5559101775209500e-02 0.0000000000000000e+00  -3.9197918216550319e-03 -1.4293407870081768e-02 0.0000000000000000e+00  -3.6564686548323498e-03 -1.3064277159899378e-02 0.0000000000000000e+00  -3.4207597092607597e-03 -1.1882252558416273e-02 0.0000000000000000e+00  -3.1751440898126222e-03 -1.0756587933072759e-02 0.0000000000000000e+00  -2.9586545748562718e-03 -9.6690568239251786e-03 0.0000000000000000e+00  -2.7459362476105866e-03 -8.6522938888981184e-03 0.0000000000000000e+00  -2.5297570281368285e-03 -7.6514924317967479e-03 0.0000000000000000e+00  -2.3341247846080347e-03 -6.7257490328957933e-03 0.0000000000000000e+00  -2.1196834462903521e-03 -5.8520569886197594e-03 0.0000000000000000e+00  -1.9358161132675680e-03 -5.0270882035387977e-03 0.0000000000000000e+00  -1.7533650831410344e-03 -4.2767772797314869e-03 0.0000000000000000e+00  -1.5818225056253446e-03 -3.5671718527890044e-03 0.0000000000000000e+00  -1.4189005015208486e-03 -2.9291129095897856e-03 0.0000000000000000e+00  -1.2375038982307333e-03 -2.3404464532081025e-03 0.0000000000000000e+00  -1.0871333344205886e-03 -1.8167951686765462e-03 0.0000000000000000e+00  -9.1430547144658980e-04 -1.3594141011619596e-03 0.0000000000000000e+00  -7.6518522426156314e-04 -9.7948947330303050e-04 0.0000000000000000e+00  -5.9681750975258349e-04 -6.6636067972090061e-04 0.0000000000000000e+00  -4.4511743942571161e-04 -4.0264900290489457e-04 0.0000000000000000e+00  -2.9646496690779024e-04 -2.1871475332499747e-04 0.0000000000000000e+00  -1.4703951162565101e-04 -1.2521403170214052e-04 0.0000000000000000e+00  -2.1817646531533605e-02 -1.0686855150363735e-01 0.0000000000000000e+00  -1.7644578101393943e-02 -1.0778093381007062e-01 0.0000000000000000e+00  1.3945838247029900e-05 -1.1922570806402600e-04 0.0000000000000000e+00  -1.4552956597973917e-02 -8.3616387415662324e-02 0.0000000000000000e+00  -1.6844883434774874e-02 -9.4066054697643564e-02 0.0000000000000000e+00  1.7895206770393031e-05 -1.2039640562142595e-03 0.0000000000000000e+00  -1.1975602594576314e-02 -7.1502000934987847e-02 0.0000000000000000e+00  -1.3291662923632446e-02 -7.7610642468168525e-02 0.0000000000000000e+00  -2.3645945823333128e-04 -3.0414757636125470e-03 0.0000000000000000e+00  -1.8349836346818624e-02 -1.0009477715478349e-01 0.0000000000000000e+00  -3.3053710380858510e-04 -5.4320088281534645e-03 0.0000000000000000e+00  -6.8460119350363105e-04 -1.0749181602858017e-02 0.0000000000000000e+00  -1.0686007170664405e-02 -6.5452890198617983e-02 0.0000000000000000e+00  -1.4252767844692674e-03 -1.5209572240994550e-02 0.0000000000000000e+00  -9.4324354241652857e-03 -5.9485463780101888e-02 0.0000000000000000e+00  -2.0133589609407959e-03 -1.9436767725481866e-02 0.0000000000000000e+00  -2.9073775667585126e-03 -2.5211926694421238e-02 0.0000000000000000e+00  -8.3356275497990778e-03 -5.3450970938738775e-02 0.0000000000000000e+00  -7.0100233046920422e-03 -4.7768657500863253e-02 0.0000000000000000e+00  -3.6550233994326825e-03 -2.9897776711285896e-02 0.0000000000000000e+00  -4.6027540357581635e-03 -3.5086414752112487e-02 0.0000000000000000e+00  -5.8880968531502759e-03 -4.1971148076068165e-02 0.0000000000000000e+00  -4.8684778606496073e-04 -7.2056641618435183e-03 0.0000000000000000e+00  -1.5940307667287462e-02 -8.9966521583183051e-02 0.0000000000000000e+00  -5.2080196709493121e-03 -3.8097366393199897e-02 0.0000000000000000e+00  -1.1133557508443029e-03 -1.3046772426175487e-02 0.0000000000000000e+00  -2.4467908174570143e-03 -2.2584171967678448e-02 0.0000000000000000e+00  -8.8727946681717168e-05 -2.0612676526745137e-03 0.0000000000000000e+00  -1.9653280764942060e-02 -1.0345940870621818e-01 0.0000000000000000e+00  7.2659943565592938e-05 -5.3285200982606596e-04 0.0000000000000000e+00  -6.7111148721291343e-03 -5.0784640378495852e-02 0.0000000000000000e+00  -9.0822765625750874e-03 -6.2508703357081322e-02 0.0000000000000000e+00  -1.0340761680204282e-02 -6.8523380913938350e-02 0.0000000000000000e+00  -4.0232344930268985e-03 -2.7460803741476497e-02 0.0000000000000000e+00  -7.8686122100036365e-03 -5.6586757909149951e-02 0.0000000000000000e+00  -1.1634146626087718e-02 -7.4607424415562243e-02 0.0000000000000000e+00  -5.6211871819501326e-03 -4.5128925759846714e-02 0.0000000000000000e+00  -1.2953059163289822e-02 -8.0740476532107933e-02 0.0000000000000000e+00  -4.9120378320950701e-03 -3.2390588800698325e-02 0.0000000000000000e+00  -2.3096070028931579e-03 -1.7109286747627881e-02 0.0000000000000000e+00  -5.7263956354246682e-04 -4.2878848636686440e-03 0.0000000000000000e+00  -1.8413316892243042e-02 -9.6802058339049396e-02 0.0000000000000000e+00  -1.6408435145471099e-02 -8.6398508490484804e-02 0.0000000000000000e+00  -6.3453161361754921e-05 -8.8735036604762653e-03 0.0000000000000000e+00  -1.3434940600293573e-02 -8.6156302820069780e-02 0.0000000000000000e+00  -1.5158183167168075e-03 -9.1661458448911316e-03 0.0000000000000000e+00  -1.5685827736274544e-02 -8.1099757512398188e-02 0.0000000000000000e+00  -1.4346516864679318e-02 -7.4968856966165662e-02 0.0000000000000000e+00  -1.3024161820776621e-02 -6.8887592686993154e-02 0.0000000000000000e+00  -1.6058776805084121e-02 -9.8274568602183837e-02 0.0000000000000000e+00  3.5506668095574954e-04 -4.0342224792090653e-03 0.0000000000000000e+00  -1.0462252695052727e-02 -5.6958468197814846e-02 0.0000000000000000e+00  -1.1726378521002388e-02 -6.2876248407401900e-02 0.0000000000000000e+00  -1.9396792503463434e-03 -2.7081993223064090e-02 0.0000000000000000e+00  -5.7275456067032513e-04 -1.6746824719455954e-02 0.0000000000000000e+00  -8.8949888793906536e-03 -4.9473696783420791e-02 0.0000000000000000e+00  -8.0731078501923813e-03 -4.5508842685735379e-02 0.0000000000000000e+00  -2.7031328101976460e-03 -3.2010053684171036e-02 0.0000000000000000e+00  -6.5114025050119260e-05 -5.0652416827934374e-05 0.0000000000000000e+00  4.6392048099328732e-05 -3.8826348792921802e-05 0.0000000000000000e+00  -4.2438588803633374e-03 -4.0805467843970544e-02 0.0000000000000000e+00  -3.2887357188161040e-03 -2.0411923193793834e-02 0.0000000000000000e+00  -1.8901853673369785e-03 -1.1466792222997004e-02 0.0000000000000000e+00  -4.3252843788980889e-04 -1.5519121416718293e-03 0.0000000000000000e+00  -5.8341690047175447e-04 -2.6285415676216492e-03 0.0000000000000000e+00  -3.5377787305865571e-03 -3.7158206845111716e-02 0.0000000000000000e+00  -2.2407292258191662e-03 -1.3770230803342307e-02 0.0000000000000000e+00  -3.8621722626913024e-03 -2.3430417366346521e-02 0.0000000000000000e+00  -1.1215228404737533e-03 -6.4786729519941046e-03 0.0000000000000000e+00  -1.4702968038575305e-02 -9.1874666834430546e-02 0.0000000000000000e+00  -1.7938750372926124e-02 -9.1293669469759794e-02 0.0000000000000000e+00  2.7258110180990408e-04 -6.5338029024597918e-03 0.0000000000000000e+00  -2.9828255135734479e-04 -7.3685415696498073e-04 0.0000000000000000e+00  -1.6601576938053496e-02 -1.0245550938722872e-01 0.0000000000000000e+00  -7.2531241434586257e-03 -4.0191577564736077e-02 0.0000000000000000e+00  -6.3687767634496781e-03 -3.6511657385263220e-02 0.0000000000000000e+00  1.5187404909471465e-04 -1.1627412998216048e-02 0.0000000000000000e+00  3.8014852444093699e-04 -1.5570103196766579e-03 0.0000000000000000e+00  4.5230352296459089e-04 -2.7175198027354006e-03 0.0000000000000000e+00  -8.7344655918915814e-04 -2.0817134519261388e-02 0.0000000000000000e+00  4.0317814533950610e-05 -1.4014582376005127e-02 0.0000000000000000e+00  -1.0660438334873356e-03 -2.3804105315635544e-02 0.0000000000000000e+00  -1.8584451573151536e-04 -3.8373003576103290e-04 0.0000000000000000e+00  -1.7526674104628420e-02 -1.0532490102450143e-01 0.0000000000000000e+00  -1.5357997746582301e-02 -7.8644969148632879e-02 0.0000000000000000e+00  -1.4023602350886307e-02 -7.2532176638116952e-02 0.0000000000000000e+00  4.0465185838621179e-04 -4.9457036103353743e-03 0.0000000000000000e+00  -1.2708275742011485e-02 -6.6476847191802343e-02 0.0000000000000000e+00  -1.5332380306726434e-02 -9.5892151718964980e-02 0.0000000000000000e+00  -1.1420284517056005e-02 -6.0500653801673535e-02 0.0000000000000000e+00  -1.0173805201257763e-02 -5.4644832245143320e-02 0.0000000000000000e+00  -6.3162399873394406e-04 -1.8376551884017326e-02 0.0000000000000000e+00  -9.5435380799439619e-03 -5.1664531867643977e-02 0.0000000000000000e+00  -2.0767030800124958e-03 -2.9011022545708046e-02 0.0000000000000000e+00  -7.8196177020055033e-03 -4.3300976294042455e-02 0.0000000000000000e+00  -2.8687911666973411e-03 -3.4043963539449995e-02 0.0000000000000000e+00  -2.0297086106072872e-02 -1.0129958680232354e-01 0.0000000000000000e+00  -1.3707062182711515e-02 -8.8600971236261553e-02 0.0000000000000000e+00  -1.4620148552676251e-03 -7.9713315610316551e-03 0.0000000000000000e+00  3.0497162037280902e-04 -8.1223107644337914e-04 0.0000000000000000e+00  1.6332734227063905e-04 -3.0794589327667025e-04 0.0000000000000000e+00  -5.4379448888833863e-03 -4.9129908189834204e-02 0.0000000000000000e+00  -5.9837614627228893e-03 -3.3850221773497273e-02 0.0000000000000000e+00  -6.5505668198325611e-03 -5.4896870132329828e-02 0.0000000000000000e+00  -1.0268533567280313e-02 -7.2838465273494815e-02 0.0000000000000000e+00  -7.7655400242791868e-03 -6.0776931931407645e-02 0.0000000000000000e+00  -8.9962176856072332e-03 -6.6770080641411586e-02 0.0000000000000000e+00  -4.8422770694464155e-03 -2.8996880691027078e-02 0.0000000000000000e+00  -4.4670732447981759e-03 -4.3545863825311844e-02 0.0000000000000000e+00  -3.1233844246126279e-03 -1.8322607690275314e-02 0.0000000000000000e+00  -4.5163729668329109e-03 -2.5816108659264644e-02 0.0000000000000000e+00  -1.2386333047250090e-02 -8.2940667090045564e-02 0.0000000000000000e+00  -2.7468748464387800e-03 -1.5751423824122045e-02 0.0000000000000000e+00  -1.1844505042661217e-02 -7.8821867073963423e-02 0.0000000000000000e+00  -1.0139866496520135e-03 -4.9903428216074002e-03 0.0000000000000000e+00  -8.3171993684856180e-04 -3.5777093852827594e-03 0.0000000000000000e+00  -1.9734502269889077e-02 -9.8433617165173293e-02 0.0000000000000000e+00  -1.8979070833796820e-02 -9.4589378687016418e-02 0.0000000000000000e+00  -1.0251923442475367e-02 -7.0755434901058664e-02 0.0000000000000000e+00  -8.9867218978318293e-03 -6.4711106339213328e-02 0.0000000000000000e+00  -6.4831727034288114e-03 -5.2850220764872960e-02 0.0000000000000000e+00  -1.1439890173731154e-02 -7.6820303621622107e-02 0.0000000000000000e+00  -7.7650116706320773e-03 -5.8750306732962443e-02 0.0000000000000000e+00  -5.3544680266825496e-03 -4.7146579464741677e-02 0.0000000000000000e+00  -5.1199647784885309e-03 -3.0600114677509404e-02 0.0000000000000000e+00  3.6713146585783623e-04 -7.9517817265303201e-03 0.0000000000000000e+00  -1.7598004355581089e-02 -8.8193009756159346e-02 0.0000000000000000e+00  -1.6681949282346412e-02 -8.4298939645380752e-02 0.0000000000000000e+00 