<?xml version="1.0"?>
<VTKFile type="UnstructuredGrid"  version="0.1"  >
<UnstructuredGrid>
<Piece  NumberOfPoints="439" NumberOfCells="725">
<Points>
<DataArray  type="Float64"  NumberOfComponents="3"  format="ascii">0.6 0.19 0  0.6 0.21 0  0.2489897949 0.21 0  0.2489897949 0.19 0  0.6 0.2 0  0.2496355385699469 0.2060260530378829 0  0.249959460510575 0.2020130349814059 0  0.2499594605105767 0.1979869650186357 0  0.24963553856995 0.1939739469621422 0  0.2539336006056293 0.21 0  0.2588774063112542 0.21 0  0.2638212120168921 0.21 0  0.26876501772253 0.21 0  0.2737088234281569 0.21 0  0.2786526291337753 0.21 0  0.2835964348393937 0.21 0  0.2885402405450166 0.21 0  0.2934840462506522 0.21 0  0.2984278519562708 0.21 0  0.3033716576618997 0.21 0  0.3083154633675181 0.21 0  0.3132592690731365 0.21 0  0.3182030747787549 0.21 0  0.3231468804843732 0.21 0  0.3280906861899917 0.21 0  0.3330344918956208 0.21 0  0.3379782976012284 0.21 0  0.3429221033068576 0.21 0  0.347865909012476 0.21 0  0.3528097147180944 0.21 0  0.3577535204237128 0.21 0  0.3626973261293311 0.21 0  0.3676411318349495 0.21 0  0.3725849375405788 0.21 0  0.3775287432461877 0.21 0  0.382472548951812 0.21 0  0.3874163546574338 0.21 0  0.3923601603630631 0.21 0  0.3973039660686706 0.21 0  0.4022477717742986 0.21 0  0.4071915774799107 0.21 0  0.4121353831855311 0.21 0  0.4170791888911518 0.21 0  0.4220229945967636 0.21 0  0.4269668003023918 0.21 0  0.4319106060080253 0.21 0  0.4368544117136773 0.21 0  0.4417982174193329 0.21 0  0.4467420231249967 0.21 0  0.4516858288306445 0.21 0  0.4566296345362864 0.21 0  0.461573440241916 0.21 0  0.4665172459475665 0.21 0  0.4714610516531998 0.21 0  0.4764048573588668 0.21 0  0.4813486630645134 0.21 0  0.486292468770176 0.21 0  0.4912362744758066 0.21 0  0.4961800801814611 0.21 0  0.5011238858870897 0.21 0  0.5060676915927493 0.21 0  0.5110114972983872 0.21 0  0.5159553030040036 0.21 0  0.5208991087096415 0.21 0  0.5258429144153002 0.21 0  0.5307867201209391 0.21 0  0.5357305258265987 0.21 0  0.5406743315322367 0.21 0  0.5456181372378529 0.21 0  0.5505619429434908 0.21 0  0.5555057486491456 0.21 0  0.5604495543547885 0.21 0  0.565393360060448 0.21 0  0.5703371657661116 0.21 0  0.5752809714717458 0.21 0  0.5802247771773834 0.21 0  0.5851685828830341 0.21 0  0.5901123885886809 0.21 0  0.5950561942943404 0.21 0  0.5950561942943833 0.19 0  0.590112388588758 0.19 0  0.5851685828831193 0.19 0  0.5802247771774727 0.19 0  0.5752809714718514 0.19 0  0.5703371657662308 0.19 0  0.565393360060618 0.19 0  0.5604495543549889 0.19 0  0.5555057486493581 0.19 0  0.5505619429437035 0.19 0  0.5456181372381043 0.19 0  0.540674331532505 0.19 0  0.5357305258268962 0.19 0  0.530786720121263 0.19 0  0.5258429144156628 0.19 0  0.5208991087100244 0.19 0  0.5159553030044218 0.19 0  0.5110114972988226 0.19 0  0.5060676915932177 0.19 0  0.5011238858875806 0.19 0  0.496180080181972 0.19 0  0.4912362744763531 0.19 0  0.4862924687707343 0.19 0  0.4813486630651046 0.19 0  0.4764048573594966 0.19 0  0.4714610516538683 0.19 0  0.4665172459482555 0.19 0  0.4615734402426349 0.19 0  0.4566296345370104 0.19 0  0.4516858288313808 0.19 0  0.4467420231257716 0.19 0  0.4417982174201465 0.19 0  0.4368544117145297 0.19 0  0.4319106060089131 0.19 0  0.4269668003032866 0.19 0  0.4220229945976482 0.19 0  0.4170791888920056 0.19 0  0.4121353831863594 0.19 0  0.4071915774806995 0.19 0  0.4022477717750478 0.19 0  0.3973039660693901 0.19 0  0.3923601603637548 0.19 0  0.3874163546581082 0.19 0  0.3824725489524824 0.19 0  0.3775287432468258 0.19 0  0.3725849375411773 0.19 0  0.3676411318355085 0.19 0  0.3626973261298614 0.19 0  0.3577535204242108 0.19 0  0.352809714718589 0.19 0  0.347865909012931 0.19 0  0.342922103307292 0.19 0  0.3379782976016536 0.19 0  0.3330344918960152 0.19 0  0.3280906861903751 0.19 0  0.3231468804847171 0.19 0  0.3182030747790592 0.19 0  0.3132592690734012 0.19 0  0.3083154633677581 0.19 0  0.3033716576621197 0.19 0  0.2984278519564813 0.19 0  0.2934840462508429 0.19 0  0.2885402405451874 0.19 0  0.2835964348395295 0.19 0  0.2786526291338716 0.19 0  0.2737088234282243 0.19 0  0.268765017722586 0.19 0  0.2638212120169476 0.19 0  0.2588774063113093 0.19 0  0.2539336006056579 0.19 0  0.6 0.1949999999999783 0  0.6 0.2049999999999729 0  0.2589734265316493 0.2005523893428403 0  0.5431462343853077 0.199999999999969 0  0.5682397894768162 0.1999704585808987 0  0.2774513927118024 0.2007941919421926 0  0.513849583376897 0.1999023426490919 0  0.5286810004937381 0.1999023426490969 0  0.2945108952057646 0.1992911908405386 0  0.5827780831384927 0.1995429801003349 0  0.3104128396569256 0.1999704585808978 0  0.3370001755418551 0.2008294612433967 0  0.4990181662600459 0.1999023426490902 0  0.3552816175709044 0.2000000000000608 0  0.4841867491431925 0.1999023426490849 0  0.3707373713905551 0.2000142376953689 0  0.3898882575102495 0.2000000000000828 0  0.4689857550492734 0.1995416724256694 0  0.4541577316841967 0.1999999999999098 0  0.4043534914018331 0.2000976573509244 0  0.4195510917439569 0.2000000000001057 0  0.4387019778644512 0.1999857623046772 0  0.3202472750256703 0.2000088842146399 0  0.5584053541080851 0.1999911157853577 0  0.4280667146887134 0.1998489048208241 0  0.3467659946265474 0.2001510951794375 0  0.3813726345658908 0.200151095179452 0  0.2860683376922098 0.2000415445706182 0  0.5911223811781194 0.1982449159348744 0  0.2679893161458627 0.201675125646729 0  0.4615734402426278 0.2022503633288003 0  0.4912362744763454 0.2022503633288091 0  0.5060676915931983 0.2022503633288118 0  0.3973039660686774 0.1977496366711965 0  0.4764048573594896 0.2022503633288051 0  0.5208991087100455 0.2022503633288184 0  0.4467420231257656 0.2022503633288 0  0.5357305258268849 0.2022503633288198 0  0.4121353831855317 0.1977496366711976 0  0.3626973261293352 0.1977496366711919 0  0.3033716576618961 0.1977496366711869 0  0.5752809714718229 0.1977496366711503 0  0.550459855919056 0.1971284784737667 0  0.3281927732146841 0.2028715215262406 0  0.5484179020497461 0.2038403215694763 0  0.3302347270839988 0.1961596784305491 0  0.5379210852238114 0.196125181664411 0  0.5230896681069652 0.1961251816644058 0  0.5082582509901222 0.1961251816644098 0  0.5774715308687094 0.2038748183355887 0  0.3011810982649548 0.2038748183355937 0  0.4785954167564111 0.196125181664404 0  0.4934268338732671 0.1961251816644063 0  0.395113406671763 0.2038748183355966 0  0.3605067667324117 0.2038748183355951 0  0.4593828808457146 0.1961251816643993 0  0.4489325825226805 0.1961251816644007 0  0.4099448237886219 0.2038748183355991 0  0.2557862999801971 0.1960858370257295 0  0.2550147360309399 0.2034426429991114 0  0.4348031476464689 0.2037737577641554 0  0.37463620160841 0.1962262422358553 0  0.3406258365864304 0.196046792193989 0  0.2813001681189834 0.1960467921940502 0  0.2912686387439893 0.1960816328649282 0  0.4246705335819892 0.2039532078059544 0  0.350162175732913 0.1960467921941878 0  0.3847688156722694 0.1960467921942359 0  0.316632368538356 0.19615945856337 0  0.5621550011053409 0.2037816492598991 0  0.5624413877019769 0.1960761923611377 0  0.3162395035833128 0.2038679557424692 0  0.2710887134207622 0.1959696443325838 0  0.5873014376403604 0.2047227881030823 0  0.4346679566442709 0.1954651459552513 0  0.4243296504077986 0.1958756980939062 0  0.3402559510833523 0.2047940500290923 0  0.2808684926760933 0.2047742417812656 0  0.2914077033138723 0.2047809517070955 0  0.3747713926104932 0.2045348540448554 0  0.3499216488898867 0.2051753413186305 0  0.3845282888292298 0.205175341318636 0  0.2648144865455052 0.1962089742986374 0  0.5943247643662894 0.2040415423589182 0  0.5320972610456145 0.1956445099050872 0  0.5172658439287727 0.1956445099050854 0  0.3069923255602658 0.2043468033872551 0  0.5024344268119265 0.1956445099050864 0  0.5716603035734351 0.2043468033872761 0  0.4876030096950741 0.1956445099050831 0  0.4728151975296263 0.1956402468909894 0  0.3663301776527538 0.20436745486386 0  0.4651631000724991 0.1956402468909893 0  0.4009372308499527 0.2043554900949198 0  0.4431091716023345 0.1956325451361429 0  0.4157593408842466 0.2043565497109067 0  0.5865057328865416 0.1956918868509067 0  0.5541600609760193 0.2044335994013721 0  0.3244925681577497 0.1955664005986376 0  0.272008018888917 0.2049327968152409 0  0.2633407725863902 0.2042483236346266 0  0.4567948413982566 0.2046536472831198 0  0.4167680012832803 0.1955060004091903 0  0.4716262585151221 0.2046536472831242 0  0.5161054367030595 0.2045563706470633 0  0.4864426024693469 0.2045563706470604 0  0.5012740195862044 0.2045563706470634 0  0.4022810343427545 0.1961423961483001 0  0.4420739040821668 0.2044853411424516 0  0.3673807293464664 0.1955677741328205 0  0.3925253672243162 0.195346352716901 0  0.5405091246712254 0.2046536472831267 0  0.357918727284983 0.1953463527168901 0  0.5307534575528717 0.2038576038516682 0  0.3079697655029555 0.1955637092892754 0  0.2985930588175599 0.1953463527168728 0  0.579671714346879 0.1955441268455555 0  0.5705023726275059 0.1953463527168462 0  0.5112451461103119 0.2035640580783926 0  0.4964137289934448 0.2035640580783915 0  0.4665727251511405 0.2038238154617746 0  0.5259274680675793 0.2038006696000127 0  0.4815823118765752 0.2035640580783898 0  0.4517504165552094 0.2039070625502732 0  0.4071070238280551 0.1961993303999926 0  0.3234846806957546 0.2047001437739977 0  0.5551679484379799 0.1952998562260008 0  0.5457754356464107 0.1954447171286166 0  0.3329307555206357 0.2046017509710421 0  0.4541577316841968 0.1960357661898101 0  0.3358300776141575 0.1950765652117375 0  0.2539718587514912 0.200011552766824 0  0.5826472073721517 0.2039971170156656 0  0.2761021761080182 0.1946948236183283 0  0.3898581462796225 0.2041572776584344 0  0.3552515063402743 0.2041572776584256 0  0.2965028074750666 0.2046578268138723 0  0.4299158836614793 0.1951782397873778 0  0.379426563923736 0.2049969334481307 0  0.2860882692072842 0.2042624797643994 0  0.3449948044168807 0.2051793676155613 0  0.2603922435707652 0.1950997711614917 0  0.5949856943860
[...]
<PointData  Vectors="f_18-1"> 
<DataArray  type="Float64"  Name="f_18-1"  NumberOfComponents="3" format="ascii">-2.1887272643507247e-02 -1.0286913010130326e-01 0.0000000000000000e+00  -1.4101463369292308e-02 -1.0444680033465752e-01 0.0000000000000000e+00  0.0000000000000000e+00 0.0000000000000000e+00 0.0000000000000000e+00  0.0000000000000000e+00 0.0000000000000000e+00 0.0000000000000000e+00  -1.7994359939821080e-02 -1.0365794129116328e-01 0.0000000000000000e+00  0.0000000000000000e+00 0.0000000000000000e+00 0.0000000000000000e+00  0.0000000000000000e+00 0.0000000000000000e+00 0.0000000000000000e+00  0.0000000000000000e+00 0.0000000000000000e+00 0.0000000000000000e+00  0.0000000000000000e+00 0.0000000000000000e+00 0.0000000000000000e+00  1.4536295737387853e-04 -1.2813060469584725e-04 0.0000000000000000e+00  3.0430946190535126e-04 -2.6953956749947348e-04 0.0000000000000000e+00  4.6045592696410126e-04 -4.5025262357201027e-04 0.0000000000000000e+00  6.0413920729308619e-04 -7.4995889167688750e-04 0.0000000000000000e+00  7.3611058414643597e-04 -1.1141953788046523e-03 0.0000000000000000e+00  8.6787951131710357e-04 -1.5694657092700898e-03 0.0000000000000000e+00  9.8038390371388306e-04 -2.0717030532854046e-03 0.0000000000000000e+00  1.0717929829253765e-03 -2.6557480769954667e-03 0.0000000000000000e+00  1.1572468473321185e-03 -3.3046009129508091e-03 0.0000000000000000e+00  1.2260183192860312e-03 -4.0172412538711363e-03 0.0000000000000000e+00  1.2901624368259978e-03 -4.8158152439331638e-03 0.0000000000000000e+00  1.3508153967217054e-03 -5.6283109632073594e-03 0.0000000000000000e+00  1.3776756139645858e-03 -6.5341223703026044e-03 0.0000000000000000e+00  1.4151241348586991e-03 -7.4922818091317745e-03 0.0000000000000000e+00  1.4178555675517120e-03 -8.4940756558153797e-03 0.0000000000000000e+00  1.4121586674481338e-03 -9.5633065187491761e-03 0.0000000000000000e+00  1.3914319306302511e-03 -1.0670251996550842e-02 0.0000000000000000e+00  1.3518221419124049e-03 -1.1841126746480362e-02 0.0000000000000000e+00  1.2959799066336224e-03 -1.3037299966874456e-02 0.0000000000000000e+00  1.2259523523320210e-03 -1.4287524809237269e-02 0.0000000000000000e+00  1.1399111365576668e-03 -1.5574244445717450e-02 0.0000000000000000e+00  1.0371086305884017e-03 -1.6896458842074347e-02 0.0000000000000000e+00  9.2492246280522850e-04 -1.8278399560754166e-02 0.0000000000000000e+00  8.0990017257441419e-04 -1.9668862937693394e-02 0.0000000000000000e+00  6.7076382083107596e-04 -2.1110497098151874e-02 0.0000000000000000e+00  5.1880978977906936e-04 -2.2572687461874606e-02 0.0000000000000000e+00  3.5378170462274812e-04 -2.4073218919796774e-02 0.0000000000000000e+00  1.7577512558004734e-04 -2.5600707245397421e-02 0.0000000000000000e+00  -1.6679372776787324e-05 -2.7153170416303562e-02 0.0000000000000000e+00  -2.1846561667389930e-04 -2.8748256360940475e-02 0.0000000000000000e+00  -4.2236354481291579e-04 -3.0347223710552838e-02 0.0000000000000000e+00  -6.4956126666723798e-04 -3.1980811389900159e-02 0.0000000000000000e+00  -8.8486253416332234e-04 -3.3643003839033188e-02 0.0000000000000000e+00  -1.1233225929635248e-03 -3.5311576300110642e-02 0.0000000000000000e+00  -1.3812730108827365e-03 -3.7010200885741029e-02 0.0000000000000000e+00  -1.6395429614841364e-03 -3.8725143339197791e-02 0.0000000000000000e+00  -1.9137593266235137e-03 -4.0456771292047694e-02 0.0000000000000000e+00  -2.1911271848146620e-03 -4.2209885453705319e-02 0.0000000000000000e+00  -2.4805424258139259e-03 -4.3973515149926458e-02 0.0000000000000000e+00  -2.7787963231745601e-03 -4.5754693814267694e-02 0.0000000000000000e+00  -3.0816121516988497e-03 -4.7548473418495482e-02 0.0000000000000000e+00  -3.3910105911286047e-03 -4.9356451913749516e-02 0.0000000000000000e+00  -3.7101379344567698e-03 -5.1176235254620797e-02 0.0000000000000000e+00  -4.0329402426832195e-03 -5.3006693911620238e-02 0.0000000000000000e+00  -4.3618086409442924e-03 -5.4849141337312099e-02 0.0000000000000000e+00  -4.6988051817841306e-03 -5.6701179178912778e-02 0.0000000000000000e+00  -5.0395260212633885e-03 -5.8561641921122273e-02 0.0000000000000000e+00  -5.3853348564348686e-03 -6.0431683151150904e-02 0.0000000000000000e+00  -5.7374528545138222e-03 -6.2308635099371713e-02 0.0000000000000000e+00  -6.0927041737760109e-03 -6.4192042722411025e-02 0.0000000000000000e+00  -6.4520388306908609e-03 -6.6082623272560301e-02 0.0000000000000000e+00  -6.8163424302954074e-03 -6.7978349816172776e-02 0.0000000000000000e+00  -7.1831500997670307e-03 -6.9878682773311981e-02 0.0000000000000000e+00  -7.5532046575952656e-03 -7.1784126999890091e-02 0.0000000000000000e+00  -7.9269781616240279e-03 -7.3693037410157300e-02 0.0000000000000000e+00  -8.3025045207802996e-03 -7.5605191170764099e-02 0.0000000000000000e+00  -8.6804667837595793e-03 -7.7520586713687362e-02 0.0000000000000000e+00  -9.0608366129031181e-03 -7.9438225859873812e-02 0.0000000000000000e+00  -9.4431701904367504e-03 -8.1357456001042536e-02 0.0000000000000000e+00  -9.8274225328098888e-03 -8.3278578349796226e-02 0.0000000000000000e+00  -1.0212886569593710e-02 -8.5201274053103113e-02 0.0000000000000000e+00  -1.0598794994638970e-02 -8.7124090760664047e-02 0.0000000000000000e+00  -1.0986299032671081e-02 -8.9048232748019193e-02 0.0000000000000000e+00  -1.1374174392416194e-02 -9.0972837048236582e-02 0.0000000000000000e+00  -1.1762876892666942e-02 -9.2897595233809277e-02 0.0000000000000000e+00  -1.2152183768733386e-02 -9.4822656092808932e-02 0.0000000000000000e+00  -1.2541697343369006e-02 -9.6747633124256729e-02 0.0000000000000000e+00  -1.2931527608327205e-02 -9.8672577483571416e-02 0.0000000000000000e+00  -1.3321487185310371e-02 -1.0059746709536800e-01 0.0000000000000000e+00  -1.3711459060321979e-02 -1.0252215955138079e-01 0.0000000000000000e+00  -2.1497264317522715e-02 -1.0094449653337333e-01 0.0000000000000000e+00  -2.1107203925693700e-02 -9.9019784536497374e-02 0.0000000000000000e+00  -2.0717049437836300e-02 -9.7094999684876851e-02 0.0000000000000000e+00  -2.0326734462884029e-02 -9.5170195388407750e-02 0.0000000000000000e+00  -1.9936295657460412e-02 -9.3245541795071940e-02 0.0000000000000000e+00  -1.9545629983797767e-02 -9.1320994337322686e-02 0.0000000000000000e+00  -1.9154780034251990e-02 -8.9397042847680408e-02 0.0000000000000000e+00  -1.8763552335165884e-02 -8.7473809896904550e-02 0.0000000000000000e+00  -1.8372356219539983e-02 -8.5551148281417480e-02 0.0000000000000000e+00  -1.7980992302477367e-02 -8.3630101183941929e-02 0.0000000000000000e+00  -1.7589393739894005e-02 -8.1710042774632730e-02 0.0000000000000000e+00  -1.7198286025758652e-02 -7.9792098629942576e-02 0.0000000000000000e+00  -1.6807086111587925e-02 -7.7877185603844726e-02 0.0000000000000000e+00  -1.6415282430686119e-02 -7.5963190687052345e-02 0.0000000000000000e+00  -1.6024734030724911e-02 -7.4053170718521327e-02 0.0000000000000000e+00  -1.5634275825477703e-02 -7.2148289867501533e-02 0.0000000000000000e+00  -1.5243216078522919e-02 -7.0244917945518986e-02 0.0000000000000000e+00  -1.4854666918584041e-02 -6.8347619538342744e-02 0.0000000000000000e+00  -1.4466411694551772e-02 -6.6457616496355357e-02 0.0000000000000000e+00  -1.4077489594128705e-02 -6.4569732148883729e-02 0.0000000000000000e+00  -1.3692461043782269e-02 -6.2690408979086940e-02 0.0000000000000000e+00  -1.3308076653823163e-02 -6.0820953279248580e-02 0.0000000000000000e+00  -1.2922990842505307e-02 -5.8954284963831496e-02 0.0000000000000000e+00  -1.2543400892536354e-02 -5.7098920760381193e-02 0.0000000000000000e+00  -1.2164828447506779e-02 -5.5256498473403082e-02 0.0000000000000000e+00  -1.1786135432493976e-02 -5.3418891519452824e-02 0.0000000000000000e+00  -1.1412413211867029e-02 -5.1593826396856640e-02 0.0000000000000000e+00  -1.1041140305760998e-02 -4.9785589571873595e-02 0.0000000000000000e+00  -1.0670186533149132e-02 -4.7980589376472260e-02 0.0000000000000000e+00  -1.0308779493654259e-02 -4.6192789377305768e-02 0.0000000000000000e+00  -9.9478555768609204e-03 -4.4427011695119076e-02 0.0000000000000000e+00  -9.5863817010390564e-03 -4.2666483518635993e-02 0.0000000000000000e+00  -9.2334262944212733e-03 -4.0928082838512528e-02 0.0000000000000000e+00  -8.8850796518286455e-03 -3.9200938881044284e-02 0.0000000000000000e+00  -8.5410315232771050e-03 -3.7493353445728989e-02 0.0000000000000000e+00  -8.2051339490547721e-03 -3.5809715838543997e-02 0.0000000000000000e+00  -7.8670131488752047e-03 -3.4140509656223665e-02 0.0000000000000000e+00  -7.5386809190388588e-03 -3.2495557857456170e-02 0.0000000000000000e+00  -7.2116164426106466e-03 -3.0872636193861675e-02 0.0000000000000000e+00  -6.8886079939084162e-03 -2.9275404607657856e-02 0.0000000000000000e+00  -6.5737006832704125e-03 -2.7705061751702287e-02 0.0000000000000000e+00  -6.2692381117247665e-03 -2.6154123852366092e-02 0.0000000000000000e+00  -5.9729817241884137e-03 -2.4634208364916033e-02 0.0000000000000000e+00  -5.6683061651061619e-03 -2.3139852502759302e-02 0.0000000000000000e+00  -5.3834319477174411e-03 -2.1678942445894266e-02 0.0000000000000000e+00  -5.0937622565332729e-03 -2.0256611560092806e-02 0.0000000000000000e+00  -4.8206612486100496e-03 -1.8858868819474187e-02 0.0000000000000000e+00  -4.5518269346368524e-03 -1.7505385896681894e-02 0.0000000000000000e+00  -4.2948026352701138e-03 -1.6177305040291780e-02 0.0000000000000000e+00  -4.0475927545349051e-03 -1.4892414458921265e-02 0.0000000000000000e+00  -3.7875294756630532e-03 -1.3640972102007218e-02 0.0000000000000000e+00  -3.5522059218676084e-03 -1.2433446427783537e-02 0.0000000000000000e+00  -3.3067700499296079e-03 -1.1278588876088222e-02 0.0000000000000000e+00  -3.0882068416590129e-03 -1.0159979462179320e-02 0.0000000000000000e+00  -2.8726440179747664e-03 -9.1092847213617833e-03 0.0000000000000000e+00  -2.6532099920415796e-03 -8.0742750401137410e-03 0.0000000000000000e+00  -2.4530279558737564e-03 -7.1119514433031720e-03 0.0000000000000000e+00  -2.2337313158872904e-03 -6.2012165842684312e-03 0.0000000000000000e+00  -2.0441187069022613e-03 -5.3386108841727269e-03 0.0000000000000000e+00  -1.8554338977849415e-03 -4.5508390343516666e-03 0.0000000000000000e+00  -1.6770151504614170e-03 -3.8040855161172514e-03 0.0000000000000000e+00  -1.5068924863920886e-03 -3.1300219024521822e-03 0.0000000000000000e+00  -1.3172981358371989e-03 -2.5066632449599530e-03 0.0000000000000000e+00  -1.1591263790628489e-03 -1.9505316522053138e-03 0.0000000000000000e+00  -9.7698551852116230e-04 -1.4629322066479667e-03 0.0000000000000000e+00  -8.1908424283101558e-04 -1.0567337649818632e-03 0.0000000000000000e+00  -6.4018673029987033e-04 -7.2077636334451475e-04 0.0000000000000000e+00  -4.7838069536369825e-04 -4.3710714648083164e-04 0.0000000000000000e+00  -3.1932035974667451e-04 -2.3829578720710565e-04 0.0000000000000000e+00  -1.5880733385265593e-04 -1.3601280002494839e-04 0.0000000000000000e+00  -1.9940791412231623e-02 -1.0326355153096124e-01 0.0000000000000000e+00  -1.6047935090507850e-02 -1.0405235300719481e-01 0.0000000000000000e+00  1.4835294723374437e-05 -1.3259744078876202e-04 0.0000000000000000e+00  -1.3513690583082686e-02 -8.1531823116937477e-02 0.0000000000000000e+00  -1.5500026516727078e-02 -9.1289838749428864e-02 0.0000000000000000e+00  1.6464649586708978e-05 -1.3018933310705301e-03 0.0000000000000000e+00  -1.1271507927923672e-02 -7.0190279979698039e-02 0.0000000000000000e+00  -1.2420109196542389e-02 -7.5914989667144758e-02 0.0000000000000000e+00  -2.5932361962665153e-04 -3.2569110492790144e-03 0.0000000000000000e+00  -1.6813466129436690e-02 -9.6916838712708550e-02 0.0000000000000000e+00  -3.6743074375586627e-04 -5.7729358167605428e-03 0.0000000000000000e+00  -7.5422723371667188e-04 -1.1283829937382417e-02 0.0000000000000000e+00  -1.0139783788679904e-02 -6.4506367172371654e-02 0.0000000000000000e+00  -1.5211319844877767e-03 -1.5832723169506294e-02 0.0000000000000000e+00  -9.0316718141992408e-03 -5.8879795549120789e-02 0.0000000000000000e+00  -2.1179136831802757e-03 -2.0095696053397737e-02 0.0000000000000000e+00  -3.0036345627882342e-03 -2.5848803929143318e-02 0.0000000000000000e+00  -8.0612078212967224e-03 -5.3166029440565206e-02 0.0000000000000000e+00  -6.8558288798955301e-03 -4.7751778913321358e-02 0.0000000000000000e+00  -3.7281853182939396e-03 -3.0468400341493281e-02 0.0000000000000000e+00  -4.6307735918959371e-03 -3.5536274907567673e-02 0.0000000000000000e+00  -5.8293528225343526e-03 -4.2194854307593524e-02 0.0000000000000000e+00  -5.3723884477305999e-04 -7.6232740272169103e-03 0.0000000000000000e+00  -1.4716658053867614e-02 -8.7463498523760938e-02 0.0000000000000000e+00  -5.2003454421612940e-03 -3.8456679858855140e-02 0.0000000000000000e+00  -1.1994234508461445e-03 -1.3634491578553259e-02 0.0000000000000000e+00  -2.5498063780654478e-03 -2.3240230079638154e-02 0.0000000000000000e+00  -9.9684089952360112e-05 -2.2161538815618958e-03 0.0000000000000000e+00  -1.7977203289358683e-02 -1.0006334353158670e-01 0.0000000000000000e+00  7.6782927368837089e-05 -5.8066856515851418e-04 0.0000000000000000e+00  -6.5443904599335155e-03 -5.0619914012005392e-02 0.0000000000000000e+00  -8.6671335780224464e-03 -6.1721533373028360e-02 0.0000000000000000e+00  -9.7778480849456569e-03 -6.7381129324369043e-02 0.0000000000000000e+00  -4.0982364698356451e-03 -2.8072635164104277e-02 0.0000000000000000e+00  -7.5865148265541480e-03 -5.6127604355540907e-02 0.0000000000000000e+00  -1.0911526957136148e-02 -7.3088911123330838e-02 0.0000000000000000e+00  -5.5497165044824225e-03 -4.5219353411084975e-02 0.0000000000000000e+00  -1.2061561414480346e-02 -7.8829736068383241e-02 0.0000000000000000e+00  -4.9458561914121988e-03 -3.2911461559830199e-02 0.0000000000000000e+00  -2.4150962511622362e-03 -1.7752915116364437e-02 0.0000000000000000e+00  -6.1651320807079352e-04 -4.5706418660552452e-03 0.0000000000000000e+00  -1.6919732621788006e-02 -9.3856269438243378e-02 0.0000000000000000e+00  -1.5203096315645990e-02 -8.4148555868916453e-02 0.0000000000000000e+00  -1.0703636122128530e-04 -9.3527299222975636e-03 0.0000000000000000e+00  -1.2436819640921038e-02 -8.3881886729960900e-02 0.0000000000000000e+00  -1.6044320384128717e-03 -9.6495591090409571e-03 0.0000000000000000e+00  -1.4605139055544263e-02 -7.9201405936399363e-02 0.0000000000000000e+00  -1.3441637327875277e-02 -7.3461645252575258e-02 0.0000000000000000e+00  -1.2288177063815338e-02 -6.7755242701753038e-02 0.0000000000000000e+00  -1.4708881701438310e-02 -9.5192130007754380e-02 0.0000000000000000e+00  3.5738228474275460e-04 -4.3067387201342604e-03 0.0000000000000000e+00  -1.0033446061077575e-02 -5.6505579843791232e-02 0.0000000000000000e+00  -1.1149995431271462e-02 -6.2097311199387301e-02 0.0000000000000000e+00  -2.0462613300611266e-03 -2.7693656610310854e-02 0.0000000000000000e+00  -6.6405254253654601e-04 -1.7388449543216979e-02 0.0000000000000000e+00  -8.6338364180359485e-03 -4.9392692409415483e-02 0.0000000000000000e+00  -7.8927416218590105e-03 -4.5601604064401530e-02 0.0000000000000000e+00  -2.7912517283346949e-03 -3.2530503088222661e-02 0.0000000000000000e+00  -6.9961224293439199e-05 -5.7045199153713310e-05 0.0000000000000000e+00  4.9840570775315904e-05 -4.4197562497538989e-05 0.0000000000000000e+00  -4.2537299450772920e-03 -4.1061951436169385e-02 0.0000000000000000e+00  -3.3920107676699506e-03 -2.1071556742764817e-02 0.0000000000000000e+00  -1.9896185245367433e-03 -1.2016069895122931e-02 0.0000000000000000e+00  -4.6309868837423116e-04 -1.6720864507511967e-03 0.0000000000000000e+00  -6.2456994082687599e-04 -2.8173371974146121e-03 0.0000000000000000e+00  -3.5877129759275526e-03 -3.7537612995841088e-02 0.0000000000000000e+00  -2.3472112700772263e-03 -1.4368683714963776e-02 0.0000000000000000e+00  -3.9543092646666432e-03 -2.4082721534995313e-02 0.0000000000000000e+00  -1.1941004747361263e-03 -6.8630709033268011e-03 0.0000000000000000e+00  -1.3538146547357447e-02 -8.9221383300967461e-02 0.0000000000000000e+00  -1.6557379183542578e-02 -8.8726178176865345e-02 0.0000000000000000e+00  2.5526425151009015e-04 -6.9256368225191706e-03 0.0000000000000000e+00  -3.1954743475565985e-04 -7.9899425801826791e-04 0.0000000000000000e+00  -1.5154119354519401e-02 -9.9086656850327151e-02 0.0000000000000000e+00  -7.1561528839957566e-03 -4.0489873301884971e-02 0.0000000000000000e+00  -6.3337897522129467e-03 -3.6927571209409170e-02 0.0000000000000000e+00  9.8155276947863403e-05 -1.2185487203673609e-02 0.0000000000000000e+00  3.9987158995110717e-04 -1.6799413880020234e-03 0.0000000000000000e+00  4.6886948745680936e-04 -2.9151955114629122e-03 0.0000000000000000e+00  -9.7897927557127266e-04 -2.1475840868972695e-02 0.0000000000000000e+00  -2.9306755180946348e-05 -1.4620583097140673e-02 0.0000000000000000e+00  -1.1775217097300932e-03 -2.4449317042191162e-02 0.0000000000000000e+00  -1.9941161552112220e-04 -4.1854193920659778e-04 0.0000000000000000e+00  -1.5973337305117540e-02 -1.0176734736726797e-01 0.0000000000000000e+00  -1.4333973783076171e-02 -7.6907293535934659e-02 0.0000000000000000e+00  -1.3173259490573217e-02 -7.1179534019123511e-02 0.0000000000000000e+00  4.0354865769599206e-04 -5.2648691371216839e-03 0.0000000000000000e+00  -1.2024006440662051e-02 -6.5490938891054076e-02 0.0000000000000000e+00  -1.4067064945568006e-02 -9.2966624888346797e-02 0.0000000000000000e+00  -1.0891922496814458e-02 -5.9857700505284495e-02 0.0000000000000000e+00  -9.7880657039169008e-03 -5.4314181681243356e-02 0.0000000000000000e+00  -7.2836662569445495e-04 -1.9029949916865057e-02 0.0000000000000000e+00  -9.2261898956060486e-03 -5.1481617085101052e-02 0.0000000000000000e+00  -2.1796714373854289e-03 -2.9591917559657906e-02 0.0000000000000000e+00  -7.6707750846366175e-03 -4.3484225967718448e-02 0.0000000000000000e+00  -2.9477173925581647e-03 -3.4512928268218168e-02 0.0000000000000000e+00  -1.8606736086287264e-02 -9.8064533688667230e-02 0.0000000000000000e+00  -1.2656591236187639e-02 -8.6161452221469217e-02 0.0000000000000000e+00  -1.5480351770484325e-03 -8.4136031884066986e-03 0.0000000000000000e+00  3.2395651163039259e-04 -8.8193560012146644e-04 0.0000000000000000e+00  1.7456409089924965e-04 -3.3755131574427828e-04 0.0000000000000000e+00  -5.3452087475060932e-03 -4.9034491287008958e-02 0.0000000000000000e+00  -5.9800624118853899e-03 -3.4338607577536394e-02 0.0000000000000000e+00  -6.3551148386010370e-03 -5.4516239654618201e-02 0.0000000000000000e+00  -9.6567850034238213e-03 -7.1417985465333580e-02 0.0000000000000000e+00  -7.4457884203062916e-03 -6.0077075690429561e-02 0.0000000000000000e+00  -8.5373250919841374e-03 -6.5721222750871583e-02 0.0000000000000000e+00  -4.8957992820234672e-03 -2.9586722749568504e-02 0.0000000000000000e+00  -4.4534864574609758e-03 -4.3694232926625151e-02 0.0000000000000000e+00  -3.2315843062357377e-03 -1.8974176918358950e-02 0.0000000000000000e+00  -4.5915392117895585e-03 -2.6448413843457644e-02 0.0000000000000000e+00  -1.1503269472362253e-02 -8.0872521832621072e-02 0.0000000000000000e+00  -2.8577369786205965e-03 -1.6378545854711421e-02 0.0000000000000000e+00  -1.1052809582384351e-02 -7.7025686356059955e-02 0.0000000000000000e+00  -1.0797535395420375e-03 -5.3065501309049450e-03 0.0000000000000000e+00  -8.8711988032492560e-04 -3.8207241817176580e-03 0.0000000000000000e+00  -1.8124831426228907e-02 -9.5391991793809805e-02 0.0000000000000000e+00  -1.7477725693946240e-02 -9.1806477175989609e-02 0.0000000000000000e+00  -9.6672411333406788e-03 -6.9469778888206574e-02 0.0000000000000000e+00  -8.5523223793730410e-03 -6.3789592527300293e-02 0.0000000000000000e+00  -6.3098610160458000e-03 -5.2577720253563824e-02 0.0000000000000000e+00  -1.0701301664220305e-02 -7.5152706803105734e-02 0.0000000000000000e+00  -7.4666034525821398e-03 -5.8168194492755405e-02 0.0000000000000000e+00  -5.2805358743182856e-03 -4.7144012037009048e-02 0.0000000000000000e+00  -5.1591434868246957e-03 -3.1161103391022630e-02 0.0000000000000000e+00  3.4365082979321215e-04 -8.3995163788732983e-03 0.0000000000000000e+00  -1.6284927254573152e-02 -8.5835672173236191e-02 0.0000000000000000e+00  -1.5487760097503137e-02 -8.2196607699240115e-02 0.0000000000000000e+0