<?xml version="1.0"?>
<VTKFile type="UnstructuredGrid"  version="0.1"  >
<UnstructuredGrid>
<Piece  NumberOfPoints="439" NumberOfCells="725">
<Points>
<DataArray  type="Float64"  NumberOfComponents="3"  format="ascii">0.6 0.19 0  0.6 0.21 0  0.2489897949 0.21 0  0.2489897949 0.19 0  0.6 0.2 0  0.2496355385699469 0.2060260530378829 0  0.249959460510575 0.2020130349814059 0  0.2499594605105767 0.1979869650186357 0  0.24963553856995 0.1939739469621422 0  0.2539336006056293 0.21 0  0.2588774063112542 0.21 0  0.2638212120168921 0.21 0  0.26876501772253 0.21 0  0.2737088234281569 0.21 0  0.2786526291337753 0.21 0  0.2835964348393937 0.21 0  0.2885402405450166 0.21 0  0.2934840462506522 0.21 0  0.2984278519562708 0.21 0  0.3033716576618997 0.21 0  0.3083154633675181 0.21 0  0.3132592690731365 0.21 0  0.3182030747787549 0.21 0  0.3231468804843732 0.21 0  0.3280906861899917 0.21 0  0.3330344918956208 0.21 0  0.3379782976012284 0.21 0  0.3429221033068576 0.21 0  0.347865909012476 0.21 0  0.3528097147180944 0.21 0  0.3577535204237128 0.21 0  0.3626973261293311 0.21 0  0.3676411318349495 0.21 0  0.3725849375405788 0.21 0  0.3775287432461877 0.21 0  0.382472548951812 0.21 0  0.3874163546574338 0.21 0  0.3923601603630631 0.21 0  0.3973039660686706 0.21 0  0.4022477717742986 0.21 0  0.4071915774799107 0.21 0  0.4121353831855311 0.21 0  0.4170791888911518 0.21 0  0.4220229945967636 0.21 0  0.4269668003023918 0.21 0  0.4319106060080253 0.21 0  0.4368544117136773 0.21 0  0.4417982174193329 0.21 0  0.4467420231249967 0.21 0  0.4516858288306445 0.21 0  0.4566296345362864 0.21 0  0.461573440241916 0.21 0  0.4665172459475665 0.21 0  0.4714610516531998 0.21 0  0.4764048573588668 0.21 0  0.4813486630645134 0.21 0  0.486292468770176 0.21 0  0.4912362744758066 0.21 0  0.4961800801814611 0.21 0  0.5011238858870897 0.21 0  0.5060676915927493 0.21 0  0.5110114972983872 0.21 0  0.5159553030040036 0.21 0  0.5208991087096415 0.21 0  0.5258429144153002 0.21 0  0.5307867201209391 0.21 0  0.5357305258265987 0.21 0  0.5406743315322367 0.21 0  0.5456181372378529 0.21 0  0.5505619429434908 0.21 0  0.5555057486491456 0.21 0  0.5604495543547885 0.21 0  0.565393360060448 0.21 0  0.5703371657661116 0.21 0  0.5752809714717458 0.21 0  0.5802247771773834 0.21 0  0.5851685828830341 0.21 0  0.5901123885886809 0.21 0  0.5950561942943404 0.21 0  0.5950561942943833 0.19 0  0.590112388588758 0.19 0  0.5851685828831193 0.19 0  0.5802247771774727 0.19 0  0.5752809714718514 0.19 0  0.5703371657662308 0.19 0  0.565393360060618 0.19 0  0.5604495543549889 0.19 0  0.5555057486493581 0.19 0  0.5505619429437035 0.19 0  0.5456181372381043 0.19 0  0.540674331532505 0.19 0  0.5357305258268962 0.19 0  0.530786720121263 0.19 0  0.5258429144156628 0.19 0  0.5208991087100244 0.19 0  0.5159553030044218 0.19 0  0.5110114972988226 0.19 0  0.5060676915932177 0.19 0  0.5011238858875806 0.19 0  0.496180080181972 0.19 0  0.4912362744763531 0.19 0  0.4862924687707343 0.19 0  0.4813486630651046 0.19 0  0.4764048573594966 0.19 0  0.4714610516538683 0.19 0  0.4665172459482555 0.19 0  0.4615734402426349 0.19 0  0.4566296345370104 0.19 0  0.4516858288313808 0.19 0  0.4467420231257716 0.19 0  0.4417982174201465 0.19 0  0.4368544117145297 0.19 0  0.4319106060089131 0.19 0  0.4269668003032866 0.19 0  0.4220229945976482 0.19 0  0.4170791888920056 0.19 0  0.4121353831863594 0.19 0  0.4071915774806995 0.19 0  0.4022477717750478 0.19 0  0.3973039660693901 0.19 0  0.3923601603637548 0.19 0  0.3874163546581082 0.19 0  0.3824725489524824 0.19 0  0.3775287432468258 0.19 0  0.3725849375411773 0.19 0  0.3676411318355085 0.19 0  0.3626973261298614 0.19 0  0.3577535204242108 0.19 0  0.352809714718589 0.19 0  0.347865909012931 0.19 0  0.342922103307292 0.19 0  0.3379782976016536 0.19 0  0.3330344918960152 0.19 0  0.3280906861903751 0.19 0  0.3231468804847171 0.19 0  0.3182030747790592 0.19 0  0.3132592690734012 0.19 0  0.3083154633677581 0.19 0  0.3033716576621197 0.19 0  0.2984278519564813 0.19 0  0.2934840462508429 0.19 0  0.2885402405451874 0.19 0  0.2835964348395295 0.19 0  0.2786526291338716 0.19 0  0.2737088234282243 0.19 0  0.268765017722586 0.19 0  0.2638212120169476 0.19 0  0.2588774063113093 0.19 0  0.2539336006056579 0.19 0  0.6 0.1949999999999783 0  0.6 0.2049999999999729 0  0.2589734265316493 0.2005523893428403 0  0.5431462343853077 0.199999999999969 0  0.5682397894768162 0.1999704585808987 0  0.2774513927118024 0.2007941919421926 0  0.513849583376897 0.1999023426490919 0  0.5286810004937381 0.1999023426490969 0  0.2945108952057646 0.1992911908405386 0  0.5827780831384927 0.1995429801003349 0  0.3104128396569256 0.1999704585808978 0  0.3370001755418551 0.2008294612433967 0  0.4990181662600459 0.1999023426490902 0  0.3552816175709044 0.2000000000000608 0  0.4841867491431925 0.1999023426490849 0  0.3707373713905551 0.2000142376953689 0  0.3898882575102495 0.2000000000000828 0  0.4689857550492734 0.1995416724256694 0  0.4541577316841967 0.1999999999999098 0  0.4043534914018331 0.2000976573509244 0  0.4195510917439569 0.2000000000001057 0  0.4387019778644512 0.1999857623046772 0  0.3202472750256703 0.2000088842146399 0  0.5584053541080851 0.1999911157853577 0  0.4280667146887134 0.1998489048208241 0  0.3467659946265474 0.2001510951794375 0  0.3813726345658908 0.200151095179452 0  0.2860683376922098 0.2000415445706182 0  0.5911223811781194 0.1982449159348744 0  0.2679893161458627 0.201675125646729 0  0.4615734402426278 0.2022503633288003 0  0.4912362744763454 0.2022503633288091 0  0.5060676915931983 0.2022503633288118 0  0.3973039660686774 0.1977496366711965 0  0.4764048573594896 0.2022503633288051 0  0.5208991087100455 0.2022503633288184 0  0.4467420231257656 0.2022503633288 0  0.5357305258268849 0.2022503633288198 0  0.4121353831855317 0.1977496366711976 0  0.3626973261293352 0.1977496366711919 0  0.3033716576618961 0.1977496366711869 0  0.5752809714718229 0.1977496366711503 0  0.550459855919056 0.1971284784737667 0  0.3281927732146841 0.2028715215262406 0  0.5484179020497461 0.2038403215694763 0  0.3302347270839988 0.1961596784305491 0  0.5379210852238114 0.196125181664411 0  0.5230896681069652 0.1961251816644058 0  0.5082582509901222 0.1961251816644098 0  0.5774715308687094 0.2038748183355887 0  0.3011810982649548 0.2038748183355937 0  0.4785954167564111 0.196125181664404 0  0.4934268338732671 0.1961251816644063 0  0.395113406671763 0.2038748183355966 0  0.3605067667324117 0.2038748183355951 0  0.4593828808457146 0.1961251816643993 0  0.4489325825226805 0.1961251816644007 0  0.4099448237886219 0.2038748183355991 0  0.2557862999801971 0.1960858370257295 0  0.2550147360309399 0.2034426429991114 0  0.4348031476464689 0.2037737577641554 0  0.37463620160841 0.1962262422358553 0  0.3406258365864304 0.196046792193989 0  0.2813001681189834 0.1960467921940502 0  0.2912686387439893 0.1960816328649282 0  0.4246705335819892 0.2039532078059544 0  0.350162175732913 0.1960467921941878 0  0.3847688156722694 0.1960467921942359 0  0.316632368538356 0.19615945856337 0  0.5621550011053409 0.2037816492598991 0  0.5624413877019769 0.1960761923611377 0  0.3162395035833128 0.2038679557424692 0  0.2710887134207622 0.1959696443325838 0  0.5873014376403604 0.2047227881030823 0  0.4346679566442709 0.1954651459552513 0  0.4243296504077986 0.1958756980939062 0  0.3402559510833523 0.2047940500290923 0  0.2808684926760933 0.2047742417812656 0  0.2914077033138723 0.2047809517070955 0  0.3747713926104932 0.2045348540448554 0  0.3499216488898867 0.2051753413186305 0  0.3845282888292298 0.205175341318636 0  0.2648144865455052 0.1962089742986374 0  0.5943247643662894 0.2040415423589182 0  0.5320972610456145 0.1956445099050872 0  0.5172658439287727 0.1956445099050854 0  0.3069923255602658 0.2043468033872551 0  0.5024344268119265 0.1956445099050864 0  0.5716603035734351 0.2043468033872761 0  0.4876030096950741 0.1956445099050831 0  0.4728151975296263 0.1956402468909894 0  0.3663301776527538 0.20436745486386 0  0.4651631000724991 0.1956402468909893 0  0.4009372308499527 0.2043554900949198 0  0.4431091716023345 0.1956325451361429 0  0.4157593408842466 0.2043565497109067 0  0.5865057328865416 0.1956918868509067 0  0.5541600609760193 0.2044335994013721 0  0.3244925681577497 0.1955664005986376 0  0.272008018888917 0.2049327968152409 0  0.2633407725863902 0.2042483236346266 0  0.4567948413982566 0.2046536472831198 0  0.4167680012832803 0.1955060004091903 0  0.4716262585151221 0.2046536472831242 0  0.5161054367030595 0.2045563706470633 0  0.4864426024693469 0.2045563706470604 0  0.5012740195862044 0.2045563706470634 0  0.4022810343427545 0.1961423961483001 0  0.4420739040821668 0.2044853411424516 0  0.3673807293464664 0.1955677741328205 0  0.3925253672243162 0.195346352716901 0  0.5405091246712254 0.2046536472831267 0  0.357918727284983 0.1953463527168901 0  0.5307534575528717 0.2038576038516682 0  0.3079697655029555 0.1955637092892754 0  0.2985930588175599 0.1953463527168728 0  0.579671714346879 0.1955441268455555 0  0.5705023726275059 0.1953463527168462 0  0.5112451461103119 0.2035640580783926 0  0.4964137289934448 0.2035640580783915 0  0.4665727251511405 0.2038238154617746 0  0.5259274680675793 0.2038006696000127 0  0.4815823118765752 0.2035640580783898 0  0.4517504165552094 0.2039070625502732 0  0.4071070238280551 0.1961993303999926 0  0.3234846806957546 0.2047001437739977 0  0.5551679484379799 0.1952998562260008 0  0.5457754356464107 0.1954447171286166 0  0.3329307555206357 0.2046017509710421 0  0.4541577316841968 0.1960357661898101 0  0.3358300776141575 0.1950765652117375 0  0.2539718587514912 0.200011552766824 0  0.5826472073721517 0.2039971170156656 0  0.2761021761080182 0.1946948236183283 0  0.3898581462796225 0.2041572776584344 0  0.3552515063402743 0.2041572776584256 0  0.2965028074750666 0.2046578268138723 0  0.4299158836614793 0.1951782397873778 0  0.379426563923736 0.2049969334481307 0  0.2860882692072842 0.2042624797643994 0  0.3449948044168807 0.2051793676155613 0  0.2603922435707652 0.1950997711614917 0  0.5949856943860
[...]
<PointData  Vectors="f_18-1"> 
<DataArray  type="Float64"  Name="f_18-1"  NumberOfComponents="3" format="ascii">1.5410752100476668e-04 1.1429468229289515e-03 0.0000000000000000e+00  -2.1760654559717089e-04 1.1394435897692928e-03 0.0000000000000000e+00  0.0000000000000000e+00 0.0000000000000000e+00 0.0000000000000000e+00  0.0000000000000000e+00 0.0000000000000000e+00 0.0000000000000000e+00  -3.1763048443149686e-05 1.1411896997175750e-03 0.0000000000000000e+00  0.0000000000000000e+00 0.0000000000000000e+00 0.0000000000000000e+00  0.0000000000000000e+00 0.0000000000000000e+00 0.0000000000000000e+00  0.0000000000000000e+00 0.0000000000000000e+00 0.0000000000000000e+00  0.0000000000000000e+00 0.0000000000000000e+00 0.0000000000000000e+00  1.6878537280200351e-05 -1.6173543159909041e-05 0.0000000000000000e+00  3.3683455328505154e-05 -3.3458513674601529e-05 0.0000000000000000e+00  4.9503780041752196e-05 -5.4827255057778055e-05 0.0000000000000000e+00  6.3368594161340049e-05 -8.7192089683813288e-05 0.0000000000000000e+00  7.5277858396167370e-05 -1.2461874029218653e-04 0.0000000000000000e+00  8.6548135336350781e-05 -1.6937874028010613e-04 0.0000000000000000e+00  9.5752429128670330e-05 -2.1699477178472004e-04 0.0000000000000000e+00  1.0294332791720063e-04 -2.6993809858606840e-04 0.0000000000000000e+00  1.0916893583077185e-04 -3.2639966737615673e-04 0.0000000000000000e+00  1.1395840667346603e-04 -3.8574851384765192e-04 0.0000000000000000e+00  1.1789443963501862e-04 -4.4808338085220502e-04 0.0000000000000000e+00  1.2097448700580063e-04 -5.1060328755516966e-04 0.0000000000000000e+00  1.2216052911039662e-04 -5.7534416505444688e-04 0.0000000000000000e+00  1.2265352321195978e-04 -6.4038629520500308e-04 0.0000000000000000e+00  1.2192162753390411e-04 -7.0556016836075246e-04 0.0000000000000000e+00  1.2010474082967167e-04 -7.6992899688845223e-04 0.0000000000000000e+00  1.1733080625965521e-04 -8.3364582837439712e-04 0.0000000000000000e+00  1.1360622887070654e-04 -8.9562776689619376e-04 0.0000000000000000e+00  1.0939978038005532e-04 -9.5610358131087956e-04 0.0000000000000000e+00  1.0422339544357221e-04 -1.0140238665918681e-03 0.0000000000000000e+00  9.8548248215359635e-05 -1.0697033544595125e-03 0.0000000000000000e+00  9.2517877279640976e-05 -1.1224424879887126e-03 0.0000000000000000e+00  8.4845852053455750e-05 -1.1700682353671138e-03 0.0000000000000000e+00  7.6479962838035901e-05 -1.2166232910609152e-03 0.0000000000000000e+00  6.7970409012523965e-05 -1.2575943815171789e-03 0.0000000000000000e+00  5.9506423061398057e-05 -1.2953663676878073e-03 0.0000000000000000e+00  5.0311274023437025e-05 -1.3279440774130727e-03 0.0000000000000000e+00  4.0988149366640436e-05 -1.3562867203785666e-03 0.0000000000000000e+00  3.1919615020247502e-05 -1.3799359476006625e-03 0.0000000000000000e+00  2.1275462028391653e-05 -1.3960034449972288e-03 0.0000000000000000e+00  1.0228466848098476e-05 -1.4111509228516119e-03 0.0000000000000000e+00  5.0530217207675029e-07 -1.4185402026312460e-03 0.0000000000000000e+00  -1.0248556024715757e-05 -1.4193709221124247e-03 0.0000000000000000e+00  -2.1247622196642927e-05 -1.4185458028096423e-03 0.0000000000000000e+00  -3.1076929454277166e-05 -1.4096014035695989e-03 0.0000000000000000e+00  -4.2689840795757681e-05 -1.3967428810701358e-03 0.0000000000000000e+00  -5.2501041400537577e-05 -1.3781253435967960e-03 0.0000000000000000e+00  -6.4100666778397496e-05 -1.3537082865356664e-03 0.0000000000000000e+00  -7.3894892287314180e-05 -1.3250602036193018e-03 0.0000000000000000e+00  -8.3425882847336315e-05 -1.2904778918643744e-03 0.0000000000000000e+00  -9.3351364538876889e-05 -1.2516921865512916e-03 0.0000000000000000e+00  -1.0329746137374581e-04 -1.2079623353165030e-03 0.0000000000000000e+00  -1.1189007223789119e-04 -1.1594668048060263e-03 0.0000000000000000e+00  -1.2083993040065059e-04 -1.1071923785939141e-03 0.0000000000000000e+00  -1.2959662544006050e-04 -1.0504565319194212e-03 0.0000000000000000e+00  -1.3713442643130852e-04 -9.8964831053410373e-04 0.0000000000000000e+00  -1.4471094193221115e-04 -9.2564694186626675e-04 0.0000000000000000e+00  -1.5205970037690091e-04 -8.5790229929545183e-04 0.0000000000000000e+00  -1.5837446102056168e-04 -7.8703133339524641e-04 0.0000000000000000e+00  -1.6463423090185182e-04 -7.1358017622404784e-04 0.0000000000000000e+00  -1.7062783443075132e-04 -6.3717783250776244e-04 0.0000000000000000e+00  -1.7573817471346149e-04 -5.5832224798535392e-04 0.0000000000000000e+00  -1.8070443671705600e-04 -4.7754209080198541e-04 0.0000000000000000e+00  -1.8534075855788056e-04 -3.9456840712108449e-04 0.0000000000000000e+00  -1.8923551391319851e-04 -3.0987646027796862e-04 0.0000000000000000e+00  -1.9300886009706352e-04 -2.2384713964086858e-04 0.0000000000000000e+00  -1.9642353045432504e-04 -1.3639390947561548e-04 0.0000000000000000e+00  -1.9934372141908007e-04 -4.7872486201349192e-05 0.0000000000000000e+00  -2.0183468032893822e-04 4.1432820418325716e-05 0.0000000000000000e+00  -2.0395962749069821e-04 1.3158776808259198e-04 0.0000000000000000e+00  -2.0589910240247303e-04 2.2236921158814957e-04 0.0000000000000000e+00  -2.0770878860286522e-04 3.1323626510912302e-04 0.0000000000000000e+00  -2.0919783169012833e-04 4.0469504810814383e-04 0.0000000000000000e+00  -2.1063307964467557e-04 4.9631046297927137e-04 0.0000000000000000e+00  -2.1185040129615554e-04 5.8805722298503290e-04 0.0000000000000000e+00  -2.1293891307264671e-04 6.7994775905560610e-04 0.0000000000000000e+00  -2.1397082422671058e-04 7.7182128110771784e-04 0.0000000000000000e+00  -2.1492127113523056e-04 8.6372562775141159e-04 0.0000000000000000e+00  -2.1584178325891108e-04 9.5565195484444002e-04 0.0000000000000000e+00  -2.1673899324149105e-04 1.0475468658947488e-03 0.0000000000000000e+00  1.5496460640262484e-04 1.0510407235265764e-03 0.0000000000000000e+00  1.5581221213633450e-04 9.5914753027131659e-04 0.0000000000000000e+00  1.5664703265798530e-04 8.6724695098697408e-04 0.0000000000000000e+00  1.5743576155734896e-04 7.7533727644619977e-04 0.0000000000000000e+00  1.5816846248355721e-04 6.8344794153014313e-04 0.0000000000000000e+00  1.5882633563134310e-04 5.9155189066453903e-04 0.0000000000000000e+00  1.5933704838460563e-04 4.9977045589618037e-04 0.0000000000000000e+00  1.5963449200257244e-04 4.0812654116639103e-04 0.0000000000000000e+00  1.5984280243800915e-04 3.1661929197422043e-04 0.0000000000000000e+00  1.5975713472068327e-04 2.2554896295343249e-04 0.0000000000000000e+00  1.5944114366298555e-04 1.3473008965285405e-04 0.0000000000000000e+00  1.5895908884052521e-04 4.4618888585268346e-05 0.0000000000000000e+00  1.5799268874610540e-04 -4.4550176829195552e-05 0.0000000000000000e+00  1.5668108769367625e-04 -1.3351329952239745e-04 0.0000000000000000e+00  1.5517732826098330e-04 -2.2100397506599829e-04 0.0000000000000000e+00  1.5293486476123850e-04 -3.0677062267007175e-04 0.0000000000000000e+00  1.5025889928123806e-04 -3.9211362616857075e-04 0.0000000000000000e+00  1.4751928707372407e-04 -4.7504388241022765e-04 0.0000000000000000e+00  1.4382405026280753e-04 -5.5545727008177105e-04 0.0000000000000000e+00  1.3960935390724030e-04 -6.3523716258982808e-04 0.0000000000000000e+00  1.3549121799107751e-04 -7.1155990915851362e-04 0.0000000000000000e+00  1.3024495703190515e-04 -7.8449184538217530e-04 0.0000000000000000e+00  1.2442259887798392e-04 -8.5657989897346359e-04 0.0000000000000000e+00  1.1890950187393732e-04 -9.2416706834530299e-04 0.0000000000000000e+00  1.1208130687942355e-04 -9.8743540071023566e-04 0.0000000000000000e+00  1.0465172904362880e-04 -1.0491780301225256e-03 0.0000000000000000e+00  9.7259138459221178e-05 -1.1061950421477024e-03 0.0000000000000000e+00  8.8651282706046102e-05 -1.1576789245613395e-03 0.0000000000000000e+00  7.9867211083872860e-05 -1.2080114607514790e-03 0.0000000000000000e+00  7.2046892731478742e-05 -1.2519011729408332e-03 0.0000000000000000e+00  6.2113355762517596e-05 -1.2891625617234654e-03 0.0000000000000000e+00  5.1660984055159817e-05 -1.3249524532932342e-03 0.0000000000000000e+00  4.1564788308923283e-05 -1.3533028182825871e-03 0.0000000000000000e+00  3.1898453097344873e-05 -1.3780796073801648e-03 0.0000000000000000e+00  2.1896528100926770e-05 -1.3970848265179006e-03 0.0000000000000000e+00  1.2228952845076314e-05 -1.4094552408765490e-03 0.0000000000000000e+00  1.3400175553413570e-06 -1.4183129276975316e-03 0.0000000000000000e+00  -8.8618274825875071e-06 -1.4207942373363051e-03 0.0000000000000000e+00  -1.9766100498016254e-05 -1.4184426975878263e-03 0.0000000000000000e+00  -3.0855391696771259e-05 -1.4104717729673854e-03 0.0000000000000000e+00  -4.1333315670814499e-05 -1.3969228104010146e-03 0.0000000000000000e+00  -5.0491805554975665e-05 -1.3790813918817585e-03 0.0000000000000000e+00  -5.9318763052517036e-05 -1.3555615825125808e-03 0.0000000000000000e+00  -6.9845138881825439e-05 -1.3281463066053050e-03 0.0000000000000000e+00  -7.8108559456264510e-05 -1.2953305073572223e-03 0.0000000000000000e+00  -8.7398304109351842e-05 -1.2574126045337632e-03 0.0000000000000000e+00  -9.4817796112678111e-05 -1.2160425475642935e-03 0.0000000000000000e+00  -1.0224021452204192e-04 -1.1700610717128360e-03 0.0000000000000000e+00  -1.0828711397052487e-04 -1.1211478191148186e-03 0.0000000000000000e+00  -1.1362934934182071e-04 -1.0684211041038657e-03 0.0000000000000000e+00  -1.1952830350460811e-04 -1.0132161490369618e-03 0.0000000000000000e+00  -1.2354629892209418e-04 -9.5524066535430724e-04 0.0000000000000000e+00  -1.2746135885019337e-04 -8.9446081888585433e-04 0.0000000000000000e+00  -1.2979899151007674e-04 -8.3221634859873526e-04 0.0000000000000000e+00  -1.3131115748880415e-04 -7.6824439196115403e-04 0.0000000000000000e+00  -1.3223701537146951e-04 -7.0410054814334271e-04 0.0000000000000000e+00  -1.3192667488988859e-04 -6.3891735584161314e-04 0.0000000000000000e+00  -1.3044792671786364e-04 -5.7393203473256782e-04 0.0000000000000000e+00  -1.2822136106493756e-04 -5.0942282732021325e-04 0.0000000000000000e+00  -1.2466485220835569e-04 -4.4646440224320797e-04 0.0000000000000000e+00  -1.2012195636592762e-04 -3.8466500945765614e-04 0.0000000000000000e+00  -1.1443269897229427e-04 -3.2558692491911075e-04 0.0000000000000000e+00  -1.0659485965230963e-04 -2.6870518118363141e-04 0.0000000000000000e+00  -9.8809985831299347e-05 -2.1608962039354633e-04 0.0000000000000000e+00  -8.8002519629802270e-05 -1.6716853836063625e-04 0.0000000000000000e+00  -7.7149205813484205e-05 -1.2482864810458381e-04 0.0000000000000000e+00  -6.3003499032568774e-05 -8.7871995686663503e-05 0.0000000000000000e+00  -4.9046124704856255e-05 -5.5784244642908728e-05 0.0000000000000000e+00  -3.4031142996292907e-05 -3.1817059554174930e-05 0.0000000000000000e+00  -1.7544631307908646e-05 -1.7316978677677722e-05 0.0000000000000000e+00  6.1160087964186259e-05 1.1420736359044508e-03 0.0000000000000000e+00  -1.2467694795667897e-04 1.1403105933959776e-03 0.0000000000000000e+00  1.8135049603967831e-06 -2.0416753197814003e-05 0.0000000000000000e+00  -2.1725647523875176e-05 8.7108098323090806e-05 0.0000000000000000e+00  -2.5602272860225554e-05 5.5062729677121214e-04 0.0000000000000000e+00  5.1232982210636138e-06 -1.4947343911875767e-04 0.0000000000000000e+00  -1.5372753106521530e-05 -4.3134707245768254e-04 0.0000000000000000e+00  -1.7653130743076594e-05 -1.7398195340900076e-04 0.0000000000000000e+00  -1.0045551833770426e-05 -3.3369004464584067e-04 0.0000000000000000e+00  -2.0239433796812447e-05 8.2106609687947717e-04 0.0000000000000000e+00  -4.1305224333570524e-06 -5.3585673601824887e-04 0.0000000000000000e+00  3.5874999771312293e-06 -8.8533174478580448e-04 0.0000000000000000e+00  -1.3449930995079724e-05 -6.7240884682684843e-04 0.0000000000000000e+00  -8.0466881399081055e-06 -1.0996073553396003e-03 0.0000000000000000e+00  -1.1913429021695420e-05 -8.9075566794377301e-04 0.0000000000000000e+00  -8.7845265118409034e-06 -1.2488145349019348e-03 0.0000000000000000e+00  -9.9177130057399531e-06 -1.3742949726553849e-03 0.0000000000000000e+00  -6.7305412794038497e-06 -1.0844372991446090e-03 0.0000000000000000e+00  -1.1157933595834407e-05 -1.2359635889945863e-03 0.0000000000000000e+00  -9.9042953869111442e-06 -1.4217745170162779e-03 0.0000000000000000e+00  -1.0156896665873400e-05 -1.4222290732518394e-03 0.0000000000000000e+00  -1.0447414528138039e-05 -1.3511417195958947e-03 0.0000000000000000e+00  -4.7466305733095053e-06 -6.6669898853263950e-04 0.0000000000000000e+00  -2.4275510835801306e-05 3.6803759578567062e-04 0.0000000000000000e+00  -1.0185283258317999e-05 -1.4000680173656612e-03 0.0000000000000000e+00  -5.4529669709393260e-06 -1.0043204703442117e-03 0.0000000000000000e+00  -8.4003186832962616e-06 -1.3273010197696760e-03 0.0000000000000000e+00  -1.5665918952347993e-06 -2.3815738996518047e-04 0.0000000000000000e+00  2.4095829872110010e-06 9.7645488377375836e-04 0.0000000000000000e+00  8.8278155440456128e-06 -7.2601849813875660e-05 0.0000000000000000e+00  -3.4027743351852659e-05 -1.1648210993382903e-03 0.0000000000000000e+00  -4.6325424228191070e-05 -7.9004304282531983e-04 0.0000000000000000e+00  -5.1675583396122795e-05 -5.6026305276943604e-04 0.0000000000000000e+00  -1.6792570156188898e-05 -1.4036136682589247e-03 0.0000000000000000e+00  -4.0448961632818293e-05 -9.9381471062525437e-04 0.0000000000000000e+00  -5.6429758376811963e-05 -3.1080031248662384e-04 0.0000000000000000e+00  -2.6847762738930300e-05 -1.2966498623710760e-03 0.0000000000000000e+00  -6.0592382142442139e-05 -4.7865381053563083e-05 0.0000000000000000e+00  -1.0021367896607185e-05 -1.4273588477497269e-03 0.0000000000000000e+00  -2.9177329087426735e-05 -1.1750397512323395e-03 0.0000000000000000e+00  -2.9763655271768544e-05 -4.4450965998481332e-04 0.0000000000000000e+00  1.4325235970855168e-05 6.8194456160006092e-04 0.0000000000000000e+00  2.9354005136119720e-05 2.2180547581816690e-04 0.0000000000000000e+00  3.0037976584136157e-05 -7.7187467178833652e-04 0.0000000000000000e+00  -9.2614418164069660e-05 1.8328675147791378e-04 0.0000000000000000e+00  -5.3222130980906473e-05 -7.9778328343044593e-04 0.0000000000000000e+00  4.8385496830464097e-05 -7.2321193729529258e-06 0.0000000000000000e+00  4.7974325024015397e-05 -2.7173042933328103e-04 0.0000000000000000e+00  4.5960970234697916e-05 -5.2362046710622710e-04 0.0000000000000000e+00  -9.9647129395054746e-05 7.2161704106394838e-04 0.0000000000000000e+00  4.3080779311161340e-05 -4.1724996263061299e-04 0.0000000000000000e+00  3.6130163883927602e-05 -9.6483057188886663e-04 0.0000000000000000e+00  4.2048516788473439e-05 -7.5681317260693998e-04 0.0000000000000000e+00  3.1762042863669290e-06 -1.3956206260929383e-03 0.0000000000000000e+00  2.8249024046006458e-05 -1.1534320094671608e-03 0.0000000000000000e+00  2.6442323980458491e-05 -1.1860026158310724e-03 0.0000000000000000e+00  1.8119763235957264e-05 -1.2793701324418749e-03 0.0000000000000000e+00  -9.1671611286609141e-06 -1.4264384439003678e-03 0.0000000000000000e+00  -7.1853156376632881e-06 -1.0121035774087419e-05 0.0000000000000000e+00  5.5071777992517967e-06 -8.0615381746533839e-06 0.0000000000000000e+00  -2.8296027666145418e-05 -1.3708207898356594e-03 0.0000000000000000e+00  -3.6595173924551774e-05 -1.2789579267033324e-03 0.0000000000000000e+00  -5.3058141145310886e-05 -9.2978055994153601e-04 0.0000000000000000e+00  -3.7217398222330700e-05 -1.8793106536933382e-04 0.0000000000000000e+00  -4.3511157565920852e-05 -2.9603891372509525e-04 0.0000000000000000e+00  -2.0828740373659754e-05 -1.4088865943666989e-03 0.0000000000000000e+00  -5.0663887920087546e-05 -1.0428838882362485e-03 0.0000000000000000e+00  -3.1677589704132085e-05 -1.3472363967905647e-03 0.0000000000000000e+00  -5.2782253526020649e-05 -6.1834047750407089e-04 0.0000000000000000e+00  -9.4863953330779217e-05 4.3699252191021723e-04 0.0000000000000000e+00  4.7287857239333476e-05 4.4364228144977110e-04 0.0000000000000000e+00  4.4159776182066504e-05 -6.1363765334489586e-04 0.0000000000000000e+00  -2.9063864488913861e-05 -9.7393919495363619e-05 0.0000000000000000e+00  -1.1725541711700627e-04 9.0428188051749501e-04 0.0000000000000000e+00  1.1385119355812736e-05 -1.3707423635097515e-03 0.0000000000000000e+00  4.6238800699571229e-07 -1.4106523739225529e-03 0.0000000000000000e+00  4.9688509837007582e-05 -9.2552757350719073e-04 0.0000000000000000e+00  4.1646157865926949e-05 -1.8446153921591979e-04 0.0000000000000000e+00  4.9411087264496124e-05 -2.9865344831436368e-04 0.0000000000000000e+00  2.4007173860832929e-05 -1.2796646624874260e-03 0.0000000000000000e+00  4.8777393652633654e-05 -1.0396644567788873e-03 0.0000000000000000e+00  1.9268787118001649e-05 -1.3444306504962857e-03 0.0000000000000000e+00  -1.9256882937581046e-05 -5.4494559809834404e-05 0.0000000000000000e+00  -1.0587088757394158e-04 1.0349791691368570e-03 0.0000000000000000e+00  5.7068505388178257e-05 -1.1197745275287946e-04 0.0000000000000000e+00  5.5802378470253942e-05 -3.7211153229646824e-04 0.0000000000000000e+00  4.9536614770062861e-05 -4.9182605298733230e-04 0.0000000000000000e+00  5.2595075243204232e-05 -6.1734652211274275e-04 0.0000000000000000e+00  -1.0726750103932979e-04 6.1349924077370771e-04 0.0000000000000000e+00  4.7238854747834859e-05 -8.4136337226374373e-04 0.0000000000000000e+00  3.9649141919473209e-05 -1.0372372291275703e-03 0.0000000000000000e+00  2.9616616389376551e-05 -1.2087048669142154e-03 0.0000000000000000e+00  3.4362102762208615e-05 -1.1257097738850367e-03 0.0000000000000000e+00  5.2940388074020574e-07 -1.4129767386387743e-03 0.0000000000000000e+00  1.8213465730982876e-05 -1.3213891127343154e-03 0.0000000000000000e+00  -1.3787445139554695e-05 -1.4247703400454199e-03 0.0000000000000000e+00  5.0650383342313789e-05 8.9107770399888945e-04 0.0000000000000000e+00  -1.0492126809071993e-04 2.8890648453553053e-04 0.0000000000000000e+00  -6.0837685112339758e-05 -7.2260146763363940e-04 0.0000000000000000e+00  3.3860148948092234e-05 -1.0412025016406740e-04 0.0000000000000000e+00  1.8635022839766303e-05 -4.4267782786787228e-05 0.0000000000000000e+00  -5.3631548526263367e-05 -1.2110929152749942e-03 0.0000000000000000e+00  -5.7530040888736622e-06 -1.4238645359030727e-03 0.0000000000000000e+00  -6.6492992020703335e-05 -1.0522947317436954e-03 0.0000000000000000e+00  -9.3618757336659175e-05 -3.9317726700365517e-04 0.0000000000000000e+00  -7.6333822311081142e-05 -8.5870652372587711e-04 0.0000000000000000e+00  -8.5746680033051506e-05 -6.3682439649697276e-04 0.0000000000000000e+00  -1.7640932372013249e-05 -1.4166240876688860e-03 0.0000000000000000e+00  -3.8908659015807603e-05 -1.3284091748936859e-03 0.0000000000000000e+00  -4.6626148016566510e-05 -1.2180538498487987e-03 0.0000000000000000e+00  -2.8967384533243042e-05 -1.3847406529171747e-03 0.0000000000000000e+00  -1.0501231084654484e-04 3.8522520857282131e-05 0.0000000000000000e+00  -5.4587519746305094e-05 -1.1262936522012041e-03 0.0000000000000000e+00  -8.7590086840102973e-05 -1.3739859536209296e-04 0.0000000000000000e+00  -5.8064778106715817e-05 -5.0417721324852200e-04 0.0000000000000000e+00  -5.6474553630866671e-05 -3.8436209563570261e-04 0.0000000000000000e+00  5.4547361624530679e-05 7.6401945069429916e-04 0.0000000000000000e+00  5.9620745785802141e-05 5.9354918446011241e-04 0.0000000000000000e+00  -7.5064800637493530e-05 -4.7521144319637696e-04 0.0000000000000000e+00  -6.8111647553459461e-05 -7.1256182285014112e-04 0.0000000000000000e+00  -5.3690262350226019e-05 -1.1110621952620395e-03 0.0000000000000000e+00  -8.4927765103300629e-05 -2.2303392842153253e-04 0.0000000000000000e+00  -6.0042249030609941e-05 -9.2606214766634851e-04 0.0000000000000000e+00  -4.3478502044651985e-05 -1.2563787602417498e-03 0.0000000000000000e+00  -1.3963240595202400e-05 -1.4246402357360962e-03 0.0000000000000000e+00  5.3909466912736104e-05 -7.0984550922807634e-04 0.0000000000000000e+00  6.2350479543404224e-05 3.0908535434427003e-04 0.0000000000000000e+00  6.0418695853208994e-05 1.3613776031565623e-04 0.0000000000000000e+00  5.0364810501826015e-05 -8.3329818009025879e-04 0.0000000000000000e+00  2.3308733171649502e-05 -1.2356576537518611e-03 0.0000