<?xml version="1.0"?>
<VTKFile type="UnstructuredGrid"  version="0.1"  >
<UnstructuredGrid>
<Piece  NumberOfPoints="439" NumberOfCells="725">
<Points>
<DataArray  type="Float64"  NumberOfComponents="3"  format="ascii">0.6 0.19 0  0.6 0.21 0  0.2489897949 0.21 0  0.2489897949 0.19 0  0.6 0.2 0  0.2496355385699469 0.2060260530378829 0  0.249959460510575 0.2020130349814059 0  0.2499594605105767 0.1979869650186357 0  0.24963553856995 0.1939739469621422 0  0.2539336006056293 0.21 0  0.2588774063112542 0.21 0  0.2638212120168921 0.21 0  0.26876501772253 0.21 0  0.2737088234281569 0.21 0  0.2786526291337753 0.21 0  0.2835964348393937 0.21 0  0.2885402405450166 0.21 0  0.2934840462506522 0.21 0  0.2984278519562708 0.21 0  0.3033716576618997 0.21 0  0.3083154633675181 0.21 0  0.3132592690731365 0.21 0  0.3182030747787549 0.21 0  0.3231468804843732 0.21 0  0.3280906861899917 0.21 0  0.3330344918956208 0.21 0  0.3379782976012284 0.21 0  0.3429221033068576 0.21 0  0.347865909012476 0.21 0  0.3528097147180944 0.21 0  0.3577535204237128 0.21 0  0.3626973261293311 0.21 0  0.3676411318349495 0.21 0  0.3725849375405788 0.21 0  0.3775287432461877 0.21 0  0.382472548951812 0.21 0  0.3874163546574338 0.21 0  0.3923601603630631 0.21 0  0.3973039660686706 0.21 0  0.4022477717742986 0.21 0  0.4071915774799107 0.21 0  0.4121353831855311 0.21 0  0.4170791888911518 0.21 0  0.4220229945967636 0.21 0  0.4269668003023918 0.21 0  0.4319106060080253 0.21 0  0.4368544117136773 0.21 0  0.4417982174193329 0.21 0  0.4467420231249967 0.21 0  0.4516858288306445 0.21 0  0.4566296345362864 0.21 0  0.461573440241916 0.21 0  0.4665172459475665 0.21 0  0.4714610516531998 0.21 0  0.4764048573588668 0.21 0  0.4813486630645134 0.21 0  0.486292468770176 0.21 0  0.4912362744758066 0.21 0  0.4961800801814611 0.21 0  0.5011238858870897 0.21 0  0.5060676915927493 0.21 0  0.5110114972983872 0.21 0  0.5159553030040036 0.21 0  0.5208991087096415 0.21 0  0.5258429144153002 0.21 0  0.5307867201209391 0.21 0  0.5357305258265987 0.21 0  0.5406743315322367 0.21 0  0.5456181372378529 0.21 0  0.5505619429434908 0.21 0  0.5555057486491456 0.21 0  0.5604495543547885 0.21 0  0.565393360060448 0.21 0  0.5703371657661116 0.21 0  0.5752809714717458 0.21 0  0.5802247771773834 0.21 0  0.5851685828830341 0.21 0  0.5901123885886809 0.21 0  0.5950561942943404 0.21 0  0.5950561942943833 0.19 0  0.590112388588758 0.19 0  0.5851685828831193 0.19 0  0.5802247771774727 0.19 0  0.5752809714718514 0.19 0  0.5703371657662308 0.19 0  0.565393360060618 0.19 0  0.5604495543549889 0.19 0  0.5555057486493581 0.19 0  0.5505619429437035 0.19 0  0.5456181372381043 0.19 0  0.540674331532505 0.19 0  0.5357305258268962 0.19 0  0.530786720121263 0.19 0  0.5258429144156628 0.19 0  0.5208991087100244 0.19 0  0.5159553030044218 0.19 0  0.5110114972988226 0.19 0  0.5060676915932177 0.19 0  0.5011238858875806 0.19 0  0.496180080181972 0.19 0  0.4912362744763531 0.19 0  0.4862924687707343 0.19 0  0.4813486630651046 0.19 0  0.4764048573594966 0.19 0  0.4714610516538683 0.19 0  0.4665172459482555 0.19 0  0.4615734402426349 0.19 0  0.4566296345370104 0.19 0  0.4516858288313808 0.19 0  0.4467420231257716 0.19 0  0.4417982174201465 0.19 0  0.4368544117145297 0.19 0  0.4319106060089131 0.19 0  0.4269668003032866 0.19 0  0.4220229945976482 0.19 0  0.4170791888920056 0.19 0  0.4121353831863594 0.19 0  0.4071915774806995 0.19 0  0.4022477717750478 0.19 0  0.3973039660693901 0.19 0  0.3923601603637548 0.19 0  0.3874163546581082 0.19 0  0.3824725489524824 0.19 0  0.3775287432468258 0.19 0  0.3725849375411773 0.19 0  0.3676411318355085 0.19 0  0.3626973261298614 0.19 0  0.3577535204242108 0.19 0  0.352809714718589 0.19 0  0.347865909012931 0.19 0  0.342922103307292 0.19 0  0.3379782976016536 0.19 0  0.3330344918960152 0.19 0  0.3280906861903751 0.19 0  0.3231468804847171 0.19 0  0.3182030747790592 0.19 0  0.3132592690734012 0.19 0  0.3083154633677581 0.19 0  0.3033716576621197 0.19 0  0.2984278519564813 0.19 0  0.2934840462508429 0.19 0  0.2885402405451874 0.19 0  0.2835964348395295 0.19 0  0.2786526291338716 0.19 0  0.2737088234282243 0.19 0  0.268765017722586 0.19 0  0.2638212120169476 0.19 0  0.2588774063113093 0.19 0  0.2539336006056579 0.19 0  0.6 0.1949999999999783 0  0.6 0.2049999999999729 0  0.2589734265316493 0.2005523893428403 0  0.5431462343853077 0.199999999999969 0  0.5682397894768162 0.1999704585808987 0  0.2774513927118024 0.2007941919421926 0  0.513849583376897 0.1999023426490919 0  0.5286810004937381 0.1999023426490969 0  0.2945108952057646 0.1992911908405386 0  0.5827780831384927 0.1995429801003349 0  0.3104128396569256 0.1999704585808978 0  0.3370001755418551 0.2008294612433967 0  0.4990181662600459 0.1999023426490902 0  0.3552816175709044 0.2000000000000608 0  0.4841867491431925 0.1999023426490849 0  0.3707373713905551 0.2000142376953689 0  0.3898882575102495 0.2000000000000828 0  0.4689857550492734 0.1995416724256694 0  0.4541577316841967 0.1999999999999098 0  0.4043534914018331 0.2000976573509244 0  0.4195510917439569 0.2000000000001057 0  0.4387019778644512 0.1999857623046772 0  0.3202472750256703 0.2000088842146399 0  0.5584053541080851 0.1999911157853577 0  0.4280667146887134 0.1998489048208241 0  0.3467659946265474 0.2001510951794375 0  0.3813726345658908 0.200151095179452 0  0.2860683376922098 0.2000415445706182 0  0.5911223811781194 0.1982449159348744 0  0.2679893161458627 0.201675125646729 0  0.4615734402426278 0.2022503633288003 0  0.4912362744763454 0.2022503633288091 0  0.5060676915931983 0.2022503633288118 0  0.3973039660686774 0.1977496366711965 0  0.4764048573594896 0.2022503633288051 0  0.5208991087100455 0.2022503633288184 0  0.4467420231257656 0.2022503633288 0  0.5357305258268849 0.2022503633288198 0  0.4121353831855317 0.1977496366711976 0  0.3626973261293352 0.1977496366711919 0  0.3033716576618961 0.1977496366711869 0  0.5752809714718229 0.1977496366711503 0  0.550459855919056 0.1971284784737667 0  0.3281927732146841 0.2028715215262406 0  0.5484179020497461 0.2038403215694763 0  0.3302347270839988 0.1961596784305491 0  0.5379210852238114 0.196125181664411 0  0.5230896681069652 0.1961251816644058 0  0.5082582509901222 0.1961251816644098 0  0.5774715308687094 0.2038748183355887 0  0.3011810982649548 0.2038748183355937 0  0.4785954167564111 0.196125181664404 0  0.4934268338732671 0.1961251816644063 0  0.395113406671763 0.2038748183355966 0  0.3605067667324117 0.2038748183355951 0  0.4593828808457146 0.1961251816643993 0  0.4489325825226805 0.1961251816644007 0  0.4099448237886219 0.2038748183355991 0  0.2557862999801971 0.1960858370257295 0  0.2550147360309399 0.2034426429991114 0  0.4348031476464689 0.2037737577641554 0  0.37463620160841 0.1962262422358553 0  0.3406258365864304 0.196046792193989 0  0.2813001681189834 0.1960467921940502 0  0.2912686387439893 0.1960816328649282 0  0.4246705335819892 0.2039532078059544 0  0.350162175732913 0.1960467921941878 0  0.3847688156722694 0.1960467921942359 0  0.316632368538356 0.19615945856337 0  0.5621550011053409 0.2037816492598991 0  0.5624413877019769 0.1960761923611377 0  0.3162395035833128 0.2038679557424692 0  0.2710887134207622 0.1959696443325838 0  0.5873014376403604 0.2047227881030823 0  0.4346679566442709 0.1954651459552513 0  0.4243296504077986 0.1958756980939062 0  0.3402559510833523 0.2047940500290923 0  0.2808684926760933 0.2047742417812656 0  0.2914077033138723 0.2047809517070955 0  0.3747713926104932 0.2045348540448554 0  0.3499216488898867 0.2051753413186305 0  0.3845282888292298 0.205175341318636 0  0.2648144865455052 0.1962089742986374 0  0.5943247643662894 0.2040415423589182 0  0.5320972610456145 0.1956445099050872 0  0.5172658439287727 0.1956445099050854 0  0.3069923255602658 0.2043468033872551 0  0.5024344268119265 0.1956445099050864 0  0.5716603035734351 0.2043468033872761 0  0.4876030096950741 0.1956445099050831 0  0.4728151975296263 0.1956402468909894 0  0.3663301776527538 0.20436745486386 0  0.4651631000724991 0.1956402468909893 0  0.4009372308499527 0.2043554900949198 0  0.4431091716023345 0.1956325451361429 0  0.4157593408842466 0.2043565497109067 0  0.5865057328865416 0.1956918868509067 0  0.5541600609760193 0.2044335994013721 0  0.3244925681577497 0.1955664005986376 0  0.272008018888917 0.2049327968152409 0  0.2633407725863902 0.2042483236346266 0  0.4567948413982566 0.2046536472831198 0  0.4167680012832803 0.1955060004091903 0  0.4716262585151221 0.2046536472831242 0  0.5161054367030595 0.2045563706470633 0  0.4864426024693469 0.2045563706470604 0  0.5012740195862044 0.2045563706470634 0  0.4022810343427545 0.1961423961483001 0  0.4420739040821668 0.2044853411424516 0  0.3673807293464664 0.1955677741328205 0  0.3925253672243162 0.195346352716901 0  0.5405091246712254 0.2046536472831267 0  0.357918727284983 0.1953463527168901 0  0.5307534575528717 0.2038576038516682 0  0.3079697655029555 0.1955637092892754 0  0.2985930588175599 0.1953463527168728 0  0.579671714346879 0.1955441268455555 0  0.5705023726275059 0.1953463527168462 0  0.5112451461103119 0.2035640580783926 0  0.4964137289934448 0.2035640580783915 0  0.4665727251511405 0.2038238154617746 0  0.5259274680675793 0.2038006696000127 0  0.4815823118765752 0.2035640580783898 0  0.4517504165552094 0.2039070625502732 0  0.4071070238280551 0.1961993303999926 0  0.3234846806957546 0.2047001437739977 0  0.5551679484379799 0.1952998562260008 0  0.5457754356464107 0.1954447171286166 0  0.3329307555206357 0.2046017509710421 0  0.4541577316841968 0.1960357661898101 0  0.3358300776141575 0.1950765652117375 0  0.2539718587514912 0.200011552766824 0  0.5826472073721517 0.2039971170156656 0  0.2761021761080182 0.1946948236183283 0  0.3898581462796225 0.2041572776584344 0  0.3552515063402743 0.2041572776584256 0  0.2965028074750666 0.2046578268138723 0  0.4299158836614793 0.1951782397873778 0  0.379426563923736 0.2049969334481307 0  0.2860882692072842 0.2042624797643994 0  0.3449948044168807 0.2051793676155613 0  0.2603922435707652 0.1950997711614917 0  0.5949856943860
[...]
<PointData  Vectors="f_18-1"> 
<DataArray  type="Float64"  Name="f_18-1"  NumberOfComponents="3" format="ascii">-4.9881568876073649e-03 -4.4617927935712814e-02 0.0000000000000000e+00  -1.5663683682377318e-03 -4.4912411942283265e-02 0.0000000000000000e+00  0.0000000000000000e+00 0.0000000000000000e+00 0.0000000000000000e+00  0.0000000000000000e+00 0.0000000000000000e+00 0.0000000000000000e+00  -3.2773319748090049e-03 -4.4765098255864326e-02 0.0000000000000000e+00  0.0000000000000000e+00 0.0000000000000000e+00 0.0000000000000000e+00  0.0000000000000000e+00 0.0000000000000000e+00 0.0000000000000000e+00  0.0000000000000000e+00 0.0000000000000000e+00 0.0000000000000000e+00  0.0000000000000000e+00 0.0000000000000000e+00 0.0000000000000000e+00  6.1535303789785645e-05 -5.3298256177905261e-05 0.0000000000000000e+00  1.2891884619177700e-04 -1.1090292403429909e-04 0.0000000000000000e+00  1.9550460283509482e-04 -1.8427638623987494e-04 0.0000000000000000e+00  2.5817373179253520e-04 -3.0666810127902923e-04 0.0000000000000000e+00  3.1698525240564612e-04 -4.5530389928857557e-04 0.0000000000000000e+00  3.7748303238430890e-04 -6.4128152611713429e-04 0.0000000000000000e+00  4.3099300422055377e-04 -8.4641118040819743e-04 0.0000000000000000e+00  4.7776720050398682e-04 -1.0856047787089957e-03 0.0000000000000000e+00  5.2401141258165255e-04 -1.3512612880793422e-03 0.0000000000000000e+00  5.6539479795234666e-04 -1.6433624067292293e-03 0.0000000000000000e+00  6.0805796485461857e-04 -1.9706696283617064e-03 0.0000000000000000e+00  6.4982506052634710e-04 -2.3034193206943748e-03 0.0000000000000000e+00  6.8154191099262143e-04 -2.6756663616960843e-03 0.0000000000000000e+00  7.2023062450193626e-04 -3.0687148400620431e-03 0.0000000000000000e+00  7.4662904222501066e-04 -3.4810365510303883e-03 0.0000000000000000e+00  7.7322704009097321e-04 -3.9215564556138935e-03 0.0000000000000000e+00  7.9579232972799483e-04 -4.3783034409941943e-03 0.0000000000000000e+00  8.1429119562401056e-04 -4.8627016389282624e-03 0.0000000000000000e+00  8.2764381656563301e-04 -5.3585090396614929e-03 0.0000000000000000e+00  8.3855385284638804e-04 -5.8780041056429189e-03 0.0000000000000000e+00  8.4515117509696258e-04 -6.4139005663599053e-03 0.0000000000000000e+00  8.4708399258113588e-04 -6.9660473701081615e-03 0.0000000000000000e+00  8.4927270262455596e-04 -7.5445100840723575e-03 0.0000000000000000e+00  8.5092835902127954e-04 -8.1267347504693568e-03 0.0000000000000000e+00  8.4596779995788887e-04 -8.7326764870296961e-03 0.0000000000000000e+00  8.3707888596829807e-04 -9.3483679101545852e-03 0.0000000000000000e+00  8.2556397596428006e-04 -9.9816360021462922e-03 0.0000000000000000e+00  8.1062159426541116e-04 -1.0627540849650350e-02 0.0000000000000000e+00  7.9150401432307262e-04 -1.1285504652050022e-02 0.0000000000000000e+00  7.7201369747542138e-04 -1.1963015691365188e-02 0.0000000000000000e+00  7.5206353872342533e-04 -1.2642406783146959e-02 0.0000000000000000e+00  7.2488791051044310e-04 -1.3339264736728048e-02 0.0000000000000000e+00  6.9676057360759528e-04 -1.4049881811680345e-02 0.0000000000000000e+00  6.6787674799746385e-04 -1.4763705382768309e-02 0.0000000000000000e+00  6.3293571596127589e-04 -1.5493123139709165e-02 0.0000000000000000e+00  5.9939213878604626e-04 -1.6230105139035406e-02 0.0000000000000000e+00  5.6006856585252753e-04 -1.6976218206324199e-02 0.0000000000000000e+00  5.2125649553471395e-04 -1.7732425434815846e-02 0.0000000000000000e+00  4.7788706360946798e-04 -1.8494477498831437e-02 0.0000000000000000e+00  4.3210885751985455e-04 -1.9265200234875629e-02 0.0000000000000000e+00  3.8538889959426726e-04 -2.0041878462893518e-02 0.0000000000000000e+00  3.3698842198777641e-04 -2.0825392770204995e-02 0.0000000000000000e+00  2.8537775578734060e-04 -2.1614905741692971e-02 0.0000000000000000e+00  2.3314462745159070e-04 -2.2409325863339526e-02 0.0000000000000000e+00  1.7941812709431419e-04 -2.3209496927706772e-02 0.0000000000000000e+00  1.2311628375823741e-04 -2.4014515397757643e-02 0.0000000000000000e+00  6.6093976901897543e-05 -2.4823565484032913e-02 0.0000000000000000e+00  7.9113888270676275e-06 -2.5637339649825421e-02 0.0000000000000000e+00  -5.2284853239346774e-05 -2.6454836329762369e-02 0.0000000000000000e+00  -1.1310904016109257e-04 -2.7275656986200898e-02 0.0000000000000000e+00  -1.7492216806401831e-04 -2.8100245596986262e-02 0.0000000000000000e+00  -2.3845512581627669e-04 -2.8927869273664308e-02 0.0000000000000000e+00  -3.0263651470091341e-04 -2.9758004427366824e-02 0.0000000000000000e+00  -3.6780003901955467e-04 -3.0590949372404291e-02 0.0000000000000000e+00  -4.3440501545547123e-04 -3.1426005431883994e-02 0.0000000000000000e+00  -5.0155869691059177e-04 -3.2262755443322091e-02 0.0000000000000000e+00  -5.6959517426041913e-04 -3.3101224276840112e-02 0.0000000000000000e+00  -6.3857312699342242e-04 -3.3940891380392392e-02 0.0000000000000000e+00  -7.0829959900623612e-04 -3.4781390394638380e-02 0.0000000000000000e+00  -7.7864777372905407e-04 -3.5622813837643506e-02 0.0000000000000000e+00  -8.4928833617128039e-04 -3.6465006071063323e-02 0.0000000000000000e+00  -9.2002689774937842e-04 -3.7307340451026842e-02 0.0000000000000000e+00  -9.9117099912265352e-04 -3.8150538732304659e-02 0.0000000000000000e+00  -1.0622005431783694e-03 -3.8994263053839857e-02 0.0000000000000000e+00  -1.1336006759356475e-03 -3.9838445723853040e-02 0.0000000000000000e+00  -1.2051481139697933e-03 -4.0683515003589410e-02 0.0000000000000000e+00  -1.2768074538018889e-03 -4.1528681054801918e-02 0.0000000000000000e+00  -1.3488800908327135e-03 -4.2374461314870160e-02 0.0000000000000000e+00  -1.4211763130568690e-03 -4.3220591095500673e-02 0.0000000000000000e+00  -1.4936142448571397e-03 -4.4066476893033446e-02 0.0000000000000000e+00  -4.9152443553802253e-03 -4.3771960447709125e-02 0.0000000000000000e+00  -4.8422225424968792e-03 -4.2925971766073219e-02 0.0000000000000000e+00  -4.7690957183192835e-03 -4.2080001837112718e-02 0.0000000000000000e+00  -4.6957543722215599e-03 -4.1234416823641054e-02 0.0000000000000000e+00  -4.6222663194682139e-03 -4.0389341389880144e-02 0.0000000000000000e+00  -4.5487002041786602e-03 -3.9544646479791445e-02 0.0000000000000000e+00  -4.4750898115775949e-03 -3.8700725859555196e-02 0.0000000000000000e+00  -4.4012336227518484e-03 -3.7857416870520029e-02 0.0000000000000000e+00  -4.3275860959295261e-03 -3.7014547132838048e-02 0.0000000000000000e+00  -4.2538248939938171e-03 -3.6172515996178156e-02 0.0000000000000000e+00  -4.1799853005370655e-03 -3.5330890019009659e-02 0.0000000000000000e+00  -4.1062505193580918e-03 -3.4490202917375222e-02 0.0000000000000000e+00  -4.0322003399287419e-03 -3.3650738849171469e-02 0.0000000000000000e+00  -3.9577928267750103e-03 -3.2811570467923747e-02 0.0000000000000000e+00  -3.8835014386991232e-03 -3.1974247114353350e-02 0.0000000000000000e+00  -3.8086813342253444e-03 -3.1139301954427191e-02 0.0000000000000000e+00  -3.7334096742236466e-03 -3.0305028416007247e-02 0.0000000000000000e+00  -3.6586198488731099e-03 -2.9473899391741158e-02 0.0000000000000000e+00  -3.5831969528033088e-03 -2.8646323577468109e-02 0.0000000000000000e+00  -3.5072619230202984e-03 -2.7819728532757222e-02 0.0000000000000000e+00  -3.4323010462518080e-03 -2.6997627400896472e-02 0.0000000000000000e+00  -3.3566885723891127e-03 -2.6180153890127449e-02 0.0000000000000000e+00  -3.2805295432251276e-03 -2.5363882702659921e-02 0.0000000000000000e+00  -3.2058181371352437e-03 -2.4553276969700083e-02 0.0000000000000000e+00  -3.1303544273333268e-03 -2.3748414767130563e-02 0.0000000000000000e+00  -3.0544012774669110e-03 -2.2945611950021271e-02 0.0000000000000000e+00  -2.9794561919973990e-03 -2.2148723284083460e-02 0.0000000000000000e+00  -2.9039623914975748e-03 -2.1359343703614524e-02 0.0000000000000000e+00  -2.8282722695528828e-03 -2.0571376426425075e-02 0.0000000000000000e+00  -2.7550682414243439e-03 -1.9791822642521519e-02 0.0000000000000000e+00  -2.6799106706358882e-03 -1.9022059450342476e-02 0.0000000000000000e+00  -2.6039553506985265e-03 -1.8254629195572490e-02 0.0000000000000000e+00  -2.5295865514974674e-03 -1.7497921419305000e-02 0.0000000000000000e+00  -2.4561721377605863e-03 -1.6746845764574882e-02 0.0000000000000000e+00  -2.3827908400833970e-03 -1.6005125739280819e-02 0.0000000000000000e+00  -2.3108515596516662e-03 -1.5275181895771532e-02 0.0000000000000000e+00  -2.2365932740699311e-03 -1.4551792816190342e-02 0.0000000000000000e+00  -2.1646232445194855e-03 -1.3840535244188141e-02 0.0000000000000000e+00  -2.0913910345500579e-03 -1.3139511666866253e-02 0.0000000000000000e+00  -2.0179358061519622e-03 -1.2450559985412219e-02 0.0000000000000000e+00  -1.9460179360256250e-03 -1.1774411886750996e-02 0.0000000000000000e+00  -1.8772804609036783e-03 -1.1107894338923960e-02 0.0000000000000000e+00  -1.8097859222744057e-03 -1.0455822764308334e-02 0.0000000000000000e+00  -1.7367889170814986e-03 -9.8144008327042797e-03 0.0000000000000000e+00  -1.6699753713195797e-03 -9.1891476498060301e-03 0.0000000000000000e+00  -1.5983657384540505e-03 -8.5804235179625116e-03 0.0000000000000000e+00  -1.5322027012176209e-03 -7.9836965516008919e-03 0.0000000000000000e+00  -1.4648367113168094e-03 -7.4064823134327830e-03 0.0000000000000000e+00  -1.4008854549404084e-03 -6.8412446826018533e-03 0.0000000000000000e+00  -1.3383440305012393e-03 -6.2954071841108484e-03 0.0000000000000000e+00  -1.2684160351502463e-03 -5.7633553387602884e-03 0.0000000000000000e+00  -1.2063973496669136e-03 -5.2517310919907561e-03 0.0000000000000000e+00  -1.1372880664572774e-03 -4.7620696098865430e-03 0.0000000000000000e+00  -1.0775113376546971e-03 -4.2894376829882555e-03 0.0000000000000000e+00  -1.0155519457372374e-03 -3.8456019287109464e-03 0.0000000000000000e+00  -9.5133651324499013e-04 -3.4083176448118876e-03 0.0000000000000000e+00  -8.9164661073218169e-04 -3.0025056164977456e-03 0.0000000000000000e+00  -8.2202076957079611e-04 -2.6174060091383980e-03 0.0000000000000000e+00  -7.6249950881591923e-04 -2.2537338975219400e-03 0.0000000000000000e+00  -7.0040443772374978e-04 -1.9212341866855975e-03 0.0000000000000000e+00  -6.4101395728532182e-04 -1.6064202785260058e-03 0.0000000000000000e+00  -5.8252987516042604e-04 -1.3221569851601552e-03 0.0000000000000000e+00  -5.1459567416419231e-04 -1.0586125109950687e-03 0.0000000000000000e+00  -4.5746626325205721e-04 -8.2413104991735050e-04 0.0000000000000000e+00  -3.8885777999539682e-04 -6.1787212120125422e-04 0.0000000000000000e+00  -3.2837406457258191e-04 -4.4626617205566666e-04 0.0000000000000000e+00  -2.5798030438553402e-04 -3.0393156983812229e-04 0.0000000000000000e+00  -1.9381016574812499e-04 -1.8416467608613917e-04 0.0000000000000000e+00  -1.2987440035609220e-04 -1.0020101294681139e-04 0.0000000000000000e+00  -6.4667558886266757e-05 -5.6625728833073172e-05 0.0000000000000000e+00  -4.1326963290749018e-03 -4.4691551338433867e-02 0.0000000000000000e+00  -2.4218913498581279e-03 -4.4838703128700107e-02 0.0000000000000000e+00  7.7584899845342385e-06 -5.5196902284775600e-05 0.0000000000000000e+00  -2.4432372256603121e-03 -3.5054996433252335e-02 0.0000000000000000e+00  -2.8152529790802234e-03 -3.9332213926284748e-02 0.0000000000000000e+00  1.9930046451001971e-05 -5.4004230137858085e-04 0.0000000000000000e+00  -2.0366528581474636e-03 -3.0088690573070623e-02 0.0000000000000000e+00  -2.2495664952212500e-03 -3.2595817419616396e-02 0.0000000000000000e+00  -6.5209736590777988e-05 -1.3543185098080709e-03 0.0000000000000000e+00  -3.1018380460124642e-03 -4.1811158602990291e-02 0.0000000000000000e+00  -6.0265205279904227e-05 -2.3986308670522561e-03 0.0000000000000000e+00  -7.8871614272801310e-05 -4.6909406886584248e-03 0.0000000000000000e+00  -1.8275265701064105e-03 -2.7603094987327270e-02 0.0000000000000000e+00  -2.5670364977142677e-04 -6.6053318496632988e-03 0.0000000000000000e+00  -1.6232428583372262e-03 -2.5147215468006183e-02 0.0000000000000000e+00  -3.6008351513534522e-04 -8.4059513617784128e-03 0.0000000000000000e+00  -5.1672734132923693e-04 -1.0851609304207177e-02 0.0000000000000000e+00  -1.4780006744526180e-03 -2.2663555122069360e-02 0.0000000000000000e+00  -1.2137920418223132e-03 -2.0299113424485711e-02 0.0000000000000000e+00  -6.3824479277739001e-04 -1.2825165951232531e-02 0.0000000000000000e+00  -8.0851034969532947e-04 -1.5005248613488077e-02 0.0000000000000000e+00  -1.0273588067467628e-03 -1.7885618897294724e-02 0.0000000000000000e+00  -8.7505403935184017e-05 -3.1684741783394340e-03 0.0000000000000000e+00  -2.6675771498122559e-03 -3.7654207268936854e-02 0.0000000000000000e+00  -9.2428039380287224e-04 -1.6268621954635683e-02 0.0000000000000000e+00  -1.9324761105393902e-04 -5.6801559857710274e-03 0.0000000000000000e+00  -4.2580522307746494e-04 -9.7391687955413753e-03 0.0000000000000000e+00  -1.5528489772201210e-05 -9.2052110572220854e-04 0.0000000000000000e+00  -3.4466922812238618e-03 -4.3220015407138407e-02 0.0000000000000000e+00  3.7235452969270164e-05 -2.4055374220843985e-04 0.0000000000000000e+00  -9.4932712616610905e-04 -2.1507621117458773e-02 0.0000000000000000e+00  -1.3320274495704455e-03 -2.6343181521682767e-02 0.0000000000000000e+00  -1.5339829365489707e-03 -2.8814744473307986e-02 0.0000000000000000e+00  -8.9029630053174495e-04 -1.1830104941235316e-02 0.0000000000000000e+00  -1.1366097991540648e-03 -2.3904839216320164e-02 0.0000000000000000e+00  -1.7415792401037503e-03 -3.1312114058556648e-02 0.0000000000000000e+00  -7.7265344841606284e-04 -1.9161018818332605e-02 0.0000000000000000e+00  -1.9535857177524151e-03 -3.3826769007563082e-02 0.0000000000000000e+00  -1.0519671446391609e-03 -1.3907293563494690e-02 0.0000000000000000e+00  -5.6565337392597704e-04 -7.4365410151615002e-03 0.0000000000000000e+00  -1.8839612259712377e-04 -1.9054317016983810e-03 0.0000000000000000e+00  -3.2979676348955994e-03 -4.0502673854618886e-02 0.0000000000000000e+00  -3.0386369604229377e-03 -3.6258282775695053e-02 0.0000000000000000e+00  1.3585643271373719e-04 -3.8735865229699265e-03 0.0000000000000000e+00  -1.8667381405763101e-03 -3.6008769631106816e-02 0.0000000000000000e+00  -4.7710847985354585e-04 -4.0360672160989659e-03 0.0000000000000000e+00  -3.0246609981846046e-03 -3.4110221365405480e-02 0.0000000000000000e+00  -2.8064043231253461e-03 -3.1594795610927935e-02 0.0000000000000000e+00  -2.5893841119796744e-03 -2.9095846243235364e-02 0.0000000000000000e+00  -2.2837010594938096e-03 -4.0967239532442690e-02 0.0000000000000000e+00  2.0998261274180732e-04 -1.7778277477707154e-03 0.0000000000000000e+00  -2.1628685505851179e-03 -2.4180991946844154e-02 0.0000000000000000e+00  -2.3745456272872834e-03 -2.6621986016138671e-02 0.0000000000000000e+00  -4.1161061270484110e-05 -1.1590067211886608e-02 0.0000000000000000e+00  1.5339240129585559e-04 -7.2256667437791168e-03 0.0000000000000000e+00  -1.8964139173788426e-03 -2.1080368823570353e-02 0.0000000000000000e+00  -1.7528097657134570e-03 -1.9429354870820269e-02 0.0000000000000000e+00  -1.5697843548024654e-04 -1.3657328209669795e-02 0.0000000000000000e+00  -2.7998195004026451e-05 -2.3907591672343156e-05 0.0000000000000000e+00  2.1472686904100911e-05 -1.8483821975811739e-05 0.0000000000000000e+00  -4.0782939619815248e-04 -1.7334543625646300e-02 0.0000000000000000e+00  -8.5841019043006710e-04 -8.8605226407395248e-03 0.0000000000000000e+00  -5.7057239005537752e-04 -5.0307420033195559e-03 0.0000000000000000e+00  -1.7388240517715768e-04 -6.9926256105025712e-04 0.0000000000000000e+00  -2.2367530127411877e-04 -1.1775842586113296e-03 0.0000000000000000e+00  -2.7999510256736715e-04 -1.5809562230487809e-02 0.0000000000000000e+00  -6.4791345922075459e-04 -6.0212580234335665e-03 0.0000000000000000e+00  -9.8352333984788685e-04 -1.0145462479255235e-02 0.0000000000000000e+00  -3.7766770154943702e-04 -2.8688482199628472e-03 0.0000000000000000e+00  -2.0760562843712914e-03 -3.8349590523892974e-02 0.0000000000000000e+00  -3.3944769563662909e-03 -3.8285423162405248e-02 0.0000000000000000e+00  2.2433448657524832e-04 -2.8616960193308403e-03 0.0000000000000000e+00  -1.2470478273618178e-04 -3.3439776205392875e-04 0.0000000000000000e+00  -2.2825918729653741e-03 -4.2661519995451098e-02 0.0000000000000000e+00  -1.6662826793392474e-03 -1.7218796314814280e-02 0.0000000000000000e+00  -1.4708482318346577e-03 -1.5668310235676580e-02 0.0000000000000000e+00  3.0243566545507119e-04 -5.0403891733057119e-03 0.0000000000000000e+00  1.8400642160294395e-04 -6.9211260184123997e-04 0.0000000000000000e+00  2.3115912183821211e-04 -1.2013562114140386e-03 0.0000000000000000e+00  1.6734960422823674e-04 -8.9431152702012500e-03 0.0000000000000000e+00  3.2579394006314701e-04 -6.0541949230911562e-03 0.0000000000000000e+00  1.9659748513468285e-04 -1.0195429290579761e-02 0.0000000000000000e+00  -7.8639620279240125e-05 -1.7497134617262944e-04 0.0000000000000000e+00  -2.5022548209697347e-03 -4.3853432284828228e-02 0.0000000000000000e+00  -3.0205824289343051e-03 -3.3114297087706288e-02 0.0000000000000000e+00  -2.8023955341655296e-03 -3.0604520279987061e-02 0.0000000000000000e+00  2.4864361438484806e-04 -2.1727819002031364e-03 0.0000000000000000e+00  -2.5855186940578062e-03 -2.8114629708428460e-02 0.0000000000000000e+00  -2.1181548253771288e-03 -3.9980962411053769e-02 0.0000000000000000e+00  -2.3709478681243415e-03 -2.5653046544035624e-02 0.0000000000000000e+00  -2.1608574321337884e-03 -2.3234134485526275e-02 0.0000000000000000e+00  1.8364186950514506e-04 -7.9126959737707836e-03 0.0000000000000000e+00  -2.0527497343206698e-03 -2.1998956168745289e-02 0.0000000000000000e+00  -2.0771805707990605e-05 -1.2394104321655828e-02 0.0000000000000000e+00  -1.7531559070021099e-03 -1.8517025814550090e-02 0.0000000000000000e+00  -1.3928554198972161e-04 -1.4501637779661770e-02 0.0000000000000000e+00  -3.8152848634030539e-03 -4.2392413363578116e-02 0.0000000000000000e+00  -1.8489161146193567e-03 -3.6995742432772441e-02 0.0000000000000000e+00  -4.8619428683608490e-04 -3.5212577401443953e-03 0.0000000000000000e+00  1.4281976051422465e-04 -3.6318884269932402e-04 0.0000000000000000e+00  7.5685028228422466e-05 -1.3931568714558727e-04 0.0000000000000000e+00  -5.1131197022795264e-04 -2.0777073250782957e-02 0.0000000000000000e+00  -1.4299975424063292e-03 -1.4555022992591288e-02 0.0000000000000000e+00  -6.8699886163274353e-04 -2.3160159347033017e-02 0.0000000000000000e+00  -1.2860076752936717e-03 -3.0535953122301139e-02 0.0000000000000000e+00  -8.8907096009123833e-04 -2.5583294102657105e-02 0.0000000000000000e+00  -1.0839577977374978e-03 -2.8045535300879831e-02 0.0000000000000000e+00  -1.1662404931319760e-03 -1.2500492119872926e-02 0.0000000000000000e+00  -3.7486452202818471e-04 -1.8462856207712826e-02 0.0000000000000000e+00  -8.6492731169611513e-04 -7.9757442695970095e-03 0.0000000000000000e+00  -1.1610733101795740e-03 -1.1165392328063257e-02 0.0000000000000000e+00  -1.6144638196828114e-03 -3.4674399106223261e-02 0.0000000000000000e+00  -7.9595174908432586e-04 -6.8769208726905621e-03 0.0000000000000000e+00  -1.6098507004932985e-03 -3.3004882633853358e-02 0.0000000000000000e+00  -3.6494097670602114e-04 -2.2202363923805794e-03 0.0000000000000000e+00  -3.1473727913322819e-04 -1.5991576061251634e-03 0.0000000000000000e+00  -3.7396924734899900e-03 -4.1221053936833119e-02 0.0000000000000000e+00  -3.6379858969479810e-03 -3.9650938603427305e-02 0.0000000000000000e+00  -1.3853085478530125e-03 -2.9702758860576096e-02 0.0000000000000000e+00  -1.1836318313077456e-03 -2.7220884784736218e-02 0.0000000000000000e+00  -7.5838301858703724e-04 -2.2331474680735802e-02 0.0000000000000000e+00  -1.5508693173541738e-03 -3.2185613968559360e-02 0.0000000000000000e+00  -9.8888593683781468e-04 -2.4769712792986995e-02 0.0000000000000000e+00  -5.7040985618962887e-04 -1.9968625472609920e-02 0.0000000000000000e+00  -1.2139210878206908e-03 -1.3175999238120951e-02 0.0000000000000000e+00  2.9777117950505032e-04 -3.4682150881182781e-03 0.0000000000000000e+00  -3.4193978297251213e-03 -3.7033851783065341e-02 0.0000000000000000e+00  -3.2561494833739067e-03 -3.5436281604805456e-02 0.0000000000000000e+00  2.8816271126876389e-04 