<?xml version="1.0"?>
<VTKFile type="UnstructuredGrid"  version="0.1"  >
<UnstructuredGrid>
<Piece  NumberOfPoints="439" NumberOfCells="725">
<Points>
<DataArray  type="Float64"  NumberOfComponents="3"  format="ascii">0.6 0.19 0  0.6 0.21 0  0.2489897949 0.21 0  0.2489897949 0.19 0  0.6 0.2 0  0.2496355385699469 0.2060260530378829 0  0.249959460510575 0.2020130349814059 0  0.2499594605105767 0.1979869650186357 0  0.24963553856995 0.1939739469621422 0  0.2539336006056293 0.21 0  0.2588774063112542 0.21 0  0.2638212120168921 0.21 0  0.26876501772253 0.21 0  0.2737088234281569 0.21 0  0.2786526291337753 0.21 0  0.2835964348393937 0.21 0  0.2885402405450166 0.21 0  0.2934840462506522 0.21 0  0.2984278519562708 0.21 0  0.3033716576618997 0.21 0  0.3083154633675181 0.21 0  0.3132592690731365 0.21 0  0.3182030747787549 0.21 0  0.3231468804843732 0.21 0  0.3280906861899917 0.21 0  0.3330344918956208 0.21 0  0.3379782976012284 0.21 0  0.3429221033068576 0.21 0  0.347865909012476 0.21 0  0.3528097147180944 0.21 0  0.3577535204237128 0.21 0  0.3626973261293311 0.21 0  0.3676411318349495 0.21 0  0.3725849375405788 0.21 0  0.3775287432461877 0.21 0  0.382472548951812 0.21 0  0.3874163546574338 0.21 0  0.3923601603630631 0.21 0  0.3973039660686706 0.21 0  0.4022477717742986 0.21 0  0.4071915774799107 0.21 0  0.4121353831855311 0.21 0  0.4170791888911518 0.21 0  0.4220229945967636 0.21 0  0.4269668003023918 0.21 0  0.4319106060080253 0.21 0  0.4368544117136773 0.21 0  0.4417982174193329 0.21 0  0.4467420231249967 0.21 0  0.4516858288306445 0.21 0  0.4566296345362864 0.21 0  0.461573440241916 0.21 0  0.4665172459475665 0.21 0  0.4714610516531998 0.21 0  0.4764048573588668 0.21 0  0.4813486630645134 0.21 0  0.486292468770176 0.21 0  0.4912362744758066 0.21 0  0.4961800801814611 0.21 0  0.5011238858870897 0.21 0  0.5060676915927493 0.21 0  0.5110114972983872 0.21 0  0.5159553030040036 0.21 0  0.5208991087096415 0.21 0  0.5258429144153002 0.21 0  0.5307867201209391 0.21 0  0.5357305258265987 0.21 0  0.5406743315322367 0.21 0  0.5456181372378529 0.21 0  0.5505619429434908 0.21 0  0.5555057486491456 0.21 0  0.5604495543547885 0.21 0  0.565393360060448 0.21 0  0.5703371657661116 0.21 0  0.5752809714717458 0.21 0  0.5802247771773834 0.21 0  0.5851685828830341 0.21 0  0.5901123885886809 0.21 0  0.5950561942943404 0.21 0  0.5950561942943833 0.19 0  0.590112388588758 0.19 0  0.5851685828831193 0.19 0  0.5802247771774727 0.19 0  0.5752809714718514 0.19 0  0.5703371657662308 0.19 0  0.565393360060618 0.19 0  0.5604495543549889 0.19 0  0.5555057486493581 0.19 0  0.5505619429437035 0.19 0  0.5456181372381043 0.19 0  0.540674331532505 0.19 0  0.5357305258268962 0.19 0  0.530786720121263 0.19 0  0.5258429144156628 0.19 0  0.5208991087100244 0.19 0  0.5159553030044218 0.19 0  0.5110114972988226 0.19 0  0.5060676915932177 0.19 0  0.5011238858875806 0.19 0  0.496180080181972 0.19 0  0.4912362744763531 0.19 0  0.4862924687707343 0.19 0  0.4813486630651046 0.19 0  0.4764048573594966 0.19 0  0.4714610516538683 0.19 0  0.4665172459482555 0.19 0  0.4615734402426349 0.19 0  0.4566296345370104 0.19 0  0.4516858288313808 0.19 0  0.4467420231257716 0.19 0  0.4417982174201465 0.19 0  0.4368544117145297 0.19 0  0.4319106060089131 0.19 0  0.4269668003032866 0.19 0  0.4220229945976482 0.19 0  0.4170791888920056 0.19 0  0.4121353831863594 0.19 0  0.4071915774806995 0.19 0  0.4022477717750478 0.19 0  0.3973039660693901 0.19 0  0.3923601603637548 0.19 0  0.3874163546581082 0.19 0  0.3824725489524824 0.19 0  0.3775287432468258 0.19 0  0.3725849375411773 0.19 0  0.3676411318355085 0.19 0  0.3626973261298614 0.19 0  0.3577535204242108 0.19 0  0.352809714718589 0.19 0  0.347865909012931 0.19 0  0.342922103307292 0.19 0  0.3379782976016536 0.19 0  0.3330344918960152 0.19 0  0.3280906861903751 0.19 0  0.3231468804847171 0.19 0  0.3182030747790592 0.19 0  0.3132592690734012 0.19 0  0.3083154633677581 0.19 0  0.3033716576621197 0.19 0  0.2984278519564813 0.19 0  0.2934840462508429 0.19 0  0.2885402405451874 0.19 0  0.2835964348395295 0.19 0  0.2786526291338716 0.19 0  0.2737088234282243 0.19 0  0.268765017722586 0.19 0  0.2638212120169476 0.19 0  0.2588774063113093 0.19 0  0.2539336006056579 0.19 0  0.6 0.1949999999999783 0  0.6 0.2049999999999729 0  0.2589734265316493 0.2005523893428403 0  0.5431462343853077 0.199999999999969 0  0.5682397894768162 0.1999704585808987 0  0.2774513927118024 0.2007941919421926 0  0.513849583376897 0.1999023426490919 0  0.5286810004937381 0.1999023426490969 0  0.2945108952057646 0.1992911908405386 0  0.5827780831384927 0.1995429801003349 0  0.3104128396569256 0.1999704585808978 0  0.3370001755418551 0.2008294612433967 0  0.4990181662600459 0.1999023426490902 0  0.3552816175709044 0.2000000000000608 0  0.4841867491431925 0.1999023426490849 0  0.3707373713905551 0.2000142376953689 0  0.3898882575102495 0.2000000000000828 0  0.4689857550492734 0.1995416724256694 0  0.4541577316841967 0.1999999999999098 0  0.4043534914018331 0.2000976573509244 0  0.4195510917439569 0.2000000000001057 0  0.4387019778644512 0.1999857623046772 0  0.3202472750256703 0.2000088842146399 0  0.5584053541080851 0.1999911157853577 0  0.4280667146887134 0.1998489048208241 0  0.3467659946265474 0.2001510951794375 0  0.3813726345658908 0.200151095179452 0  0.2860683376922098 0.2000415445706182 0  0.5911223811781194 0.1982449159348744 0  0.2679893161458627 0.201675125646729 0  0.4615734402426278 0.2022503633288003 0  0.4912362744763454 0.2022503633288091 0  0.5060676915931983 0.2022503633288118 0  0.3973039660686774 0.1977496366711965 0  0.4764048573594896 0.2022503633288051 0  0.5208991087100455 0.2022503633288184 0  0.4467420231257656 0.2022503633288 0  0.5357305258268849 0.2022503633288198 0  0.4121353831855317 0.1977496366711976 0  0.3626973261293352 0.1977496366711919 0  0.3033716576618961 0.1977496366711869 0  0.5752809714718229 0.1977496366711503 0  0.550459855919056 0.1971284784737667 0  0.3281927732146841 0.2028715215262406 0  0.5484179020497461 0.2038403215694763 0  0.3302347270839988 0.1961596784305491 0  0.5379210852238114 0.196125181664411 0  0.5230896681069652 0.1961251816644058 0  0.5082582509901222 0.1961251816644098 0  0.5774715308687094 0.2038748183355887 0  0.3011810982649548 0.2038748183355937 0  0.4785954167564111 0.196125181664404 0  0.4934268338732671 0.1961251816644063 0  0.395113406671763 0.2038748183355966 0  0.3605067667324117 0.2038748183355951 0  0.4593828808457146 0.1961251816643993 0  0.4489325825226805 0.1961251816644007 0  0.4099448237886219 0.2038748183355991 0  0.2557862999801971 0.1960858370257295 0  0.2550147360309399 0.2034426429991114 0  0.4348031476464689 0.2037737577641554 0  0.37463620160841 0.1962262422358553 0  0.3406258365864304 0.196046792193989 0  0.2813001681189834 0.1960467921940502 0  0.2912686387439893 0.1960816328649282 0  0.4246705335819892 0.2039532078059544 0  0.350162175732913 0.1960467921941878 0  0.3847688156722694 0.1960467921942359 0  0.316632368538356 0.19615945856337 0  0.5621550011053409 0.2037816492598991 0  0.5624413877019769 0.1960761923611377 0  0.3162395035833128 0.2038679557424692 0  0.2710887134207622 0.1959696443325838 0  0.5873014376403604 0.2047227881030823 0  0.4346679566442709 0.1954651459552513 0  0.4243296504077986 0.1958756980939062 0  0.3402559510833523 0.2047940500290923 0  0.2808684926760933 0.2047742417812656 0  0.2914077033138723 0.2047809517070955 0  0.3747713926104932 0.2045348540448554 0  0.3499216488898867 0.2051753413186305 0  0.3845282888292298 0.205175341318636 0  0.2648144865455052 0.1962089742986374 0  0.5943247643662894 0.2040415423589182 0  0.5320972610456145 0.1956445099050872 0  0.5172658439287727 0.1956445099050854 0  0.3069923255602658 0.2043468033872551 0  0.5024344268119265 0.1956445099050864 0  0.5716603035734351 0.2043468033872761 0  0.4876030096950741 0.1956445099050831 0  0.4728151975296263 0.1956402468909894 0  0.3663301776527538 0.20436745486386 0  0.4651631000724991 0.1956402468909893 0  0.4009372308499527 0.2043554900949198 0  0.4431091716023345 0.1956325451361429 0  0.4157593408842466 0.2043565497109067 0  0.5865057328865416 0.1956918868509067 0  0.5541600609760193 0.2044335994013721 0  0.3244925681577497 0.1955664005986376 0  0.272008018888917 0.2049327968152409 0  0.2633407725863902 0.2042483236346266 0  0.4567948413982566 0.2046536472831198 0  0.4167680012832803 0.1955060004091903 0  0.4716262585151221 0.2046536472831242 0  0.5161054367030595 0.2045563706470633 0  0.4864426024693469 0.2045563706470604 0  0.5012740195862044 0.2045563706470634 0  0.4022810343427545 0.1961423961483001 0  0.4420739040821668 0.2044853411424516 0  0.3673807293464664 0.1955677741328205 0  0.3925253672243162 0.195346352716901 0  0.5405091246712254 0.2046536472831267 0  0.357918727284983 0.1953463527168901 0  0.5307534575528717 0.2038576038516682 0  0.3079697655029555 0.1955637092892754 0  0.2985930588175599 0.1953463527168728 0  0.579671714346879 0.1955441268455555 0  0.5705023726275059 0.1953463527168462 0  0.5112451461103119 0.2035640580783926 0  0.4964137289934448 0.2035640580783915 0  0.4665727251511405 0.2038238154617746 0  0.5259274680675793 0.2038006696000127 0  0.4815823118765752 0.2035640580783898 0  0.4517504165552094 0.2039070625502732 0  0.4071070238280551 0.1961993303999926 0  0.3234846806957546 0.2047001437739977 0  0.5551679484379799 0.1952998562260008 0  0.5457754356464107 0.1954447171286166 0  0.3329307555206357 0.2046017509710421 0  0.4541577316841968 0.1960357661898101 0  0.3358300776141575 0.1950765652117375 0  0.2539718587514912 0.200011552766824 0  0.5826472073721517 0.2039971170156656 0  0.2761021761080182 0.1946948236183283 0  0.3898581462796225 0.2041572776584344 0  0.3552515063402743 0.2041572776584256 0  0.2965028074750666 0.2046578268138723 0  0.4299158836614793 0.1951782397873778 0  0.379426563923736 0.2049969334481307 0  0.2860882692072842 0.2042624797643994 0  0.3449948044168807 0.2051793676155613 0  0.2603922435707652 0.1950997711614917 0  0.5949856943860
[...]
<PointData  Vectors="f_18-1"> 
<DataArray  type="Float64"  Name="f_18-1"  NumberOfComponents="3" format="ascii">-1.4616606525636480e-04 -3.4289155801223038e-03 0.0000000000000000e+00  1.2393637496116200e-04 -3.4315307205511508e-03 0.0000000000000000e+00  0.0000000000000000e+00 0.0000000000000000e+00 0.0000000000000000e+00  0.0000000000000000e+00 0.0000000000000000e+00 0.0000000000000000e+00  -1.0919223601083770e-05 -3.4301529702922785e-03 0.0000000000000000e+00  0.0000000000000000e+00 0.0000000000000000e+00 0.0000000000000000e+00  0.0000000000000000e+00 0.0000000000000000e+00 0.0000000000000000e+00  0.0000000000000000e+00 0.0000000000000000e+00 0.0000000000000000e+00  0.0000000000000000e+00 0.0000000000000000e+00 0.0000000000000000e+00  5.7052738658283480e-06 -5.0154660201080692e-06 0.0000000000000000e+00  1.1869181376102049e-05 -1.0248333749377360e-05 0.0000000000000000e+00  1.7927560117033036e-05 -1.6916718304413673e-05 0.0000000000000000e+00  2.3613257264617974e-05 -2.7976991017947834e-05 0.0000000000000000e+00  2.8792953644749751e-05 -4.1293333274115119e-05 0.0000000000000000e+00  3.3892938584572632e-05 -5.7805269431585813e-05 0.0000000000000000e+00  3.8197553002743248e-05 -7.5738265098888654e-05 0.0000000000000000e+00  4.1720785779399909e-05 -9.6068800624273220e-05 0.0000000000000000e+00  4.4905967756375604e-05 -1.1794850987481876e-04 0.0000000000000000e+00  4.7594300271923027e-05 -1.4110365957109425e-04 0.0000000000000000e+00  5.0215409902926190e-05 -1.6561220701121935e-04 0.0000000000000000e+00  5.2711213532341369e-05 -1.9019170646910163e-04 0.0000000000000000e+00  5.4899709661289291e-05 -2.1627685140469650e-04 0.0000000000000000e+00  5.7598409203854862e-05 -2.4306144608774078e-04 0.0000000000000000e+00  6.0014495126706526e-05 -2.7062999335366786e-04 0.0000000000000000e+00  6.2868436922790003e-05 -2.9973442045206294e-04 0.0000000000000000e+00  6.5836558001922146e-05 -3.2984167536281579e-04 0.0000000000000000e+00  6.8941592621976275e-05 -3.6192600063722442e-04 0.0000000000000000e+00  7.1870061140814282e-05 -3.9508645897286498e-04 0.0000000000000000e+00  7.4877026439517766e-05 -4.3018213452339940e-04 0.0000000000000000e+00  7.7673710463818730e-05 -4.6675824460474337e-04 0.0000000000000000e+00  8.0172213177512105e-05 -5.0478032600977801e-04 0.0000000000000000e+00  8.2798834211181269e-05 -5.4485584840351542e-04 0.0000000000000000e+00  8.5361101928603441e-05 -5.8519643996015019e-04 0.0000000000000000e+00  8.7561901495950193e-05 -6.2719093929886776e-04 0.0000000000000000e+00  8.9617053884676919e-05 -6.6973988301908432e-04 0.0000000000000000e+00  9.1747407703120018e-05 -7.1342497185163892e-04 0.0000000000000000e+00  9.3934651369236772e-05 -7.5788524212720330e-04 0.0000000000000000e+00  9.6183946361383651e-05 -8.0330812020124975e-04 0.0000000000000000e+00  9.9050636856495595e-05 -8.5058553316629166e-04 0.0000000000000000e+00  1.0218110793892313e-04 -8.9810571433681329e-04 0.0000000000000000e+00  1.0513955673817094e-04 -9.4793874962094068e-04 0.0000000000000000e+00  1.0852357648210595e-04 -1.0001721224926988e-03 0.0000000000000000e+00  1.1200104595419080e-04 -1.0530883964590702e-03 0.0000000000000000e+00  1.1492414320616523e-04 -1.1089985738362400e-03 0.0000000000000000e+00  1.1818490480083635e-04 -1.1665086231306579e-03 0.0000000000000000e+00  1.2045958222959428e-04 -1.2257249619179573e-03 0.0000000000000000e+00  1.2264038237924264e-04 -1.2865809018983221e-03 0.0000000000000000e+00  1.2403519152400042e-04 -1.3482035837784588e-03 0.0000000000000000e+00  1.2500443578640879e-04 -1.4105712135963821e-03 0.0000000000000000e+00  1.2568589871208473e-04 -1.4731317808184510e-03 0.0000000000000000e+00  1.2615413532409434e-04 -1.5359056821005808e-03 0.0000000000000000e+00  1.2653265001694622e-04 -1.5985593775874681e-03 0.0000000000000000e+00  1.2704657613955874e-04 -1.6611846149444736e-03 0.0000000000000000e+00  1.2784184935508882e-04 -1.7240262410809150e-03 0.0000000000000000e+00  1.2873908691744902e-04 -1.7872000847954071e-03 0.0000000000000000e+00  1.2992439797462156e-04 -1.8510407048435171e-03 0.0000000000000000e+00  1.3130511070415606e-04 -1.9157686813698622e-03 0.0000000000000000e+00  1.3242817664036203e-04 -1.9816983306293434e-03 0.0000000000000000e+00  1.3339546933613882e-04 -2.0486005970020873e-03 0.0000000000000000e+00  1.3391655326131020e-04 -2.1164309661240201e-03 0.0000000000000000e+00  1.3387033367243844e-04 -2.1850666356458483e-03 0.0000000000000000e+00  1.3325885030995819e-04 -2.2537968582404624e-03 0.0000000000000000e+00  1.3196069825045906e-04 -2.3224072844832667e-03 0.0000000000000000e+00  1.3044099661145599e-04 -2.3903642239357856e-03 0.0000000000000000e+00  1.2857005436361349e-04 -2.4573432627007868e-03 0.0000000000000000e+00  1.2657279663449612e-04 -2.5231649891146531e-03 0.0000000000000000e+00  1.2484196512079510e-04 -2.5878085458038488e-03 0.0000000000000000e+00  1.2359126067884295e-04 -2.6514217810392387e-03 0.0000000000000000e+00  1.2284873699166363e-04 -2.7141635630737642e-03 0.0000000000000000e+00  1.2256624485264888e-04 -2.7766457170807645e-03 0.0000000000000000e+00  1.2261622153396110e-04 -2.8391660607228770e-03 0.0000000000000000e+00  1.2308648997315033e-04 -2.9021384730655059e-03 0.0000000000000000e+00  1.2395809564691389e-04 -2.9658912213813685e-03 0.0000000000000000e+00  1.2459287820820259e-04 -3.0305186870898657e-03 0.0000000000000000e+00  1.2518846774975590e-04 -3.0964824942058327e-03 0.0000000000000000e+00  1.2553727822007794e-04 -3.1628399994141354e-03 0.0000000000000000e+00  1.2543453441922546e-04 -3.2299617881414158e-03 0.0000000000000000e+00  1.2504838634598065e-04 -3.2973438692293867e-03 0.0000000000000000e+00  1.2449916690080332e-04 -3.3645024414232240e-03 0.0000000000000000e+00  -1.4555242230203882e-04 -3.3620987482392757e-03 0.0000000000000000e+00  -1.4461975311369363e-04 -3.2950481776722810e-03 0.0000000000000000e+00  -1.4347504003041941e-04 -3.2276451164492928e-03 0.0000000000000000e+00  -1.4200719920222601e-04 -3.1606282367177474e-03 0.0000000000000000e+00  -1.4034023303161939e-04 -3.0943200951155255e-03 0.0000000000000000e+00  -1.3864751863189957e-04 -3.0286102007074044e-03 0.0000000000000000e+00  -1.3713418175618429e-04 -2.9640790163370221e-03 0.0000000000000000e+00  -1.3567196490223634e-04 -2.9003838137135053e-03 0.0000000000000000e+00  -1.3482730834806894e-04 -2.8374246684726104e-03 0.0000000000000000e+00  -1.3450914743979824e-04 -2.7748204498286386e-03 0.0000000000000000e+00  -1.3475205051200549e-04 -2.7123616291644995e-03 0.0000000000000000e+00  -1.3542749156373072e-04 -2.6494794529389647e-03 0.0000000000000000e+00  -1.3652916137215905e-04 -2.5854947050636548e-03 0.0000000000000000e+00  -1.3782940531020433e-04 -2.5211639953533478e-03 0.0000000000000000e+00  -1.3888855753116218e-04 -2.4552947615583544e-03 0.0000000000000000e+00  -1.3977267112880214e-04 -2.3880433824678212e-03 0.0000000000000000e+00  -1.4041296616788644e-04 -2.3204236862506863e-03 0.0000000000000000e+00  -1.4027319941503969e-04 -2.2517586725484670e-03 0.0000000000000000e+00  -1.3954754976487328e-04 -2.1830729034868681e-03 0.0000000000000000e+00  -1.3842567369417276e-04 -2.1144622922207429e-03 0.0000000000000000e+00  -1.3691848842316542e-04 -2.0465329889633689e-03 0.0000000000000000e+00  -1.3508845452818948e-04 -1.9799086225131489e-03 0.0000000000000000e+00  -1.3315245536331264e-04 -1.9136905734663981e-03 0.0000000000000000e+00  -1.3159557338602196e-04 -1.8489854451457970e-03 0.0000000000000000e+00  -1.3019521360436550e-04 -1.7853292385864516e-03 0.0000000000000000e+00  -1.2896555046978299e-04 -1.7219369506202410e-03 0.0000000000000000e+00  -1.2814864955671825e-04 -1.6592062008334318e-03 0.0000000000000000e+00  -1.2743913620686051e-04 -1.5965442912358105e-03 0.0000000000000000e+00  -1.2674418844663414e-04 -1.5338290926644712e-03 0.0000000000000000e+00  -1.2596328280255805e-04 -1.4711013341736684e-03 0.0000000000000000e+00  -1.2463378003490282e-04 -1.4086139619249038e-03 0.0000000000000000e+00  -1.2293385141349213e-04 -1.3462374196188849e-03 0.0000000000000000e+00  -1.2071694612344631e-04 -1.2846329169258516e-03 0.0000000000000000e+00  -1.1818354801608933e-04 -1.2238809499517534e-03 0.0000000000000000e+00  -1.1513902994393963e-04 -1.1645262142595445e-03 0.0000000000000000e+00  -1.1191149876142491e-04 -1.1073350468526750e-03 0.0000000000000000e+00  -1.0812753270803166e-04 -1.0515015445367979e-03 0.0000000000000000e+00  -1.0457573320122951e-04 -9.9812810339336639e-04 0.0000000000000000e+00  -1.0090395290482049e-04 -9.4656619752102593e-04 0.0000000000000000e+00  -9.7417699372841086e-05 -8.9694444333892221e-04 0.0000000000000000e+00  -9.4422610655032032e-05 -8.4903089497835745e-04 0.0000000000000000e+00  -9.2017971662543865e-05 -8.0231849806719447e-04 0.0000000000000000e+00  -8.9836371960832955e-05 -7.5690571258112962e-04 0.0000000000000000e+00  -8.7326556257071923e-05 -7.1223789809374911e-04 0.0000000000000000e+00  -8.5294996570511294e-05 -6.6864385794013844e-04 0.0000000000000000e+00  -8.2817824404010204e-05 -6.2606801699844998e-04 0.0000000000000000e+00  -8.0583465038517132e-05 -5.8420631989363110e-04 0.0000000000000000e+00  -7.8002281491353599e-05 -5.4364624327491980e-04 0.0000000000000000e+00  -7.5465972963654763e-05 -5.0397728156664420e-04 0.0000000000000000e+00  -7.2815926399566095e-05 -4.6589726807049370e-04 0.0000000000000000e+00  -6.9449936387408874e-05 -4.2900239773551271e-04 0.0000000000000000e+00  -6.6643465624106050e-05 -3.9393626040141425e-04 0.0000000000000000e+00  -6.3317677542526319e-05 -3.6071721490079479e-04 0.0000000000000000e+00  -6.0787829416671330e-05 -3.2894444742001625e-04 0.0000000000000000e+00  -5.8283462873026872e-05 -2.9917487342274416e-04 0.0000000000000000e+00  -5.5812748996437639e-05 -2.6980451505947387e-04 0.0000000000000000e+00  -5.3804839385221115e-05 -2.4221777278704305e-04 0.0000000000000000e+00  -5.1461236938828530e-05 -2.1544167304955779e-04 0.0000000000000000e+00  -4.9582476995705616e-05 -1.8948326953761120e-04 0.0000000000000000e+00  -4.7514809252076808e-05 -1.6462244389924954e-04 0.0000000000000000e+00  -4.5353927627412009e-05 -1.4036505237634210e-04 0.0000000000000000e+00  -4.2889777642434694e-05 -1.1733465728804480e-04 0.0000000000000000e+00  -3.9537020778034320e-05 -9.5216103351041163e-05 0.0000000000000000e+00  -3.6300959150174298e-05 -7.4983901582057218e-05 0.0000000000000000e+00  -3.1793020359375649e-05 -5.6516468280970999e-05 0.0000000000000000e+00  -2.7405294471964499e-05 -4.0937799796835474e-05 0.0000000000000000e+00  -2.1829359146583089e-05 -2.7811464269633661e-05 0.0000000000000000e+00  -1.6584265137296208e-05 -1.6841788527314895e-05 0.0000000000000000e+00  -1.1210127156196298e-05 -9.1321305432490215e-06 0.0000000000000000e+00  -5.6180897096019180e-06 -5.0684141957028912e-06 0.0000000000000000e+00  -7.8504713827165095e-05 -3.4294735601764405e-03 0.0000000000000000e+00  5.6467612599013210e-05 -3.4308922891990350e-03 0.0000000000000000e+00  9.4747857034818656e-07 -5.2763623362969356e-06 0.0000000000000000e+00  -5.8668936769930200e-06 -2.6823662477038985e-03 0.0000000000000000e+00  -7.2220350087233826e-06 -3.0013589994406760e-03 0.0000000000000000e+00  3.1121393544621260e-06 -4.9735493958593616e-05 0.0000000000000000e+00  -5.3125379619838003e-06 -2.2926204517372791e-03 0.0000000000000000e+00  -6.8003513867186573e-06 -2.4951498507727000e-03 0.0000000000000000e+00  -1.8700700768694926e-06 -1.2018237950622798e-04 0.0000000000000000e+00  -1.4735682559581555e-05 -3.1958449716243827e-03 0.0000000000000000e+00  1.5419663858593468e-06 -1.9925322302519506e-04 0.0000000000000000e+00  7.8803443158624114e-06 -3.5285160107048473e-04 0.0000000000000000e+00  -3.3205106722596135e-06 -2.0858908922448969e-03 0.0000000000000000e+00  2.5892263178141416e-06 -4.8343588681192391e-04 0.0000000000000000e+00  -2.0899215896030349e-06 -1.8861298610251920e-03 0.0000000000000000e+00  2.3490749554599160e-06 -6.0908011087603721e-04 0.0000000000000000e+00  2.2509449325943955e-06 -7.7846269333324992e-04 0.0000000000000000e+00  -6.4102492082561248e-06 -1.6908542560249552e-03 0.0000000000000000e+00  -2.4161551391042446e-07 -1.5030209547826977e-03 0.0000000000000000e+00  3.3015803768978086e-06 -9.1637860525337674e-04 0.0000000000000000e+00  1.9218006358392269e-06 -1.0776103879720151e-03 0.0000000000000000e+00  4.3867785835557699e-07 -1.3071040212105773e-03 0.0000000000000000e+00  2.1002635957004423e-06 -2.5216378686489271e-04 0.0000000000000000e+00  -6.2410980612190630e-06 -2.8746944785091396e-03 0.0000000000000000e+00  -2.5160806026397741e-07 -1.1766410778387346e-03 0.0000000000000000e+00  3.5894716117643601e-06 -4.1968821535370322e-04 0.0000000000000000e+00  3.4751617674995806e-06 -7.0156045799976978e-04 0.0000000000000000e+00  1.0159286206483082e-06 -8.3345954724711732e-05 0.0000000000000000e+00  -3.3520443912557372e-05 -3.3094379674250287e-03 0.0000000000000000e+00  3.9543133789645753e-06 -2.2297673149402017e-05 0.0000000000000000e+00  2.8146616548591289e-05 -1.5973315452261683e-03 0.0000000000000000e+00  2.8778962449990498e-05 -1.9800553316910762e-03 0.0000000000000000e+00  2.7637732172656864e-05 -2.1840826052785239e-03 0.0000000000000000e+00  -1.9611730274080406e-05 -8.4770627712984180e-04 0.0000000000000000e+00  2.8615691516791955e-05 -1.7856888522237632e-03 0.0000000000000000e+00  2.5468373214019738e-05 -2.3902308622107604e-03 0.0000000000000000e+00  2.8024667473190154e-05 -1.4089914264226154e-03 0.0000000000000000e+00  2.3755204777224913e-05 -2.5877352983220679e-03 0.0000000000000000e+00  -2.1792569434920316e-05 -9.9661524080542981e-04 0.0000000000000000e+00  -1.5666221606820414e-05 -5.4231426028789921e-04 0.0000000000000000e+00  -9.4217083541272908e-06 -1.6337788710693352e-04 0.0000000000000000e+00  -3.7420284819526373e-05 -3.0944247228897989e-03 0.0000000000000000e+00  -4.3062273000431128e-05 -2.7742581244118627e-03 0.0000000000000000e+00  1.9688825046782072e-05 -2.9829201785372492e-04 0.0000000000000000e+00  4.3724289521900415e-05 -2.7490535531377626e-03 0.0000000000000000e+00  -2.1403971373424654e-05 -3.1057466707365942e-04 0.0000000000000000e+00  -5.6452226259364015e-05 -2.6153499718995984e-03 0.0000000000000000e+00  -5.7070341111378416e-05 -2.4193906136597341e-03 0.0000000000000000e+00  -5.5922082083185590e-05 -2.2140141128940104e-03 0.0000000000000000e+00  4.3582276152400037e-05 -3.1245606154975398e-03 0.0000000000000000e+00  1.9990642666477655e-05 -1.5287728244108042e-04 0.0000000000000000e+00  -5.1055867938656870e-05 -1.8133111369944633e-03 0.0000000000000000e+00  -5.3330352079326738e-05 -2.0090538816680695e-03 0.0000000000000000e+00  3.9580080084046007e-05 -8.2741224650969365e-04 0.0000000000000000e+00  3.3260493228937859e-05 -5.2508722204902601e-04 0.0000000000000000e+00  -4.9547742578465981e-05 -1.5690517649931139e-03 0.0000000000000000e+00  -4.8308010334626789e-05 -1.4362165387983461e-03 0.0000000000000000e+00  4.3146513592899570e-05 -9.7413690421323067e-04 0.0000000000000000e+00  -2.3154243347510034e-06 -2.3079633313402326e-06 0.0000000000000000e+00  2.0529796906490109e-06 -1.8696126541114136e-06 0.0000000000000000e+00  4.6223052714597405e-05 -1.2592001039862710e-03 0.0000000000000000e+00  -3.0410982246693238e-05 -6.4257569234248580e-04 0.0000000000000000e+00  -2.4306484245259984e-05 -3.7697723485618541e-04 0.0000000000000000e+00  -1.2783984769953169e-05 -6.4106859287153760e-05 0.0000000000000000e+00  -1.5070193687746022e-05 -1.0559714683276853e-04 0.0000000000000000e+00  4.6928747594956198e-05 -1.1374021623980733e-03 0.0000000000000000e+00  -2.6312541044215013e-05 -4.4445336385297133e-04 0.0000000000000000e+00  -3.3623542997539097e-05 -7.3182056087393573e-04 0.0000000000000000e+00  -1.9114615903569458e-05 -2.3246961581947160e-04 0.0000000000000000e+00  4.2863775179616555e-05 -2.9229576754863712e-03 0.0000000000000000e+00  -5.7419424773317784e-05 -2.9260041871770315e-03 0.0000000000000000e+00  2.2922567689980248e-05 -2.3065038999964098e-04 0.0000000000000000e+00  -9.8152271860667206e-06 -3.0889407256670467e-05 0.0000000000000000e+00  5.4124294599952735e-05 -3.2583170189583316e-03 0.0000000000000000e+00  -5.3585707195690757e-05 -1.2568662641734717e-03 0.0000000000000000e+00  -4.5521842474340026e-05 -1.1324132485349048e-03 0.0000000000000000e+00  3.5004121574648012e-05 -3.7511552798821140e-04 0.0000000000000000e+00  1.7208181090254132e-05 -6.3017528870421452e-05 0.0000000000000000e+00  2.1313907983556859e-05 -1.0681830735785514e-04 0.0000000000000000e+00  4.1287550366019122e-05 -6.4430609441135426e-04 0.0000000000000000e+00  4.0520229774857397e-05 -4.4365530842160937e-04 0.0000000000000000e+00  4.9037835714369816e-05 -7.3052028131457886e-04 0.0000000000000000e+00  -6.3309621614086022e-06 -1.6199420479555314e-05 0.0000000000000000e+00  4.4148446389752078e-05 -3.3538458188863952e-03 0.0000000000000000e+00  -6.3038580794123355e-05 -2.5395959898545702e-03 0.0000000000000000e+00  -6.3302111019604816e-05 -2.3394553812630401e-03 0.0000000000000000e+00  2.3443835635907481e-05 -1.8216312930784451e-04 0.0000000000000000e+00  -6.1580720180613174e-05 -2.1328761917608911e-03 0.0000000000000000e+00  5.0175674078584570e-05 -3.0470200085292989e-03 0.0000000000000000e+00  -5.8826707063390377e-05 -1.9309961387251786e-03 0.0000000000000000e+00  -5.6817760686093632e-05 -1.7392910350854135e-03 0.0000000000000000e+00  3.8087071276986778e-05 -5.7276277872299276e-04 0.0000000000000000e+00  -5.6099923319850480e-05 -1.6422236788065936e-03 0.0000000000000000e+00  4.5410648237621310e-05 -8.8343505708958318e-04 0.0000000000000000e+00  -5.3599433677577505e-05 -1.3624702853299859e-03 0.0000000000000000e+00  4.9539403764364846e-05 -1.0365425603796408e-03 0.0000000000000000e+00  -6.7044165421221104e-05 -3.2462052414335258e-03 0.0000000000000000e+00  5.1304528245365841e-05 -2.8214524886522379e-03 0.0000000000000000e+00  -2.3934099579888330e-05 -2.7649338265054265e-04 0.0000000000000000e+00  1.3386461373358497e-05 -3.3431425908372818e-05 0.0000000000000000e+00  7.1489524016450868e-06 -1.2977451036867909e-05 0.0000000000000000e+00  5.8439449051332239e-05 -1.5370760871906189e-03 0.0000000000000000e+00  -4.7171779499781305e-05 -1.0468701493957114e-03 0.0000000000000000e+00  5.9342344155208999e-05 -1.7250310002587526e-03 0.0000000000000000e+00  5.7492446702360843e-05 -2.3244060579024378e-03 0.0000000000000000e+00  5.9336017678932051e-05 -1.9164371031215085e-03 0.0000000000000000e+00  5.9483866162728238e-05 -2.1176465150130838e-03 0.0000000000000000e+00  -3.6376468216456463e-05 -8.9589840833746302e-04 0.0000000000000000e+00  5.5572742041340316e-05 -1.3502816389887491e-03 0.0000000000000000e+00  -3.4363462656254483e-05 -5.8105575812194296e-04 0.0000000000000000e+00  -4.1672168274372088e-05 -8.0290067191628981e-04 0.0000000000000000e+00  5.4705687262070467e-05 -2.6491942555404292e-03 0.0000000000000000e+00  -3.3568976447973138e-05 -5.0416674422863663e-04 0.0000000000000000e+00  4.5448057446701654e-05 -2.5229202279731587e-03 0.0000000000000000e+00  -2.1037578234936544e-05 -1.8687288553979062e-04 0.0000000000000000e+00  -2.0204941102914058e-05 -1.3995145301114241e-04 0.0000000000000000e+00  -6.7637017285930841e-05 -3.1532926329294430e-03 0.0000000000000000e+00  -6.8318938454746793e-05 -3.0308187951444011e-03 0.0000000000000000e+00  4.4855271583466988e-05 -2.2566339324292702e-03 0.0000000000000000e+00  4.6320112345976540e-05 -2.0504897929275842e-03 0.0000000000000000e+00  4.8398329974949159e-05 -1.6608137196675548e-03 0.0000000000000000e+00  4.5468179199067476e-05 -2.4586602568320037e-03 0.0000000000000000e+00  4.5989070896135821e-05 -1.8525822268145292e-03 0.0000000000000000e+00  4.8938548254444940e-05 -1.4728905988933016e-03 0.0000000000000000e+00  -3.6932436967716064e-05 -9.4418611258729676e-04 0.0000000000000000e+00  2.9492440868980610e-05 -2.7110861068274135e-04 0.0000000000000000e+00  -6.6795846201799102e-05 -2.8334237446214126e-03 0.0000000000000000e+00  -6.4820735155206465e-05 -2.7150989716331563e-03 0.0000000000000000e+00  3.1482224907456870e-05 -3.2752941926067030e-04 0.0000000000000000e+00  -5.0158979902111713e-0