<?xml version="1.0"?>
<VTKFile type="UnstructuredGrid"  version="0.1"  >
<UnstructuredGrid>
<Piece  NumberOfPoints="439" NumberOfCells="725">
<Points>
<DataArray  type="Float64"  NumberOfComponents="3"  format="ascii">0.6 0.19 0  0.6 0.21 0  0.2489897949 0.21 0  0.2489897949 0.19 0  0.6 0.2 0  0.2496355385699469 0.2060260530378829 0  0.249959460510575 0.2020130349814059 0  0.2499594605105767 0.1979869650186357 0  0.24963553856995 0.1939739469621422 0  0.2539336006056293 0.21 0  0.2588774063112542 0.21 0  0.2638212120168921 0.21 0  0.26876501772253 0.21 0  0.2737088234281569 0.21 0  0.2786526291337753 0.21 0  0.2835964348393937 0.21 0  0.2885402405450166 0.21 0  0.2934840462506522 0.21 0  0.2984278519562708 0.21 0  0.3033716576618997 0.21 0  0.3083154633675181 0.21 0  0.3132592690731365 0.21 0  0.3182030747787549 0.21 0  0.3231468804843732 0.21 0  0.3280906861899917 0.21 0  0.3330344918956208 0.21 0  0.3379782976012284 0.21 0  0.3429221033068576 0.21 0  0.347865909012476 0.21 0  0.3528097147180944 0.21 0  0.3577535204237128 0.21 0  0.3626973261293311 0.21 0  0.3676411318349495 0.21 0  0.3725849375405788 0.21 0  0.3775287432461877 0.21 0  0.382472548951812 0.21 0  0.3874163546574338 0.21 0  0.3923601603630631 0.21 0  0.3973039660686706 0.21 0  0.4022477717742986 0.21 0  0.4071915774799107 0.21 0  0.4121353831855311 0.21 0  0.4170791888911518 0.21 0  0.4220229945967636 0.21 0  0.4269668003023918 0.21 0  0.4319106060080253 0.21 0  0.4368544117136773 0.21 0  0.4417982174193329 0.21 0  0.4467420231249967 0.21 0  0.4516858288306445 0.21 0  0.4566296345362864 0.21 0  0.461573440241916 0.21 0  0.4665172459475665 0.21 0  0.4714610516531998 0.21 0  0.4764048573588668 0.21 0  0.4813486630645134 0.21 0  0.486292468770176 0.21 0  0.4912362744758066 0.21 0  0.4961800801814611 0.21 0  0.5011238858870897 0.21 0  0.5060676915927493 0.21 0  0.5110114972983872 0.21 0  0.5159553030040036 0.21 0  0.5208991087096415 0.21 0  0.5258429144153002 0.21 0  0.5307867201209391 0.21 0  0.5357305258265987 0.21 0  0.5406743315322367 0.21 0  0.5456181372378529 0.21 0  0.5505619429434908 0.21 0  0.5555057486491456 0.21 0  0.5604495543547885 0.21 0  0.565393360060448 0.21 0  0.5703371657661116 0.21 0  0.5752809714717458 0.21 0  0.5802247771773834 0.21 0  0.5851685828830341 0.21 0  0.5901123885886809 0.21 0  0.5950561942943404 0.21 0  0.5950561942943833 0.19 0  0.590112388588758 0.19 0  0.5851685828831193 0.19 0  0.5802247771774727 0.19 0  0.5752809714718514 0.19 0  0.5703371657662308 0.19 0  0.565393360060618 0.19 0  0.5604495543549889 0.19 0  0.5555057486493581 0.19 0  0.5505619429437035 0.19 0  0.5456181372381043 0.19 0  0.540674331532505 0.19 0  0.5357305258268962 0.19 0  0.530786720121263 0.19 0  0.5258429144156628 0.19 0  0.5208991087100244 0.19 0  0.5159553030044218 0.19 0  0.5110114972988226 0.19 0  0.5060676915932177 0.19 0  0.5011238858875806 0.19 0  0.496180080181972 0.19 0  0.4912362744763531 0.19 0  0.4862924687707343 0.19 0  0.4813486630651046 0.19 0  0.4764048573594966 0.19 0  0.4714610516538683 0.19 0  0.4665172459482555 0.19 0  0.4615734402426349 0.19 0  0.4566296345370104 0.19 0  0.4516858288313808 0.19 0  0.4467420231257716 0.19 0  0.4417982174201465 0.19 0  0.4368544117145297 0.19 0  0.4319106060089131 0.19 0  0.4269668003032866 0.19 0  0.4220229945976482 0.19 0  0.4170791888920056 0.19 0  0.4121353831863594 0.19 0  0.4071915774806995 0.19 0  0.4022477717750478 0.19 0  0.3973039660693901 0.19 0  0.3923601603637548 0.19 0  0.3874163546581082 0.19 0  0.3824725489524824 0.19 0  0.3775287432468258 0.19 0  0.3725849375411773 0.19 0  0.3676411318355085 0.19 0  0.3626973261298614 0.19 0  0.3577535204242108 0.19 0  0.352809714718589 0.19 0  0.347865909012931 0.19 0  0.342922103307292 0.19 0  0.3379782976016536 0.19 0  0.3330344918960152 0.19 0  0.3280906861903751 0.19 0  0.3231468804847171 0.19 0  0.3182030747790592 0.19 0  0.3132592690734012 0.19 0  0.3083154633677581 0.19 0  0.3033716576621197 0.19 0  0.2984278519564813 0.19 0  0.2934840462508429 0.19 0  0.2885402405451874 0.19 0  0.2835964348395295 0.19 0  0.2786526291338716 0.19 0  0.2737088234282243 0.19 0  0.268765017722586 0.19 0  0.2638212120169476 0.19 0  0.2588774063113093 0.19 0  0.2539336006056579 0.19 0  0.6 0.1949999999999783 0  0.6 0.2049999999999729 0  0.2589734265316493 0.2005523893428403 0  0.5431462343853077 0.199999999999969 0  0.5682397894768162 0.1999704585808987 0  0.2774513927118024 0.2007941919421926 0  0.513849583376897 0.1999023426490919 0  0.5286810004937381 0.1999023426490969 0  0.2945108952057646 0.1992911908405386 0  0.5827780831384927 0.1995429801003349 0  0.3104128396569256 0.1999704585808978 0  0.3370001755418551 0.2008294612433967 0  0.4990181662600459 0.1999023426490902 0  0.3552816175709044 0.2000000000000608 0  0.4841867491431925 0.1999023426490849 0  0.3707373713905551 0.2000142376953689 0  0.3898882575102495 0.2000000000000828 0  0.4689857550492734 0.1995416724256694 0  0.4541577316841967 0.1999999999999098 0  0.4043534914018331 0.2000976573509244 0  0.4195510917439569 0.2000000000001057 0  0.4387019778644512 0.1999857623046772 0  0.3202472750256703 0.2000088842146399 0  0.5584053541080851 0.1999911157853577 0  0.4280667146887134 0.1998489048208241 0  0.3467659946265474 0.2001510951794375 0  0.3813726345658908 0.200151095179452 0  0.2860683376922098 0.2000415445706182 0  0.5911223811781194 0.1982449159348744 0  0.2679893161458627 0.201675125646729 0  0.4615734402426278 0.2022503633288003 0  0.4912362744763454 0.2022503633288091 0  0.5060676915931983 0.2022503633288118 0  0.3973039660686774 0.1977496366711965 0  0.4764048573594896 0.2022503633288051 0  0.5208991087100455 0.2022503633288184 0  0.4467420231257656 0.2022503633288 0  0.5357305258268849 0.2022503633288198 0  0.4121353831855317 0.1977496366711976 0  0.3626973261293352 0.1977496366711919 0  0.3033716576618961 0.1977496366711869 0  0.5752809714718229 0.1977496366711503 0  0.550459855919056 0.1971284784737667 0  0.3281927732146841 0.2028715215262406 0  0.5484179020497461 0.2038403215694763 0  0.3302347270839988 0.1961596784305491 0  0.5379210852238114 0.196125181664411 0  0.5230896681069652 0.1961251816644058 0  0.5082582509901222 0.1961251816644098 0  0.5774715308687094 0.2038748183355887 0  0.3011810982649548 0.2038748183355937 0  0.4785954167564111 0.196125181664404 0  0.4934268338732671 0.1961251816644063 0  0.395113406671763 0.2038748183355966 0  0.3605067667324117 0.2038748183355951 0  0.4593828808457146 0.1961251816643993 0  0.4489325825226805 0.1961251816644007 0  0.4099448237886219 0.2038748183355991 0  0.2557862999801971 0.1960858370257295 0  0.2550147360309399 0.2034426429991114 0  0.4348031476464689 0.2037737577641554 0  0.37463620160841 0.1962262422358553 0  0.3406258365864304 0.196046792193989 0  0.2813001681189834 0.1960467921940502 0  0.2912686387439893 0.1960816328649282 0  0.4246705335819892 0.2039532078059544 0  0.350162175732913 0.1960467921941878 0  0.3847688156722694 0.1960467921942359 0  0.316632368538356 0.19615945856337 0  0.5621550011053409 0.2037816492598991 0  0.5624413877019769 0.1960761923611377 0  0.3162395035833128 0.2038679557424692 0  0.2710887134207622 0.1959696443325838 0  0.5873014376403604 0.2047227881030823 0  0.4346679566442709 0.1954651459552513 0  0.4243296504077986 0.1958756980939062 0  0.3402559510833523 0.2047940500290923 0  0.2808684926760933 0.2047742417812656 0  0.2914077033138723 0.2047809517070955 0  0.3747713926104932 0.2045348540448554 0  0.3499216488898867 0.2051753413186305 0  0.3845282888292298 0.205175341318636 0  0.2648144865455052 0.1962089742986374 0  0.5943247643662894 0.2040415423589182 0  0.5320972610456145 0.1956445099050872 0  0.5172658439287727 0.1956445099050854 0  0.3069923255602658 0.2043468033872551 0  0.5024344268119265 0.1956445099050864 0  0.5716603035734351 0.2043468033872761 0  0.4876030096950741 0.1956445099050831 0  0.4728151975296263 0.1956402468909894 0  0.3663301776527538 0.20436745486386 0  0.4651631000724991 0.1956402468909893 0  0.4009372308499527 0.2043554900949198 0  0.4431091716023345 0.1956325451361429 0  0.4157593408842466 0.2043565497109067 0  0.5865057328865416 0.1956918868509067 0  0.5541600609760193 0.2044335994013721 0  0.3244925681577497 0.1955664005986376 0  0.272008018888917 0.2049327968152409 0  0.2633407725863902 0.2042483236346266 0  0.4567948413982566 0.2046536472831198 0  0.4167680012832803 0.1955060004091903 0  0.4716262585151221 0.2046536472831242 0  0.5161054367030595 0.2045563706470633 0  0.4864426024693469 0.2045563706470604 0  0.5012740195862044 0.2045563706470634 0  0.4022810343427545 0.1961423961483001 0  0.4420739040821668 0.2044853411424516 0  0.3673807293464664 0.1955677741328205 0  0.3925253672243162 0.195346352716901 0  0.5405091246712254 0.2046536472831267 0  0.357918727284983 0.1953463527168901 0  0.5307534575528717 0.2038576038516682 0  0.3079697655029555 0.1955637092892754 0  0.2985930588175599 0.1953463527168728 0  0.579671714346879 0.1955441268455555 0  0.5705023726275059 0.1953463527168462 0  0.5112451461103119 0.2035640580783926 0  0.4964137289934448 0.2035640580783915 0  0.4665727251511405 0.2038238154617746 0  0.5259274680675793 0.2038006696000127 0  0.4815823118765752 0.2035640580783898 0  0.4517504165552094 0.2039070625502732 0  0.4071070238280551 0.1961993303999926 0  0.3234846806957546 0.2047001437739977 0  0.5551679484379799 0.1952998562260008 0  0.5457754356464107 0.1954447171286166 0  0.3329307555206357 0.2046017509710421 0  0.4541577316841968 0.1960357661898101 0  0.3358300776141575 0.1950765652117375 0  0.2539718587514912 0.200011552766824 0  0.5826472073721517 0.2039971170156656 0  0.2761021761080182 0.1946948236183283 0  0.3898581462796225 0.2041572776584344 0  0.3552515063402743 0.2041572776584256 0  0.2965028074750666 0.2046578268138723 0  0.4299158836614793 0.1951782397873778 0  0.379426563923736 0.2049969334481307 0  0.2860882692072842 0.2042624797643994 0  0.3449948044168807 0.2051793676155613 0  0.2603922435707652 0.1950997711614917 0  0.5949856943860
[...]
<PointData  Vectors="f_18-1"> 
<DataArray  type="Float64"  Name="f_18-1"  NumberOfComponents="3" format="ascii">-1.1861385804864512e-02 -7.3948559435095138e-02 0.0000000000000000e+00  -6.3236538343242306e-03 -7.4730459917430769e-02 0.0000000000000000e+00  0.0000000000000000e+00 0.0000000000000000e+00 0.0000000000000000e+00  0.0000000000000000e+00 0.0000000000000000e+00 0.0000000000000000e+00  -9.0925030229543954e-03 -7.4339494599663547e-02 0.0000000000000000e+00  0.0000000000000000e+00 0.0000000000000000e+00 0.0000000000000000e+00  0.0000000000000000e+00 0.0000000000000000e+00 0.0000000000000000e+00  0.0000000000000000e+00 0.0000000000000000e+00 0.0000000000000000e+00  0.0000000000000000e+00 0.0000000000000000e+00 0.0000000000000000e+00  1.0475592774599511e-04 -9.1603028964180769e-05 0.0000000000000000e+00  2.1930956107921561e-04 -1.9182726745440681e-04 0.0000000000000000e+00  3.3211817403055565e-04 -3.1970649066170246e-04 0.0000000000000000e+00  4.3701525710268015e-04 -5.3215031715208010e-04 0.0000000000000000e+00  5.3438948451150722e-04 -7.9014181218357718e-04 0.0000000000000000e+00  6.3311590473876531e-04 -1.1126794799714722e-03 0.0000000000000000e+00  7.1898491454220031e-04 -1.4683895095222771e-03 0.0000000000000000e+00  7.9156992309235721e-04 -1.8825610603601180e-03 0.0000000000000000e+00  8.6163448136049553e-04 -2.3426807880095558e-03 0.0000000000000000e+00  9.2159494468778023e-04 -2.8484370771110607e-03 0.0000000000000000e+00  9.8103919411618619e-04 -3.4154099974011802e-03 0.0000000000000000e+00  1.0385139277477220e-03 -3.9921136515187437e-03 0.0000000000000000e+00  1.0751672699119386e-03 -4.6364835991691521e-03 0.0000000000000000e+00  1.1216015423550021e-03 -5.3177464851246487e-03 0.0000000000000000e+00  1.1448629157424900e-03 -6.0313909485613998e-03 0.0000000000000000e+00  1.1650884652934341e-03 -6.7936252653248205e-03 0.0000000000000000e+00  1.1762890736988227e-03 -7.5833894319075343e-03 0.0000000000000000e+00  1.1769960240782030e-03 -8.4198683039792815e-03 0.0000000000000000e+00  1.1673344953057015e-03 -9.2751396344174820e-03 0.0000000000000000e+00  1.1502787203222736e-03 -1.0170034780393264e-02 0.0000000000000000e+00  1.1236347937274101e-03 -1.1091991852175251e-02 0.0000000000000000e+00  1.0868419019372578e-03 -1.2040440013713795e-02 0.0000000000000000e+00  1.0466268129173282e-03 -1.3032574248003175e-02 0.0000000000000000e+00  1.0048316021724420e-03 -1.4030900352006010e-02 0.0000000000000000e+00  9.4852067205960860e-04 -1.5067516764723629e-02 0.0000000000000000e+00  8.8415407510535299e-04 -1.6119532795771330e-02 0.0000000000000000e+00  8.1262331824658734e-04 -1.7199830788269962e-02 0.0000000000000000e+00  7.3336357797892612e-04 -1.8300126003281146e-02 0.0000000000000000e+00  6.4527599060896731e-04 -1.9419024610970642e-02 0.0000000000000000e+00  5.5316578731127671e-04 -2.0568723551257308e-02 0.0000000000000000e+00  4.5971293068972091e-04 -2.1721191378312250e-02 0.0000000000000000e+00  3.5190247380026114e-04 -2.2899548933616794e-02 0.0000000000000000e+00  2.4018954446567366e-04 -2.4098367838614222e-02 0.0000000000000000e+00  1.2659128524369521e-04 -2.5301754359250379e-02 0.0000000000000000e+00  1.2328995368767948e-06 -2.6527289868302741e-02 0.0000000000000000e+00  -1.2340114281644566e-04 -2.7764043443793487e-02 0.0000000000000000e+00  -2.5808030546418129e-04 -2.9013095785835937e-02 0.0000000000000000e+00  -3.9374830930233572e-04 -3.0276824267262248e-02 0.0000000000000000e+00  -5.3699752148233550e-04 -3.1548196941188371e-02 0.0000000000000000e+00  -6.8514456957422204e-04 -3.2831531991013414e-02 0.0000000000000000e+00  -8.3567933900409593e-04 -3.4123091867094245e-02 0.0000000000000000e+00  -9.8981576678519242e-04 -3.5423912782937071e-02 0.0000000000000000e+00  -1.1494355497976476e-03 -3.6732551617175140e-02 0.0000000000000000e+00  -1.3107803225028789e-03 -3.8047711728143238e-02 0.0000000000000000e+00  -1.4752264824062073e-03 -3.9370363880844098e-02 0.0000000000000000e+00  -1.6439672537509275e-03 -4.0699107555735532e-02 0.0000000000000000e+00  -1.8144478702540429e-03 -4.2032879731121797e-02 0.0000000000000000e+00  -1.9874016043112861e-03 -4.3372452179820380e-02 0.0000000000000000e+00  -2.1635834679552554e-03 -4.4716300624403800e-02 0.0000000000000000e+00  -2.3412245968872048e-03 -4.6063869722856664e-02 0.0000000000000000e+00  -2.5208467957182285e-03 -4.7415597136868964e-02 0.0000000000000000e+00  -2.7029627412978778e-03 -4.8770352314606545e-02 0.0000000000000000e+00  -2.8862729252072698e-03 -5.0127549880420785e-02 0.0000000000000000e+00  -3.0711675066417278e-03 -5.1487469946868106e-02 0.0000000000000000e+00  -3.2578401011600128e-03 -5.2849207387841948e-02 0.0000000000000000e+00  -3.4453108944940548e-03 -5.4212420905863097e-02 0.0000000000000000e+00  -3.6338954811006297e-03 -5.5577127127120457e-02 0.0000000000000000e+00  -3.8235341298294267e-03 -5.6942787802817231e-02 0.0000000000000000e+00  -4.0139718880865521e-03 -5.8309110823936007e-02 0.0000000000000000e+00  -4.2051030651026975e-03 -5.9676160707013509e-02 0.0000000000000000e+00  -4.3966242373127710e-03 -6.1043789659085690e-02 0.0000000000000000e+00  -4.5883004532157627e-03 -6.2411465555643086e-02 0.0000000000000000e+00  -4.7804838128093271e-03 -6.3779697663393795e-02 0.0000000000000000e+00  -4.9727373425418452e-03 -6.5148154556218169e-02 0.0000000000000000e+00  -5.1652962929646246e-03 -6.6516759680315785e-02 0.0000000000000000e+00  -5.3580729678356928e-03 -6.7885647558191445e-02 0.0000000000000000e+00  -5.5509409974641216e-03 -6.9254533924469688e-02 0.0000000000000000e+00  -5.7440069092913734e-03 -7.0623527778175474e-02 0.0000000000000000e+00  -5.9371769910177927e-03 -7.1992581976690284e-02 0.0000000000000000e+00  -6.1303820518874884e-03 -7.3361533393631412e-02 0.0000000000000000e+00  -1.1668093370722275e-02 -7.2579653986652698e-02 0.0000000000000000e+00  -1.1474763855823973e-02 -7.1210705390407789e-02 0.0000000000000000e+00  -1.1281378291609492e-02 -6.9841715097562804e-02 0.0000000000000000e+00  -1.1087912013510233e-02 -6.8472781383322759e-02 0.0000000000000000e+00  -1.0894402186941295e-02 -6.7103995441277944e-02 0.0000000000000000e+00  -1.0700831280385245e-02 -6.5735320761827948e-02 0.0000000000000000e+00  -1.0507211510043248e-02 -6.4366960747957239e-02 0.0000000000000000e+00  -1.0313432999349944e-02 -6.2998907396003709e-02 0.0000000000000000e+00  -1.0119690661084388e-02 -6.1631084893858538e-02 0.0000000000000000e+00  -9.9258220842016916e-03 -6.0263852454798122e-02 0.0000000000000000e+00  -9.7318103656336401e-03 -5.8896948943249171e-02 0.0000000000000000e+00  -9.5378400778678603e-03 -5.7530813730034519e-02 0.0000000000000000e+00  -9.3436021187823497e-03 -5.6165795691174789e-02 0.0000000000000000e+00  -9.1489959022381072e-03 -5.4801093256170712e-02 0.0000000000000000e+00  -8.9545569996986509e-03 -5.3438059604518542e-02 0.0000000000000000e+00  -8.7597297541520437e-03 -5.2077340669689595e-02 0.0000000000000000e+00  -8.5644211063601872e-03 -5.0717303947582316e-02 0.0000000000000000e+00  -8.3697753709484936e-03 -4.9360328814053125e-02 0.0000000000000000e+00  -8.1746827230099288e-03 -4.8007154154226926e-02 0.0000000000000000e+00  -7.9789933804332303e-03 -4.6655091615817802e-02 0.0000000000000000e+00  -7.7846498779573945e-03 -4.5307868795273092e-02 0.0000000000000000e+00  -7.5898865384003093e-03 -4.3966207774405387e-02 0.0000000000000000e+00  -7.3944436306111602e-03 -4.2626108613298415e-02 0.0000000000000000e+00  -7.2011771368058536e-03 -4.1292777320239032e-02 0.0000000000000000e+00  -7.0074778113045468e-03 -3.9967041267067079e-02 0.0000000000000000e+00  -6.8132695038536197e-03 -3.8644163847805314e-02 0.0000000000000000e+00  -6.6209048613347877e-03 -3.7328908837703824e-02 0.0000000000000000e+00  -6.4286420724208905e-03 -3.6024039215043838e-02 0.0000000000000000e+00  -6.2361229765728748e-03 -3.4721096852352917e-02 0.0000000000000000e+00  -6.0480329562754105e-03 -3.3429428526993224e-02 0.0000000000000000e+00  -5.8584036952790538e-03 -3.2151811382510130e-02 0.0000000000000000e+00  -5.6678288313319961e-03 -3.0877682429455995e-02 0.0000000000000000e+00  -5.4808722935358626e-03 -2.9618551300434500e-02 0.0000000000000000e+00  -5.2959844398927231e-03 -2.8367436419285456e-02 0.0000000000000000e+00  -5.1123277744342882e-03 -2.7129805361354859e-02 0.0000000000000000e+00  -4.9323486796214828e-03 -2.5909225074246905e-02 0.0000000000000000e+00  -4.7496566655266820e-03 -2.4698519548428506e-02 0.0000000000000000e+00  -4.5719288131774883e-03 -2.3505407963754357e-02 0.0000000000000000e+00  -4.3934283147612782e-03 -2.2327880792666531e-02 0.0000000000000000e+00  -4.2158610260766586e-03 -2.1168738678542437e-02 0.0000000000000000e+00  -4.0420462892753637e-03 -2.0029229778031513e-02 0.0000000000000000e+00  -3.8742163993927825e-03 -1.8904239610699404e-02 0.0000000000000000e+00  -3.7101098871295019e-03 -1.7801943435262414e-02 0.0000000000000000e+00  -3.5383094543328004e-03 -1.6717437147989352e-02 0.0000000000000000e+00  -3.3784435548449179e-03 -1.5658263923467204e-02 0.0000000000000000e+00  -3.2127070530976955e-03 -1.4626570612892454e-02 0.0000000000000000e+00  -3.0573178017980576e-03 -1.3613743811724723e-02 0.0000000000000000e+00  -2.9024007986788317e-03 -1.2633234901860484e-02 0.0000000000000000e+00  -2.7544999220781258e-03 -1.1671914876973064e-02 0.0000000000000000e+00  -2.6113099797900287e-03 -1.0742527495712861e-02 0.0000000000000000e+00  -2.4572103115477620e-03 -9.8368445629718072e-03 0.0000000000000000e+00  -2.3187048045941634e-03 -8.9643052542229228e-03 0.0000000000000000e+00  -2.1704810734295941e-03 -8.1294043244432325e-03 0.0000000000000000e+00  -2.0398829603518504e-03 -7.3220817754915185e-03 0.0000000000000000e+00  -1.9084818904933131e-03 -6.5639068904159081e-03 0.0000000000000000e+00  -1.7737166189635402e-03 -5.8170174859171675e-03 0.0000000000000000e+00  -1.6497767476467012e-03 -5.1233895534353278e-03 0.0000000000000000e+00  -1.5104204452089198e-03 -4.4662602546774550e-03 0.0000000000000000e+00  -1.3905272325307782e-03 -3.8449769525375765e-03 0.0000000000000000e+00  -1.2688485184638386e-03 -3.2775288440332687e-03 0.0000000000000000e+00  -1.1532986390101660e-03 -2.7400740396835836e-03 0.0000000000000000e+00  -1.0416300299435747e-03 -2.2550235199395854e-03 0.0000000000000000e+00  -9.1496056812319869e-04 -1.8059834497120169e-03 0.0000000000000000e+00  -8.0896591161172364e-04 -1.4059458675487028e-03 0.0000000000000000e+00  -6.8464090750171183e-04 -1.0546280018476106e-03 0.0000000000000000e+00  -5.7601636758616761e-04 -7.6207678239183891e-04 0.0000000000000000e+00  -4.5141429631601120e-04 -5.1971110710642731e-04 0.0000000000000000e+00  -3.3826825171057954e-04 -3.1532690407481929e-04 0.0000000000000000e+00  -2.2627592324257618e-04 -1.7192795378274299e-04 0.0000000000000000e+00  -1.1263327410925831e-04 -9.7660986807278344e-05 0.0000000000000000e+00  -1.0476926988422178e-02 -7.4144036302828842e-02 0.0000000000000000e+00  -7.7080916659523760e-03 -7.4534966378010672e-02 0.0000000000000000e+00  1.1648718751564894e-05 -9.5221180806455435e-05 0.0000000000000000e+00  -6.8719654377339982e-03 -5.8602135053516344e-02 0.0000000000000000e+00  -7.8592037791092514e-03 -6.5543939580722882e-02 0.0000000000000000e+00  2.1732059095972088e-05 -9.3015743680257786e-04 0.0000000000000000e+00  -5.7628323981905741e-03 -5.0516432713862088e-02 0.0000000000000000e+00  -6.3362053258175823e-03 -5.4602271683246655e-02 0.0000000000000000e+00  -1.5111807263168197e-04 -2.3279623241602800e-03 0.0000000000000000e+00  -8.5457054261621253e-03 -6.9552685756783569e-02 0.0000000000000000e+00  -1.8694984889681615e-04 -4.1251347617422890e-03 0.0000000000000000e+00  -3.4535987231051619e-04 -8.0713981203049106e-03 0.0000000000000000e+00  -5.1955292060486052e-03 -4.6451414418668797e-02 0.0000000000000000e+00  -7.7716585582371346e-04 -1.1347767075555281e-02 0.0000000000000000e+00  -4.6374016885597719e-03 -4.2418878906967702e-02 0.0000000000000000e+00  -1.0840920010270218e-03 -1.4421963254504865e-02 0.0000000000000000e+00  -1.5415775538401941e-03 -1.8579057827122592e-02 0.0000000000000000e+00  -4.1741783671806866e-03 -3.8319563814437192e-02 0.0000000000000000e+00  -3.5242090100790508e-03 -3.4412731619764200e-02 0.0000000000000000e+00  -1.9093289157334850e-03 -2.1919146121699880e-02 0.0000000000000000e+00  -2.3814432646576183e-03 -2.5586370949466246e-02 0.0000000000000000e+00  -2.9993270959203164e-03 -3.0401267062159402e-02 0.0000000000000000e+00  -2.7232565715093829e-04 -5.4497053876118298e-03 0.0000000000000000e+00  -7.4694214793988613e-03 -6.2822636888453492e-02 0.0000000000000000e+00  -2.6853752847574991e-03 -2.7700412364194103e-02 0.0000000000000000e+00  -6.0526806826879259e-04 -9.7646539347722560e-03 0.0000000000000000e+00  -1.2984758289778641e-03 -1.6692088056791021e-02 0.0000000000000000e+00  -5.0779675586995827e-05 -1.5835869617934638e-03 0.0000000000000000e+00  -9.2313573885889465e-03 -7.1812644806649478e-02 0.0000000000000000e+00  5.8674989975436189e-05 -4.1499449548005853e-04 0.0000000000000000e+00  -3.1924241768830418e-03 -3.6446830079448732e-02 0.0000000000000000e+00  -4.2648138815261864e-03 -4.4419387140285600e-02 0.0000000000000000e+00  -4.8222741511730616e-03 -4.8470220395653414e-02 0.0000000000000000e+00  -2.2546383959653987e-03 -2.0211486115489095e-02 0.0000000000000000e+00  -3.7201533169371644e-03 -4.0406980812922974e-02 0.0000000000000000e+00  -5.3891940873447477e-03 -5.2547344209548159e-02 0.0000000000000000e+00  -2.6868452735780680e-03 -3.2554137750629340e-02 0.0000000000000000e+00  -5.9623285953797397e-03 -5.6640171961810683e-02 0.0000000000000000e+00  -2.6989817396014617e-03 -2.3714201355354975e-02 0.0000000000000000e+00  -1.3646771331619720e-03 -1.2749613067650250e-02 0.0000000000000000e+00  -3.8552899011169174e-04 -3.2710696090782572e-03 0.0000000000000000e+00  -8.7490301612124510e-03 -6.7406624086347608e-02 0.0000000000000000e+00  -7.9507525486587002e-03 -6.0512817120675307e-02 0.0000000000000000e+00  7.2686110630752851e-05 -6.6762406868615442e-03 0.0000000000000000e+00  -6.0160480601026359e-03 -6.0209763936370266e-02 0.0000000000000000e+00  -9.9121655731022884e-04 -6.9218278631849664e-03 0.0000000000000000e+00  -7.7379690676403871e-03 -5.7007493876519218e-02 0.0000000000000000e+00  -7.1587396277280977e-03 -5.2914618235425835e-02 0.0000000000000000e+00  -6.5817874948288215e-03 -4.8837145173648629e-02 0.0000000000000000e+00  -7.1391839932106590e-03 -6.8252543564786869e-02 0.0000000000000000e+00  3.0546498645249611e-04 -3.0672378810020478e-03 0.0000000000000000e+00  -5.4439184289644376e-03 -4.0772195024997411e-02 0.0000000000000000e+00  -6.0092770312536849e-03 -4.4785562640522657e-02 0.0000000000000000e+00  -7.9459303280913661e-04 -1.9872107904254449e-02 0.0000000000000000e+00  -1.1944061788143185e-04 -1.2438976181465078e-02 0.0000000000000000e+00  -4.7290884262849121e-03 -3.5652190323853285e-02 0.0000000000000000e+00  -4.3464972440615023e-03 -3.2915518837192896e-02 0.0000000000000000e+00  -1.1668225242895654e-03 -2.3366570712523051e-02 0.0000000000000000e+00  -4.9285017358489686e-05 -4.1256985610952641e-05 0.0000000000000000e+00  3.6121989115517703e-05 -3.1834913691700032e-05 0.0000000000000000e+00  -1.9129652634211792e-03 -2.9532151286897575e-02 0.0000000000000000e+00  -1.9688342084361039e-03 -1.5160762237863265e-02 0.0000000000000000e+00  -1.2114936328240689e-03 -8.6255555003562721e-03 0.0000000000000000e+00  -3.1642708445055683e-04 -1.1992071573824641e-03 0.0000000000000000e+00  -4.1761936582916366e-04 -2.0190942872652419e-03 0.0000000000000000e+00  -1.5626244782077617e-03 -2.6983828640384032e-02 0.0000000000000000e+00  -1.4080702876691075e-03 -1.0320431677384919e-02 0.0000000000000000e+00  -2.2798810347772298e-03 -1.7340945841095402e-02 0.0000000000000000e+00  -7.5658274552680587e-04 -4.9195465010126076e-03 0.0000000000000000e+00  -6.5671428772449544e-03 -6.4008479956004435e-02 0.0000000000000000e+00  -8.7101800891247576e-03 -6.3786886483145108e-02 0.0000000000000000e+00  2.8005736992182999e-04 -4.9362084620009272e-03 0.0000000000000000e+00  -2.2231488678341464e-04 -5.7379111715641579e-04 0.0000000000000000e+00  -7.2884667703100869e-03 -7.1007800435228197e-02 0.0000000000000000e+00  -4.0113622189343889e-03 -2.9228776193446441e-02 0.0000000000000000e+00  -3.5522193907556519e-03 -2.6644783832143314e-02 0.0000000000000000e+00  2.8720317831940469e-04 -8.6956301744175908e-03 0.0000000000000000e+00  2.9953209677417616e-04 -1.1958585713368090e-03 0.0000000000000000e+00  3.6409472982644074e-04 -2.0745827088265454e-03 0.0000000000000000e+00  -2.2529114999259920e-04 -1.5378216410327699e-02 0.0000000000000000e+00  2.5923413595206640e-04 -1.0440333101929128e-02 0.0000000000000000e+00  -2.7540056902388706e-04 -1.7517027807709053e-02 0.0000000000000000e+00  -1.3949273997889203e-04 -3.0071197771210811e-04 0.0000000000000000e+00  -7.7515998960815133e-03 -7.2926027139577479e-02 0.0000000000000000e+00  -7.6432079818503822e-03 -5.5380584923742010e-02 0.0000000000000000e+00  -7.0644016597219902e-03 -5.1292926194257474e-02 0.0000000000000000e+00  3.5479724918450545e-04 -3.7494106552674552e-03 0.0000000000000000e+00  -6.4883419522638094e-03 -4.7224570876427903e-02 0.0000000000000000e+00  -6.7816287078567459e-03 -6.6661970198940254e-02 0.0000000000000000e+00  -5.9174053236033799e-03 -4.3186901806340112e-02 0.0000000000000000e+00  -5.3569869033444446e-03 -3.9204066552337533e-02 0.0000000000000000e+00  -1.1839216271702726e-04 -1.3617350979219390e-02 0.0000000000000000e+00  -5.0695603987176863e-03 -3.7164690644891203e-02 0.0000000000000000e+00  -8.2747598857114014e-04 -2.1238433231713219e-02 0.0000000000000000e+00  -4.2677685136739956e-03 -3.1392506890989623e-02 0.0000000000000000e+00  -1.2103933703377138e-03 -2.4793435652430182e-02 0.0000000000000000e+00  -9.7576880790370482e-03 -7.0434435884807273e-02 0.0000000000000000e+00  -6.0754302640351832e-03 -6.1821388621981381e-02 0.0000000000000000e+00  -9.7787350438167399e-04 -6.0360480739753983e-03 0.0000000000000000e+00  2.3754091937701647e-04 -6.2805681899262068e-04 0.0000000000000000e+00  1.2692077009693786e-04 -2.4088958662714223e-04 0.0000000000000000e+00  -2.3973544315228708e-03 -3.5270253460294991e-02 0.0000000000000000e+00  -3.3905937509231430e-03 -2.4774473579430908e-02 0.0000000000000000e+00  -2.9072146219585471e-03 -3.9213036935463089e-02 0.0000000000000000e+00  -4.5719721978990761e-03 -5.1316584022998012e-02 0.0000000000000000e+00  -3.4641087032672977e-03 -4.3204570705556194e-02 0.0000000000000000e+00  -4.0118449847338662e-03 -4.7245756276993671e-02 0.0000000000000000e+00  -2.7764901844124254e-03 -2.1325464351799696e-02 0.0000000000000000e+00  -1.9595131358142817e-03 -3.1422659187021126e-02 0.0000000000000000e+00  -1.9152267279693906e-03 -1.3649775839926220e-02 0.0000000000000000e+00  -2.6614982478658832e-03 -1.9060907154847467e-02 0.0000000000000000e+00  -5.4842969864805167e-03 -5.8054425738121355e-02 0.0000000000000000e+00  -1.7199082315706917e-03 -1.1775880082333193e-02 0.0000000000000000e+00  -5.3263920726499712e-03 -5.5327952011735272e-02 0.0000000000000000e+00  -7.0356151338929625e-04 -3.8047774191593991e-03 0.0000000000000000e+00  -5.9043591473499255e-04 -2.7397623190009556e-03 0.0000000000000000e+00  -9.5313095434669398e-03 -6.8536229667404622e-02 0.0000000000000000e+00  -9.2273686752483586e-03 -6.5989763978891336e-02 0.0000000000000000e+00  -4.6589896799400232e-03 -4.9941597168020629e-02 0.0000000000000000e+00  -4.1004055881029185e-03 -4.5879540742827102e-02 0.0000000000000000e+00  -2.9500712975453081e-03 -3.7832155360088396e-02 0.0000000000000000e+00  -5.1559134809434420e-03 -5.3993761376788484e-02 0.0000000000000000e+00  -3.5545648397271833e-03 -4.1851324533673934e-02 0.0000000000000000e+00  -2.4225179383984049e-03 -3.3918713603322513e-02 0.0000000000000000e+00  -2.9121715639639605e-03 -2.2464966655218001e-02 0.0000000000000000e+00  3.7403765902028997e-04 -5.9860189507091105e-03 0.0000000000000000e+00  -8.6404303337959173e-03 -6.1743999677083147e-02 0.0000000000000000e+00  -8.2330670472599600e-03 -5.9151913016108643e-02 0.0000000000000000e+00  3.0780