<?xml version="1.0"?>
<VTKFile type="UnstructuredGrid"  version="0.1"  >
<UnstructuredGrid>
<Piece  NumberOfPoints="439" NumberOfCells="725">
<Points>
<DataArray  type="Float64"  NumberOfComponents="3"  format="ascii">0.6 0.19 0  0.6 0.21 0  0.2489897949 0.21 0  0.2489897949 0.19 0  0.6 0.2 0  0.2496355385699469 0.2060260530378829 0  0.249959460510575 0.2020130349814059 0  0.2499594605105767 0.1979869650186357 0  0.24963553856995 0.1939739469621422 0  0.2539336006056293 0.21 0  0.2588774063112542 0.21 0  0.2638212120168921 0.21 0  0.26876501772253 0.21 0  0.2737088234281569 0.21 0  0.2786526291337753 0.21 0  0.2835964348393937 0.21 0  0.2885402405450166 0.21 0  0.2934840462506522 0.21 0  0.2984278519562708 0.21 0  0.3033716576618997 0.21 0  0.3083154633675181 0.21 0  0.3132592690731365 0.21 0  0.3182030747787549 0.21 0  0.3231468804843732 0.21 0  0.3280906861899917 0.21 0  0.3330344918956208 0.21 0  0.3379782976012284 0.21 0  0.3429221033068576 0.21 0  0.347865909012476 0.21 0  0.3528097147180944 0.21 0  0.3577535204237128 0.21 0  0.3626973261293311 0.21 0  0.3676411318349495 0.21 0  0.3725849375405788 0.21 0  0.3775287432461877 0.21 0  0.382472548951812 0.21 0  0.3874163546574338 0.21 0  0.3923601603630631 0.21 0  0.3973039660686706 0.21 0  0.4022477717742986 0.21 0  0.4071915774799107 0.21 0  0.4121353831855311 0.21 0  0.4170791888911518 0.21 0  0.4220229945967636 0.21 0  0.4269668003023918 0.21 0  0.4319106060080253 0.21 0  0.4368544117136773 0.21 0  0.4417982174193329 0.21 0  0.4467420231249967 0.21 0  0.4516858288306445 0.21 0  0.4566296345362864 0.21 0  0.461573440241916 0.21 0  0.4665172459475665 0.21 0  0.4714610516531998 0.21 0  0.4764048573588668 0.21 0  0.4813486630645134 0.21 0  0.486292468770176 0.21 0  0.4912362744758066 0.21 0  0.4961800801814611 0.21 0  0.5011238858870897 0.21 0  0.5060676915927493 0.21 0  0.5110114972983872 0.21 0  0.5159553030040036 0.21 0  0.5208991087096415 0.21 0  0.5258429144153002 0.21 0  0.5307867201209391 0.21 0  0.5357305258265987 0.21 0  0.5406743315322367 0.21 0  0.5456181372378529 0.21 0  0.5505619429434908 0.21 0  0.5555057486491456 0.21 0  0.5604495543547885 0.21 0  0.565393360060448 0.21 0  0.5703371657661116 0.21 0  0.5752809714717458 0.21 0  0.5802247771773834 0.21 0  0.5851685828830341 0.21 0  0.5901123885886809 0.21 0  0.5950561942943404 0.21 0  0.5950561942943833 0.19 0  0.590112388588758 0.19 0  0.5851685828831193 0.19 0  0.5802247771774727 0.19 0  0.5752809714718514 0.19 0  0.5703371657662308 0.19 0  0.565393360060618 0.19 0  0.5604495543549889 0.19 0  0.5555057486493581 0.19 0  0.5505619429437035 0.19 0  0.5456181372381043 0.19 0  0.540674331532505 0.19 0  0.5357305258268962 0.19 0  0.530786720121263 0.19 0  0.5258429144156628 0.19 0  0.5208991087100244 0.19 0  0.5159553030044218 0.19 0  0.5110114972988226 0.19 0  0.5060676915932177 0.19 0  0.5011238858875806 0.19 0  0.496180080181972 0.19 0  0.4912362744763531 0.19 0  0.4862924687707343 0.19 0  0.4813486630651046 0.19 0  0.4764048573594966 0.19 0  0.4714610516538683 0.19 0  0.4665172459482555 0.19 0  0.4615734402426349 0.19 0  0.4566296345370104 0.19 0  0.4516858288313808 0.19 0  0.4467420231257716 0.19 0  0.4417982174201465 0.19 0  0.4368544117145297 0.19 0  0.4319106060089131 0.19 0  0.4269668003032866 0.19 0  0.4220229945976482 0.19 0  0.4170791888920056 0.19 0  0.4121353831863594 0.19 0  0.4071915774806995 0.19 0  0.4022477717750478 0.19 0  0.3973039660693901 0.19 0  0.3923601603637548 0.19 0  0.3874163546581082 0.19 0  0.3824725489524824 0.19 0  0.3775287432468258 0.19 0  0.3725849375411773 0.19 0  0.3676411318355085 0.19 0  0.3626973261298614 0.19 0  0.3577535204242108 0.19 0  0.352809714718589 0.19 0  0.347865909012931 0.19 0  0.342922103307292 0.19 0  0.3379782976016536 0.19 0  0.3330344918960152 0.19 0  0.3280906861903751 0.19 0  0.3231468804847171 0.19 0  0.3182030747790592 0.19 0  0.3132592690734012 0.19 0  0.3083154633677581 0.19 0  0.3033716576621197 0.19 0  0.2984278519564813 0.19 0  0.2934840462508429 0.19 0  0.2885402405451874 0.19 0  0.2835964348395295 0.19 0  0.2786526291338716 0.19 0  0.2737088234282243 0.19 0  0.268765017722586 0.19 0  0.2638212120169476 0.19 0  0.2588774063113093 0.19 0  0.2539336006056579 0.19 0  0.6 0.1949999999999783 0  0.6 0.2049999999999729 0  0.2589734265316493 0.2005523893428403 0  0.5431462343853077 0.199999999999969 0  0.5682397894768162 0.1999704585808987 0  0.2774513927118024 0.2007941919421926 0  0.513849583376897 0.1999023426490919 0  0.5286810004937381 0.1999023426490969 0  0.2945108952057646 0.1992911908405386 0  0.5827780831384927 0.1995429801003349 0  0.3104128396569256 0.1999704585808978 0  0.3370001755418551 0.2008294612433967 0  0.4990181662600459 0.1999023426490902 0  0.3552816175709044 0.2000000000000608 0  0.4841867491431925 0.1999023426490849 0  0.3707373713905551 0.2000142376953689 0  0.3898882575102495 0.2000000000000828 0  0.4689857550492734 0.1995416724256694 0  0.4541577316841967 0.1999999999999098 0  0.4043534914018331 0.2000976573509244 0  0.4195510917439569 0.2000000000001057 0  0.4387019778644512 0.1999857623046772 0  0.3202472750256703 0.2000088842146399 0  0.5584053541080851 0.1999911157853577 0  0.4280667146887134 0.1998489048208241 0  0.3467659946265474 0.2001510951794375 0  0.3813726345658908 0.200151095179452 0  0.2860683376922098 0.2000415445706182 0  0.5911223811781194 0.1982449159348744 0  0.2679893161458627 0.201675125646729 0  0.4615734402426278 0.2022503633288003 0  0.4912362744763454 0.2022503633288091 0  0.5060676915931983 0.2022503633288118 0  0.3973039660686774 0.1977496366711965 0  0.4764048573594896 0.2022503633288051 0  0.5208991087100455 0.2022503633288184 0  0.4467420231257656 0.2022503633288 0  0.5357305258268849 0.2022503633288198 0  0.4121353831855317 0.1977496366711976 0  0.3626973261293352 0.1977496366711919 0  0.3033716576618961 0.1977496366711869 0  0.5752809714718229 0.1977496366711503 0  0.550459855919056 0.1971284784737667 0  0.3281927732146841 0.2028715215262406 0  0.5484179020497461 0.2038403215694763 0  0.3302347270839988 0.1961596784305491 0  0.5379210852238114 0.196125181664411 0  0.5230896681069652 0.1961251816644058 0  0.5082582509901222 0.1961251816644098 0  0.5774715308687094 0.2038748183355887 0  0.3011810982649548 0.2038748183355937 0  0.4785954167564111 0.196125181664404 0  0.4934268338732671 0.1961251816644063 0  0.395113406671763 0.2038748183355966 0  0.3605067667324117 0.2038748183355951 0  0.4593828808457146 0.1961251816643993 0  0.4489325825226805 0.1961251816644007 0  0.4099448237886219 0.2038748183355991 0  0.2557862999801971 0.1960858370257295 0  0.2550147360309399 0.2034426429991114 0  0.4348031476464689 0.2037737577641554 0  0.37463620160841 0.1962262422358553 0  0.3406258365864304 0.196046792193989 0  0.2813001681189834 0.1960467921940502 0  0.2912686387439893 0.1960816328649282 0  0.4246705335819892 0.2039532078059544 0  0.350162175732913 0.1960467921941878 0  0.3847688156722694 0.1960467921942359 0  0.316632368538356 0.19615945856337 0  0.5621550011053409 0.2037816492598991 0  0.5624413877019769 0.1960761923611377 0  0.3162395035833128 0.2038679557424692 0  0.2710887134207622 0.1959696443325838 0  0.5873014376403604 0.2047227881030823 0  0.4346679566442709 0.1954651459552513 0  0.4243296504077986 0.1958756980939062 0  0.3402559510833523 0.2047940500290923 0  0.2808684926760933 0.2047742417812656 0  0.2914077033138723 0.2047809517070955 0  0.3747713926104932 0.2045348540448554 0  0.3499216488898867 0.2051753413186305 0  0.3845282888292298 0.205175341318636 0  0.2648144865455052 0.1962089742986374 0  0.5943247643662894 0.2040415423589182 0  0.5320972610456145 0.1956445099050872 0  0.5172658439287727 0.1956445099050854 0  0.3069923255602658 0.2043468033872551 0  0.5024344268119265 0.1956445099050864 0  0.5716603035734351 0.2043468033872761 0  0.4876030096950741 0.1956445099050831 0  0.4728151975296263 0.1956402468909894 0  0.3663301776527538 0.20436745486386 0  0.4651631000724991 0.1956402468909893 0  0.4009372308499527 0.2043554900949198 0  0.4431091716023345 0.1956325451361429 0  0.4157593408842466 0.2043565497109067 0  0.5865057328865416 0.1956918868509067 0  0.5541600609760193 0.2044335994013721 0  0.3244925681577497 0.1955664005986376 0  0.272008018888917 0.2049327968152409 0  0.2633407725863902 0.2042483236346266 0  0.4567948413982566 0.2046536472831198 0  0.4167680012832803 0.1955060004091903 0  0.4716262585151221 0.2046536472831242 0  0.5161054367030595 0.2045563706470633 0  0.4864426024693469 0.2045563706470604 0  0.5012740195862044 0.2045563706470634 0  0.4022810343427545 0.1961423961483001 0  0.4420739040821668 0.2044853411424516 0  0.3673807293464664 0.1955677741328205 0  0.3925253672243162 0.195346352716901 0  0.5405091246712254 0.2046536472831267 0  0.357918727284983 0.1953463527168901 0  0.5307534575528717 0.2038576038516682 0  0.3079697655029555 0.1955637092892754 0  0.2985930588175599 0.1953463527168728 0  0.579671714346879 0.1955441268455555 0  0.5705023726275059 0.1953463527168462 0  0.5112451461103119 0.2035640580783926 0  0.4964137289934448 0.2035640580783915 0  0.4665727251511405 0.2038238154617746 0  0.5259274680675793 0.2038006696000127 0  0.4815823118765752 0.2035640580783898 0  0.4517504165552094 0.2039070625502732 0  0.4071070238280551 0.1961993303999926 0  0.3234846806957546 0.2047001437739977 0  0.5551679484379799 0.1952998562260008 0  0.5457754356464107 0.1954447171286166 0  0.3329307555206357 0.2046017509710421 0  0.4541577316841968 0.1960357661898101 0  0.3358300776141575 0.1950765652117375 0  0.2539718587514912 0.200011552766824 0  0.5826472073721517 0.2039971170156656 0  0.2761021761080182 0.1946948236183283 0  0.3898581462796225 0.2041572776584344 0  0.3552515063402743 0.2041572776584256 0  0.2965028074750666 0.2046578268138723 0  0.4299158836614793 0.1951782397873778 0  0.379426563923736 0.2049969334481307 0  0.2860882692072842 0.2042624797643994 0  0.3449948044168807 0.2051793676155613 0  0.2603922435707652 0.1950997711614917 0  0.5949856943860
[...]
<PointData  Vectors="f_18-1"> 
<DataArray  type="Float64"  Name="f_18-1"  NumberOfComponents="3" format="ascii">-2.7082062668431783e-02 -1.1494138264072359e-01 0.0000000000000000e+00  -1.8391673999648181e-02 -1.1692820630975298e-01 0.0000000000000000e+00  0.0000000000000000e+00 0.0000000000000000e+00 0.0000000000000000e+00  0.0000000000000000e+00 0.0000000000000000e+00 0.0000000000000000e+00  -2.2736814104651022e-02 -1.1593478402243385e-01 0.0000000000000000e+00  0.0000000000000000e+00 0.0000000000000000e+00 0.0000000000000000e+00  0.0000000000000000e+00 0.0000000000000000e+00 0.0000000000000000e+00  0.0000000000000000e+00 0.0000000000000000e+00 0.0000000000000000e+00  0.0000000000000000e+00 0.0000000000000000e+00 0.0000000000000000e+00  1.5924377342354029e-04 -1.4035433352994873e-04 0.0000000000000000e+00  3.3374513411798428e-04 -2.9564588770946982e-04 0.0000000000000000e+00  5.0523017006742625e-04 -4.9435428540828177e-04 0.0000000000000000e+00  6.6274578528439888e-04 -8.2443828794554917e-04 0.0000000000000000e+00  8.0723293335465416e-04 -1.2261877767714767e-03 0.0000000000000000e+00  9.5104862439356649e-04 -1.7289005264975385e-03 0.0000000000000000e+00  1.0732932299106820e-03 -2.2840830180427866e-03 0.0000000000000000e+00  1.1714776407581605e-03 -2.9302566813864525e-03 0.0000000000000000e+00  1.2624082688431275e-03 -3.6489543314081234e-03 0.0000000000000000e+00  1.3340084406612261e-03 -4.4390743618036681e-03 0.0000000000000000e+00  1.3992009376830408e-03 -5.3259062119562868e-03 0.0000000000000000e+00  1.4604581631936049e-03 -6.2287045400407116e-03 0.0000000000000000e+00  1.4821608540205649e-03 -7.2363738624251685e-03 0.0000000000000000e+00  1.5148349811042860e-03 -8.3039592308468829e-03 0.0000000000000000e+00  1.5074451457693806e-03 -9.4206281931980291e-03 0.0000000000000000e+00  1.4888685296175167e-03 -1.0614319136946231e-02 0.0000000000000000e+00  1.4523339549775190e-03 -1.1850999576710829e-02 0.0000000000000000e+00  1.3924899809717299e-03 -1.3160640187280007e-02 0.0000000000000000e+00  1.3133127546265688e-03 -1.4499313020600878e-02 0.0000000000000000e+00  1.2161763933445015e-03 -1.5899943707045415e-02 0.0000000000000000e+00  1.0993908209221241e-03 -1.7342431884867421e-02 0.0000000000000000e+00  9.6195153777803603e-04 -1.8825619454541507e-02 0.0000000000000000e+00  8.1134217575131351e-04 -2.0377809065336358e-02 0.0000000000000000e+00  6.5709889964250909e-04 -2.1939944307008855e-02 0.0000000000000000e+00  4.7278274532773940e-04 -2.3560569971223945e-02 0.0000000000000000e+00  2.7265098778128611e-04 -2.5204636837595339e-02 0.0000000000000000e+00  5.5626956098715945e-05 -2.6892605959975568e-02 0.0000000000000000e+00  -1.7772321898919176e-04 -2.8611303093988159e-02 0.0000000000000000e+00  -4.2902733511711750e-04 -3.0358264153615790e-02 0.0000000000000000e+00  -6.9325367721931178e-04 -3.2154029090715359e-02 0.0000000000000000e+00  -9.6018844761663793e-04 -3.3954203733293900e-02 0.0000000000000000e+00  -1.2557853306551358e-03 -3.5793139170320322e-02 0.0000000000000000e+00  -1.5622574707277492e-03 -3.7664486564084318e-02 0.0000000000000000e+00  -1.8727725690770227e-03 -3.9542968962515704e-02 0.0000000000000000e+00  -2.2073065636706640e-03 -4.1454778892426491e-02 0.0000000000000000e+00  -2.5432103327698340e-03 -4.3385119621758970e-02 0.0000000000000000e+00  -2.8982517639396565e-03 -4.5333404912066694e-02 0.0000000000000000e+00  -3.2582199571405731e-03 -4.7305702546549394e-02 0.0000000000000000e+00  -3.6324118037077096e-03 -4.9289045433149964e-02 0.0000000000000000e+00  -4.0175709183967621e-03 -5.1291401630992016e-02 0.0000000000000000e+00  -4.4086371190205139e-03 -5.3307374825967188e-02 0.0000000000000000e+00  -4.8079592540023622e-03 -5.5338534035931877e-02 0.0000000000000000e+00  -5.2187136514432282e-03 -5.7382026713634057e-02 0.0000000000000000e+00  -5.6341745760467932e-03 -5.9436783343988421e-02 0.0000000000000000e+00  -6.0570389219094401e-03 -6.1504067172668500e-02 0.0000000000000000e+00  -6.4892500638003212e-03 -6.3581128191050607e-02 0.0000000000000000e+00  -6.9259945046535954e-03 -6.5666806726844412e-02 0.0000000000000000e+00  -7.3687970370690178e-03 -6.7762233230954205e-02 0.0000000000000000e+00  -7.8186501403611618e-03 -6.9864464830951892e-02 0.0000000000000000e+00  -8.2721814121315199e-03 -7.1973091056311653e-02 0.0000000000000000e+00  -8.7304201785614009e-03 -7.4088802941452578e-02 0.0000000000000000e+00  -9.1940431500518154e-03 -7.6209412977063296e-02 0.0000000000000000e+00  -9.6604871759371942e-03 -7.8334447149309094e-02 0.0000000000000000e+00  -1.0130530147113256e-02 -8.0464394592332775e-02 0.0000000000000000e+00  -1.0604476630876797e-02 -8.2597538870548728e-02 0.0000000000000000e+00  -1.1080342940062944e-02 -8.4733755306201988e-02 0.0000000000000000e+00  -1.1558802415158600e-02 -8.6873022676947187e-02 0.0000000000000000e+00  -1.2039751561316626e-02 -8.9014354283201147e-02 0.0000000000000000e+00  -1.2522706115962595e-02 -9.1157138674586483e-02 0.0000000000000000e+00  -1.3007639475425182e-02 -9.3301693749950051e-02 0.0000000000000000e+00  -1.3493843009255437e-02 -9.5447766700621189e-02 0.0000000000000000e+00  -1.3980481979824327e-02 -9.7593961040448374e-02 0.0000000000000000e+00  -1.4468772553862422e-02 -9.9741440800781456e-02 0.0000000000000000e+00  -1.4957448235324631e-02 -1.0188943060676330e-01 0.0000000000000000e+00  -1.5447000807113734e-02 -1.0403759645110394e-01 0.0000000000000000e+00  -1.5937212765445748e-02 -1.0618613862349480e-01 0.0000000000000000e+00  -1.6427649930878561e-02 -1.0833461941896380e-01 0.0000000000000000e+00  -1.6918482698452354e-02 -1.1048312924223092e-01 0.0000000000000000e+00  -1.7409506526989738e-02 -1.1263162957053777e-01 0.0000000000000000e+00  -1.7900554955790144e-02 -1.1477994297166864e-01 0.0000000000000000e+00  -2.6590906392965415e-02 -1.1279313314636683e-01 0.0000000000000000e+00  -2.6099665341248079e-02 -1.1064485092293629e-01 0.0000000000000000e+00  -2.5608305385545635e-02 -1.0849649783238639e-01 0.0000000000000000e+00  -2.5116795326629068e-02 -1.0634823211212534e-01 0.0000000000000000e+00  -2.4625188454914636e-02 -1.0420021146735987e-01 0.0000000000000000e+00  -2.4133401912444487e-02 -1.0205236394055849e-01 0.0000000000000000e+00  -2.3641526454924709e-02 -9.9905219638304996e-02 0.0000000000000000e+00  -2.3149333169937242e-02 -9.7758877237248312e-02 0.0000000000000000e+00  -2.2657275025577250e-02 -9.5613125276866995e-02 0.0000000000000000e+00  -2.2165175831609464e-02 -9.3469020871695369e-02 0.0000000000000000e+00  -2.1672935128858883e-02 -9.1325906632264933e-02 0.0000000000000000e+00  -2.1181326194129709e-02 -8.9184856965229750e-02 0.0000000000000000e+00  -2.0689787786619847e-02 -8.7046776864302428e-02 0.0000000000000000e+00  -2.0197700916832397e-02 -8.4909613050088942e-02 0.0000000000000000e+00  -1.9707041138941395e-02 -8.2776281572334132e-02 0.0000000000000000e+00  -1.9216692339940274e-02 -8.0647995382929438e-02 0.0000000000000000e+00  -1.8725791906106862e-02 -7.8521228344484148e-02 0.0000000000000000e+00  -1.8237617432168944e-02 -7.6400353613096536e-02 0.0000000000000000e+00  -1.7750017626819971e-02 -7.4286778571464249e-02 0.0000000000000000e+00  -1.7261781879859085e-02 -7.2175389224816949e-02 0.0000000000000000e+00  -1.6777789051968500e-02 -7.0072490215310757e-02 0.0000000000000000e+00  -1.6294828516920670e-02 -6.7979734863489127e-02 0.0000000000000000e+00  -1.5811181556321378e-02 -6.5889935228259838e-02 0.0000000000000000e+00  -1.5333646456155993e-02 -6.3811646838926678e-02 0.0000000000000000e+00  -1.4857692258419592e-02 -6.1747042331939242e-02 0.0000000000000000e+00  -1.4381748443071858e-02 -5.9687635226756360e-02 0.0000000000000000e+00  -1.3911535338915041e-02 -5.7641339326532967e-02 0.0000000000000000e+00  -1.3444680817499565e-02 -5.5613228630816317e-02 0.0000000000000000e+00  -1.2978169953456027e-02 -5.3588604744491980e-02 0.0000000000000000e+00  -1.2522798969680442e-02 -5.1582315285502771e-02 0.0000000000000000e+00  -1.2068907559858004e-02 -4.9600346499725376e-02 0.0000000000000000e+00  -1.1614546524459431e-02 -4.7624320325589761e-02 0.0000000000000000e+00  -1.1170573865169961e-02 -4.5672477624811164e-02 0.0000000000000000e+00  -1.0732217686547420e-02 -4.3733115430205104e-02 0.0000000000000000e+00  -1.0299500615891775e-02 -4.1815566514671762e-02 0.0000000000000000e+00  -9.8770976786633300e-03 -3.9924837027861454e-02 0.0000000000000000e+00  -9.4527147088248088e-03 -3.8050658284730622e-02 0.0000000000000000e+00  -9.0406160857738390e-03 -3.6203717548072292e-02 0.0000000000000000e+00  -8.6309100470320452e-03 -3.4382015929526936e-02 0.0000000000000000e+00  -8.2269536003718637e-03 -3.2589649229627864e-02 0.0000000000000000e+00  -7.8334990249089471e-03 -3.0827888488767673e-02 0.0000000000000000e+00  -7.4529285791439118e-03 -2.9087976087878508e-02 0.0000000000000000e+00  -7.0832157789713921e-03 -2.7383503374050822e-02 0.0000000000000000e+00  -6.7048054466325707e-03 -2.5708947895779787e-02 0.0000000000000000e+00  -6.3507851205223745e-03 -2.4072207151419223e-02 0.0000000000000000e+00  -5.9928099370909396e-03 -2.2480336022685770e-02 0.0000000000000000e+00  -5.6550939410247988e-03 -2.0916200561218172e-02 0.0000000000000000e+00  -5.3241426619696037e-03 -1.9403159182407870e-02 0.0000000000000000e+00  -5.0079605131497576e-03 -1.7919004594719810e-02 0.0000000000000000e+00  -4.7048974296749453e-03 -1.6484436940805432e-02 0.0000000000000000e+00  -4.3882492871082325e-03 -1.5089019210301558e-02 0.0000000000000000e+00  -4.1019716839358457e-03 -1.3743272327419257e-02 0.0000000000000000e+00  -3.8060244098741935e-03 -1.2458521281149455e-02 0.0000000000000000e+00  -3.5424142311551569e-03 -1.1214367209251655e-02 0.0000000000000000e+00  -3.2845688196762200e-03 -1.0047777899794410e-02 0.0000000000000000e+00  -3.0229109845922530e-03 -8.8990001647345843e-03 0.0000000000000000e+00  -2.7856366346009479e-03 -7.8325167339701688e-03 0.0000000000000000e+00  -2.5281462007463134e-03 -6.8248613491649693e-03 0.0000000000000000e+00  -2.3058723832239869e-03 -5.8708561272802816e-03 0.0000000000000000e+00  -2.0866335271103394e-03 -5.0010795574399998e-03 0.0000000000000000e+00  -1.8801702985855584e-03 -4.1770097282871543e-03 0.0000000000000000e+00  -1.6846948037511113e-03 -3.4341751412253802e-03 0.0000000000000000e+00  -1.4684584646977967e-03 -2.7481418946617930e-03 0.0000000000000000e+00  -1.2887762008147968e-03 -2.1363058975928241e-03 0.0000000000000000e+00  -1.0835477695300747e-03 -1.6009808506104312e-03 0.0000000000000000e+00  -9.0655237726805385e-04 -1.1553544886179902e-03 0.0000000000000000e+00  -7.0728926230520441e-04 -7.8747631354959303e-04 0.0000000000000000e+00  -5.2761738597595202e-04 -4.7687101348862165e-04 0.0000000000000000e+00  -3.5165519331172105e-04 -2.5953804917443207e-04 0.0000000000000000e+00  -1.7467836775920359e-04 -1.4852934060823471e-04 0.0000000000000000e+00  -2.4909400289705241e-02 -1.1543809721308644e-01 0.0000000000000000e+00  -2.0564266668886610e-02 -1.1643148187793073e-01 0.0000000000000000e+00  1.6008590346006193e-05 -1.4401168455325307e-04 0.0000000000000000e+00  -1.7095143363616460e-02 -9.1239726281668848e-02 0.0000000000000000e+00  -1.9594408495111112e-02 -1.0213012103076266e-01 0.0000000000000000e+00  1.3703391563710645e-05 -1.4283459003133062e-03 0.0000000000000000e+00  -1.4263013735231341e-02 -7.8571285988827552e-02 0.0000000000000000e+00  -1.5711966322778489e-02 -8.4967330400026089e-02 0.0000000000000000e+00  -3.0401441827627735e-04 -3.5834690339153850e-03 0.0000000000000000e+00  -2.1224292370312980e-02 -1.0840538684892785e-01 0.0000000000000000e+00  -4.4773584608919593e-04 -6.3694347488643171e-03 0.0000000000000000e+00  -9.5164737620541623e-04 -1.2502532246384302e-02 0.0000000000000000e+00  -1.2832821563216660e-02 -7.2214728934339792e-02 0.0000000000000000e+00  -1.8874888873486526e-03 -1.7583069207488571e-02 0.0000000000000000e+00  -1.1429501375312194e-02 -6.5915119155641660e-02 0.0000000000000000e+00  -2.6409683162999420e-03 -2.2359557669805259e-02 0.0000000000000000e+00  -3.7641570774530758e-03 -2.8818611008603078e-02 0.0000000000000000e+00  -1.0178126532967026e-02 -5.9506421512140452e-02 0.0000000000000000e+00  -8.6706782579723408e-03 -5.3435036141276850e-02 0.0000000000000000e+00  -4.6904197103564615e-03 -3.4010945055470733e-02 0.0000000000000000e+00  -5.8355334044509558e-03 -3.9707840116560526e-02 0.0000000000000000e+00  -7.3625335686171188e-03 -4.7192787749277716e-02 0.0000000000000000e+00  -6.5814369712853050e-04 -8.4235559177679650e-03 0.0000000000000000e+00  -1.8609391190094145e-02 -9.7860131709955028e-02 0.0000000000000000e+00  -6.5539219607581613e-03 -4.2989839618153093e-02 0.0000000000000000e+00  -1.4878628038050357e-03 -1.5124782141619083e-02 0.0000000000000000e+00  -3.1942013023747106e-03 -2.5889579526875064e-02 0.0000000000000000e+00  -1.2000361536843328e-04 -2.4355459714397888e-03 0.0000000000000000e+00  -2.2617425060905066e-02 -1.1190269902783957e-01 0.0000000000000000e+00  8.3119818148516344e-05 -6.3565494899187600e-04 0.0000000000000000e+00  -8.3983358375975051e-03 -5.6677924684265080e-02 0.0000000000000000e+00  -1.1098580114338528e-02 -6.9123257345852063e-02 0.0000000000000000e+00  -1.2506164885972591e-02 -7.5456462976240021e-02 0.0000000000000000e+00  -5.0500477478513236e-03 -3.1300124967950337e-02 0.0000000000000000e+00  -9.7256465363232455e-03 -6.2855999849112179e-02 0.0000000000000000e+00  -1.3939408545120227e-02 -8.1836664683232085e-02 0.0000000000000000e+00  -7.1285853992380608e-03 -5.0613296997287678e-02 0.0000000000000000e+00  -1.5390498248655609e-02 -8.8248411244142136e-02 0.0000000000000000e+00  -6.1246368258907700e-03 -3.6737640474096916e-02 0.0000000000000000e+00  -2.9277934643441648e-03 -1.9721179812787475e-02 0.0000000000000000e+00  -7.1200317686167538e-04 -5.0339993182769594e-03 0.0000000000000000e+00  -2.1258334465413319e-02 -1.0496927524283690e-01 0.0000000000000000e+00  -1.9063185154738278e-02 -9.4128152178405922e-02 0.0000000000000000e+00  -2.0135005266795801e-04 -1.0356358975343847e-02 0.0000000000000000e+00  -1.5952157677925131e-02 -9.3906048029820624e-02 0.0000000000000000e+00  -1.8766809757106394e-03 -1.0666221692642865e-02 0.0000000000000000e+00  -1.8255419917160065e-02 -8.8594544073646267e-02 0.0000000000000000e+00  -1.6791001060071073e-02 -8.2184600351879314e-02 0.0000000000000000e+00  -1.5337956496200759e-02 -7.5806883791354834e-02 0.0000000000000000e+00  -1.8815416903766070e-02 -1.0652936175913695e-01 0.0000000000000000e+00  3.7062497849467890e-04 -4.7512560051487960e-03 0.0000000000000000e+00  -1.2491734446679904e-02 -6.3213926020578973e-02 0.0000000000000000e+00  -1.3902289730549097e-02 -6.9476900586210963e-02 0.0000000000000000e+00  -2.7279887150916970e-03 -3.0920877738065095e-02 0.0000000000000000e+00  -9.5457403674925416e-04 -1.9345708888708183e-02 0.0000000000000000e+00  -1.0720060573655417e-02 -5.5237052162613653e-02 0.0000000000000000e+00  -9.7818518743250822e-03 -5.0981531219152276e-02 0.0000000000000000e+00  -3.6844706427646740e-03 -3.6361098030941924e-02 0.0000000000000000e+00  -7.7173324352180153e-05 -6.1437679275211696e-05 0.0000000000000000e+00  5.4640500639688545e-05 -4.7677581520132440e-05 0.0000000000000000e+00  -5.5545227435025825e-03 -4.5955504836703222e-02 0.0000000000000000e+00  -4.0950109829672662e-03 -2.3430793557637348e-02 0.0000000000000000e+00  -2.3450672427006475e-03 -1.3301409423855258e-02 0.0000000000000000e+00  -5.1790610972464392e-04 -1.8333692232562848e-03 0.0000000000000000e+00  -7.0475773245292836e-04 -3.0952301812537646e-03 0.0000000000000000e+00  -4.7103744806915844e-03 -4.1993837604058053e-02 0.0000000000000000e+00  -2.7867688649249396e-03 -1.5927342413260222e-02 0.0000000000000000e+00  -4.7947839034658017e-03 -2.6807562983428207e-02 0.0000000000000000e+00  -1.3799138299119785e-03 -7.5704730038508600e-03 0.0000000000000000e+00  -1.7336163571773956e-02 -9.9864699825941955e-02 0.0000000000000000e+00  -2.0709319592000050e-02 -9.9225110472618422e-02 0.0000000000000000e+00  2.3174464566653284e-04 -7.6575614770128643e-03 0.0000000000000000e+00  -3.5468594369292500e-04 -8.7390331623097910e-04 0.0000000000000000e+00  -1.9423266852229563e-02 -1.1088572230554047e-01 0.0000000000000000e+00  -8.8144961067024418e-03 -4.5233390992804393e-02 0.0000000000000000e+00  -7.7932865792147811e-03 -4.1234601640271373e-02 0.0000000000000000e+00  -1.2666760137473550e-05 -1.3524752502596403e-02 0.0000000000000000e+00  4.3490102208748447e-04 -1.8473956241269805e-03 0.0000000000000000e+00  5.0422330816816323e-04 -3.2119523243772587e-03 0.0000000000000000e+00  -1.3889226930793293e-03 -2.3936554251931901e-02 0.0000000000000000e+00  -1.9420396721506002e-04 -1.6250625744357362e-02 0.0000000000000000e+00  -1.6759781675923209e-03 -2.7282286920598330e-02 0.0000000000000000e+00  -2.2066452828935931e-04 -4.5691236124267078e-04 0.0000000000000000e+00  -2.0416934255340625e-02 -1.1387015600819422e-01 0.0000000000000000e+00  -1.7887699311332668e-02 -8.6027596884776736e-02 0.0000000000000000e+00  -1.6426572339249323e-02 -7.9629261211352359e-02 0.0000000000000000e+00  4.1325769748683250e-04 -5.8142538028750001e-03 0.0000000000000000e+00  -1.4978493430485136e-02 -7.3269034483018983e-02 0.0000000000000000e+00  -1.8033564592043354e-02 -1.0405087400357610e-01 0.0000000000000000e+00  -1.3550130760052192e-02 -6.6963938176232196e-02 0.0000000000000000e+00  -1.2155159954209528e-02 -6.0752259658881064e-02 0.0000000000000000e+00  -1.0582688240720977e-03 -2.1189322112411851e-02 0.0000000000000000e+00  -1.1444733063439315e-02 -5.7575749291679308e-02 0.0000000000000000e+00  -2.9232744739898300e-03 -3.3059188768686514e-02 0.0000000000000000e+00  -9.4746219984473655e-03 -4.8598578999074632e-02 0.0000000000000000e+00  -3.9107004263798043e-03 -3.8595096529956838e-02 0.0000000000000000e+00  -2.3267952009612292e-02 -1.0964287615171962e-01 0.0000000000000000e+00  -1.6262130840250084e-02 -9.6457020757125270e-02 0.0000000000000000e+00  -1.7954692779737649e-03 -9.2901473467897309e-03 0.0000000000000000e+00  3.5440870229078543e-04 -9.6794654940560144e-04 0.0000000000000000e+00  1.9134681987927098e-04 -3.6924705690807576e-04 0.0000000000000000e+00  -7.0025096393844417e-03 -5.4922712712167247e-02 0.0000000000000000e+00  -7.3277418805063436e-03 -3.8322072373820341e-02 0.0000000000000000e+00  -8.2934725856803875e-03 -6.1074642078025869e-02 0.0000000000000000e+00  -1.2483315023035737e-02 -7.9995134948715602e-02 0.0000000000000000e+00  -9.6779779082023700e-03 -6.7306599461941591e-02 0.0000000000000000e+00  -1.1064961581925284e-02 -7.3625100449211639e-02 0.0000000000000000e+00  -5.9859840851815126e-03 -3.2988343616415547e-02 0.0000000000000000e+00  -5.8506211686066567e-03 -4.8921463541520098e-02 0.0000000000000000e+00  -3.8701916061391968e-03 -2.1076761007634091e-02 0.0000000000000000e+00  -5.5677940541624333e-03 -2.9458087081953979e-02 0.0000000000000000e+00  -1.4820835427404876e-02 -9.0555987275789285e-02 0.0000000000000000e+00  -3.3977949724705034e-03 -1.8170802889361994e-02 0.0000000000000000e+00  -1.4207955488100806e-02 -8.6251982812193081e-02 0.0000000000000000e+00  -1.2342104785907817e-03 -5.8446587387182159e-03 0.0000000000000000e+00  -1.0047448955479590e-03 -4.2016303283637481e-03 0.0000000000000000e+00  -2.2652912772890436e-02 -1.0665833741915147e-01 0.0000000000000000e+00  -2.1827281912031333e-02 -1.0265449781806016e-01 0.0000000000000000e+00  -1.2440433542218382e-02 -7.7806507676748640e-02 0.0000000000000000e+00  -1.1027509109056163e-02 -7.1452770266387799e-02 0.0000000000000000e+00  -8.1883683092364712e-03 -5.8891386635728592e-02 0.0000000000000000e+00  -1.3761026604001159e-02 -8.4159511177730378e-02 0.0000000000000000e+00  -9.6477704951069554e-03 -6.5157293139124745e-02 0.0000000000000000e+00  -6.8775664249131679e-03 -5.2792081592243495e-02 0.0000000000000000e+00  -6.3216373585243801e-03 -3.4757608409021520e-02 0.0000000000000000e+00  3.1307043881924563e-04 -9.2999377650978300e-03 0.0000000000000000e+00  -2.0323567991435167e-02 -9.5990477106323940e-02 0.0000000000000000e+00  -1.9328529772339696e-02 -9.1930466766792132e-02 0.0000000000000000e