<?xml version="1.0"?>
<VTKFile type="UnstructuredGrid"  version="0.1"  >
<UnstructuredGrid>
<Piece  NumberOfPoints="439" NumberOfCells="725">
<Points>
<DataArray  type="Float64"  NumberOfComponents="3"  format="ascii">0.6 0.19 0  0.6 0.21 0  0.2489897949 0.21 0  0.2489897949 0.19 0  0.6 0.2 0  0.2496355385699469 0.2060260530378829 0  0.249959460510575 0.2020130349814059 0  0.2499594605105767 0.1979869650186357 0  0.24963553856995 0.1939739469621422 0  0.2539336006056293 0.21 0  0.2588774063112542 0.21 0  0.2638212120168921 0.21 0  0.26876501772253 0.21 0  0.2737088234281569 0.21 0  0.2786526291337753 0.21 0  0.2835964348393937 0.21 0  0.2885402405450166 0.21 0  0.2934840462506522 0.21 0  0.2984278519562708 0.21 0  0.3033716576618997 0.21 0  0.3083154633675181 0.21 0  0.3132592690731365 0.21 0  0.3182030747787549 0.21 0  0.3231468804843732 0.21 0  0.3280906861899917 0.21 0  0.3330344918956208 0.21 0  0.3379782976012284 0.21 0  0.3429221033068576 0.21 0  0.347865909012476 0.21 0  0.3528097147180944 0.21 0  0.3577535204237128 0.21 0  0.3626973261293311 0.21 0  0.3676411318349495 0.21 0  0.3725849375405788 0.21 0  0.3775287432461877 0.21 0  0.382472548951812 0.21 0  0.3874163546574338 0.21 0  0.3923601603630631 0.21 0  0.3973039660686706 0.21 0  0.4022477717742986 0.21 0  0.4071915774799107 0.21 0  0.4121353831855311 0.21 0  0.4170791888911518 0.21 0  0.4220229945967636 0.21 0  0.4269668003023918 0.21 0  0.4319106060080253 0.21 0  0.4368544117136773 0.21 0  0.4417982174193329 0.21 0  0.4467420231249967 0.21 0  0.4516858288306445 0.21 0  0.4566296345362864 0.21 0  0.461573440241916 0.21 0  0.4665172459475665 0.21 0  0.4714610516531998 0.21 0  0.4764048573588668 0.21 0  0.4813486630645134 0.21 0  0.486292468770176 0.21 0  0.4912362744758066 0.21 0  0.4961800801814611 0.21 0  0.5011238858870897 0.21 0  0.5060676915927493 0.21 0  0.5110114972983872 0.21 0  0.5159553030040036 0.21 0  0.5208991087096415 0.21 0  0.5258429144153002 0.21 0  0.5307867201209391 0.21 0  0.5357305258265987 0.21 0  0.5406743315322367 0.21 0  0.5456181372378529 0.21 0  0.5505619429434908 0.21 0  0.5555057486491456 0.21 0  0.5604495543547885 0.21 0  0.565393360060448 0.21 0  0.5703371657661116 0.21 0  0.5752809714717458 0.21 0  0.5802247771773834 0.21 0  0.5851685828830341 0.21 0  0.5901123885886809 0.21 0  0.5950561942943404 0.21 0  0.5950561942943833 0.19 0  0.590112388588758 0.19 0  0.5851685828831193 0.19 0  0.5802247771774727 0.19 0  0.5752809714718514 0.19 0  0.5703371657662308 0.19 0  0.565393360060618 0.19 0  0.5604495543549889 0.19 0  0.5555057486493581 0.19 0  0.5505619429437035 0.19 0  0.5456181372381043 0.19 0  0.540674331532505 0.19 0  0.5357305258268962 0.19 0  0.530786720121263 0.19 0  0.5258429144156628 0.19 0  0.5208991087100244 0.19 0  0.5159553030044218 0.19 0  0.5110114972988226 0.19 0  0.5060676915932177 0.19 0  0.5011238858875806 0.19 0  0.496180080181972 0.19 0  0.4912362744763531 0.19 0  0.4862924687707343 0.19 0  0.4813486630651046 0.19 0  0.4764048573594966 0.19 0  0.4714610516538683 0.19 0  0.4665172459482555 0.19 0  0.4615734402426349 0.19 0  0.4566296345370104 0.19 0  0.4516858288313808 0.19 0  0.4467420231257716 0.19 0  0.4417982174201465 0.19 0  0.4368544117145297 0.19 0  0.4319106060089131 0.19 0  0.4269668003032866 0.19 0  0.4220229945976482 0.19 0  0.4170791888920056 0.19 0  0.4121353831863594 0.19 0  0.4071915774806995 0.19 0  0.4022477717750478 0.19 0  0.3973039660693901 0.19 0  0.3923601603637548 0.19 0  0.3874163546581082 0.19 0  0.3824725489524824 0.19 0  0.3775287432468258 0.19 0  0.3725849375411773 0.19 0  0.3676411318355085 0.19 0  0.3626973261298614 0.19 0  0.3577535204242108 0.19 0  0.352809714718589 0.19 0  0.347865909012931 0.19 0  0.342922103307292 0.19 0  0.3379782976016536 0.19 0  0.3330344918960152 0.19 0  0.3280906861903751 0.19 0  0.3231468804847171 0.19 0  0.3182030747790592 0.19 0  0.3132592690734012 0.19 0  0.3083154633677581 0.19 0  0.3033716576621197 0.19 0  0.2984278519564813 0.19 0  0.2934840462508429 0.19 0  0.2885402405451874 0.19 0  0.2835964348395295 0.19 0  0.2786526291338716 0.19 0  0.2737088234282243 0.19 0  0.268765017722586 0.19 0  0.2638212120169476 0.19 0  0.2588774063113093 0.19 0  0.2539336006056579 0.19 0  0.6 0.1949999999999783 0  0.6 0.2049999999999729 0  0.2589734265316493 0.2005523893428403 0  0.5431462343853077 0.199999999999969 0  0.5682397894768162 0.1999704585808987 0  0.2774513927118024 0.2007941919421926 0  0.513849583376897 0.1999023426490919 0  0.5286810004937381 0.1999023426490969 0  0.2945108952057646 0.1992911908405386 0  0.5827780831384927 0.1995429801003349 0  0.3104128396569256 0.1999704585808978 0  0.3370001755418551 0.2008294612433967 0  0.4990181662600459 0.1999023426490902 0  0.3552816175709044 0.2000000000000608 0  0.4841867491431925 0.1999023426490849 0  0.3707373713905551 0.2000142376953689 0  0.3898882575102495 0.2000000000000828 0  0.4689857550492734 0.1995416724256694 0  0.4541577316841967 0.1999999999999098 0  0.4043534914018331 0.2000976573509244 0  0.4195510917439569 0.2000000000001057 0  0.4387019778644512 0.1999857623046772 0  0.3202472750256703 0.2000088842146399 0  0.5584053541080851 0.1999911157853577 0  0.4280667146887134 0.1998489048208241 0  0.3467659946265474 0.2001510951794375 0  0.3813726345658908 0.200151095179452 0  0.2860683376922098 0.2000415445706182 0  0.5911223811781194 0.1982449159348744 0  0.2679893161458627 0.201675125646729 0  0.4615734402426278 0.2022503633288003 0  0.4912362744763454 0.2022503633288091 0  0.5060676915931983 0.2022503633288118 0  0.3973039660686774 0.1977496366711965 0  0.4764048573594896 0.2022503633288051 0  0.5208991087100455 0.2022503633288184 0  0.4467420231257656 0.2022503633288 0  0.5357305258268849 0.2022503633288198 0  0.4121353831855317 0.1977496366711976 0  0.3626973261293352 0.1977496366711919 0  0.3033716576618961 0.1977496366711869 0  0.5752809714718229 0.1977496366711503 0  0.550459855919056 0.1971284784737667 0  0.3281927732146841 0.2028715215262406 0  0.5484179020497461 0.2038403215694763 0  0.3302347270839988 0.1961596784305491 0  0.5379210852238114 0.196125181664411 0  0.5230896681069652 0.1961251816644058 0  0.5082582509901222 0.1961251816644098 0  0.5774715308687094 0.2038748183355887 0  0.3011810982649548 0.2038748183355937 0  0.4785954167564111 0.196125181664404 0  0.4934268338732671 0.1961251816644063 0  0.395113406671763 0.2038748183355966 0  0.3605067667324117 0.2038748183355951 0  0.4593828808457146 0.1961251816643993 0  0.4489325825226805 0.1961251816644007 0  0.4099448237886219 0.2038748183355991 0  0.2557862999801971 0.1960858370257295 0  0.2550147360309399 0.2034426429991114 0  0.4348031476464689 0.2037737577641554 0  0.37463620160841 0.1962262422358553 0  0.3406258365864304 0.196046792193989 0  0.2813001681189834 0.1960467921940502 0  0.2912686387439893 0.1960816328649282 0  0.4246705335819892 0.2039532078059544 0  0.350162175732913 0.1960467921941878 0  0.3847688156722694 0.1960467921942359 0  0.316632368538356 0.19615945856337 0  0.5621550011053409 0.2037816492598991 0  0.5624413877019769 0.1960761923611377 0  0.3162395035833128 0.2038679557424692 0  0.2710887134207622 0.1959696443325838 0  0.5873014376403604 0.2047227881030823 0  0.4346679566442709 0.1954651459552513 0  0.4243296504077986 0.1958756980939062 0  0.3402559510833523 0.2047940500290923 0  0.2808684926760933 0.2047742417812656 0  0.2914077033138723 0.2047809517070955 0  0.3747713926104932 0.2045348540448554 0  0.3499216488898867 0.2051753413186305 0  0.3845282888292298 0.205175341318636 0  0.2648144865455052 0.1962089742986374 0  0.5943247643662894 0.2040415423589182 0  0.5320972610456145 0.1956445099050872 0  0.5172658439287727 0.1956445099050854 0  0.3069923255602658 0.2043468033872551 0  0.5024344268119265 0.1956445099050864 0  0.5716603035734351 0.2043468033872761 0  0.4876030096950741 0.1956445099050831 0  0.4728151975296263 0.1956402468909894 0  0.3663301776527538 0.20436745486386 0  0.4651631000724991 0.1956402468909893 0  0.4009372308499527 0.2043554900949198 0  0.4431091716023345 0.1956325451361429 0  0.4157593408842466 0.2043565497109067 0  0.5865057328865416 0.1956918868509067 0  0.5541600609760193 0.2044335994013721 0  0.3244925681577497 0.1955664005986376 0  0.272008018888917 0.2049327968152409 0  0.2633407725863902 0.2042483236346266 0  0.4567948413982566 0.2046536472831198 0  0.4167680012832803 0.1955060004091903 0  0.4716262585151221 0.2046536472831242 0  0.5161054367030595 0.2045563706470633 0  0.4864426024693469 0.2045563706470604 0  0.5012740195862044 0.2045563706470634 0  0.4022810343427545 0.1961423961483001 0  0.4420739040821668 0.2044853411424516 0  0.3673807293464664 0.1955677741328205 0  0.3925253672243162 0.195346352716901 0  0.5405091246712254 0.2046536472831267 0  0.357918727284983 0.1953463527168901 0  0.5307534575528717 0.2038576038516682 0  0.3079697655029555 0.1955637092892754 0  0.2985930588175599 0.1953463527168728 0  0.579671714346879 0.1955441268455555 0  0.5705023726275059 0.1953463527168462 0  0.5112451461103119 0.2035640580783926 0  0.4964137289934448 0.2035640580783915 0  0.4665727251511405 0.2038238154617746 0  0.5259274680675793 0.2038006696000127 0  0.4815823118765752 0.2035640580783898 0  0.4517504165552094 0.2039070625502732 0  0.4071070238280551 0.1961993303999926 0  0.3234846806957546 0.2047001437739977 0  0.5551679484379799 0.1952998562260008 0  0.5457754356464107 0.1954447171286166 0  0.3329307555206357 0.2046017509710421 0  0.4541577316841968 0.1960357661898101 0  0.3358300776141575 0.1950765652117375 0  0.2539718587514912 0.200011552766824 0  0.5826472073721517 0.2039971170156656 0  0.2761021761080182 0.1946948236183283 0  0.3898581462796225 0.2041572776584344 0  0.3552515063402743 0.2041572776584256 0  0.2965028074750666 0.2046578268138723 0  0.4299158836614793 0.1951782397873778 0  0.379426563923736 0.2049969334481307 0  0.2860882692072842 0.2042624797643994 0  0.3449948044168807 0.2051793676155613 0  0.2603922435707652 0.1950997711614917 0  0.5949856943860
[...]
<PointData  Vectors="f_18-1"> 
<DataArray  type="Float64"  Name="f_18-1"  NumberOfComponents="3" format="ascii">-2.6856155336689006e-02 -1.1415867140587425e-01 0.0000000000000000e+00  -1.8171587691619071e-02 -1.1614352129484561e-01 0.0000000000000000e+00  0.0000000000000000e+00 0.0000000000000000e+00 0.0000000000000000e+00  0.0000000000000000e+00 0.0000000000000000e+00 0.0000000000000000e+00  -2.2513717853713072e-02 -1.1515117876792519e-01 0.0000000000000000e+00  0.0000000000000000e+00 0.0000000000000000e+00 0.0000000000000000e+00  0.0000000000000000e+00 0.0000000000000000e+00 0.0000000000000000e+00  0.0000000000000000e+00 0.0000000000000000e+00 0.0000000000000000e+00  0.0000000000000000e+00 0.0000000000000000e+00 0.0000000000000000e+00  1.5516613516218891e-04 -1.3654122353687454e-04 0.0000000000000000e+00  3.2522707260106436e-04 -2.8786458130998488e-04 0.0000000000000000e+00  4.9239617804712086e-04 -4.8145860678653360e-04 0.0000000000000000e+00  6.4611373454742617e-04 -8.0312431770315502e-04 0.0000000000000000e+00  7.8738779204829258e-04 -1.1946794130899146e-03 0.0000000000000000e+00  9.2843984392731375e-04 -1.6847608688753300e-03 0.0000000000000000e+00  1.0487271844813438e-03 -2.2261913239582641e-03 0.0000000000000000e+00  1.1459687887721158e-03 -2.8569269934242449e-03 0.0000000000000000e+00  1.2366129092005180e-03 -3.5590424285484364e-03 0.0000000000000000e+00  1.3086955885400014e-03 -4.3317530145309431e-03 0.0000000000000000e+00  1.3750107836867434e-03 -5.2003203369290459e-03 0.0000000000000000e+00  1.4376061444682051e-03 -6.0848437903003698e-03 0.0000000000000000e+00  1.4614780215281913e-03 -7.0735593842761041e-03 0.0000000000000000e+00  1.4964117011733139e-03 -8.1216963377516715e-03 0.0000000000000000e+00  1.4917586813444125e-03 -9.2186010612132219e-03 0.0000000000000000e+00  1.4762442104563661e-03 -1.0391634556810664e-02 0.0000000000000000e+00  1.4430785084009674e-03 -1.1607083383549564e-02 0.0000000000000000e+00  1.3871839846420109e-03 -1.2894387975150790e-02 0.0000000000000000e+00  1.3124429628411690e-03 -1.4210168536409109e-02 0.0000000000000000e+00  1.2204395021548650e-03 -1.5587035086926772e-02 0.0000000000000000e+00  1.1094816713919527e-03 -1.7005232634644801e-02 0.0000000000000000e+00  9.7856780012442598e-04 -1.8463970667696662e-02 0.0000000000000000e+00  8.3534898461987996e-04 -1.9991756859309290e-02 0.0000000000000000e+00  6.8885484642037490e-04 -2.1529802936192662e-02 0.0000000000000000e+00  5.1293358551013043e-04 -2.3127126883409812e-02 0.0000000000000000e+00  3.2130329017534973e-04 -2.4748779641051748e-02 0.0000000000000000e+00  1.1299735569144566e-04 -2.6415454334681374e-02 0.0000000000000000e+00  -1.1171191675647458e-04 -2.8113886637975087e-02 0.0000000000000000e+00  -3.5465781741363399e-04 -2.9841533912114689e-02 0.0000000000000000e+00  -6.1067619297953480e-04 -3.1619238778727916e-02 0.0000000000000000e+00  -8.6950284528821559e-04 -3.3401402489299688e-02 0.0000000000000000e+00  -1.1575118246585289e-03 -3.5223099471968618e-02 0.0000000000000000e+00  -1.4564724177664650e-03 -3.7077576730437212e-02 0.0000000000000000e+00  -1.7594972765207384e-03 -3.8939227521913020e-02 0.0000000000000000e+00  -2.0866795895941401e-03 -4.0834709605194398e-02 0.0000000000000000e+00  -2.4149617566296432e-03 -4.2749045763094580e-02 0.0000000000000000e+00  -2.7625408416987653e-03 -4.4682193393460121e-02 0.0000000000000000e+00  -3.1147099917928846e-03 -4.6640512705068013e-02 0.0000000000000000e+00  -3.4815373806329833e-03 -4.8610948480321464e-02 0.0000000000000000e+00  -3.8597293954656751e-03 -5.0602114705761515e-02 0.0000000000000000e+00  -4.2440836723213948e-03 -5.2608415667581933e-02 0.0000000000000000e+00  -4.6372522397309232e-03 -5.4631356148355792e-02 0.0000000000000000e+00  -5.0428550129003394e-03 -5.6667974160897951e-02 0.0000000000000000e+00  -5.4536728935151140e-03 -5.8716658370064498e-02 0.0000000000000000e+00  -5.8726531699053288e-03 -6.0778489252091179e-02 0.0000000000000000e+00  -6.3015977633610809e-03 -6.2850331724656053e-02 0.0000000000000000e+00  -6.7353616429050682e-03 -6.4930588268784437e-02 0.0000000000000000e+00  -7.1754548644067471e-03 -6.7020455610173515e-02 0.0000000000000000e+00  -7.6225561180803198e-03 -6.9116693564791137e-02 0.0000000000000000e+00  -8.0732101754110597e-03 -7.1219179339415378e-02 0.0000000000000000e+00  -8.5283510890050169e-03 -7.3328892470808121e-02 0.0000000000000000e+00  -8.9887774676606011e-03 -7.5443676067464216e-02 0.0000000000000000e+00  -9.4519073236321097e-03 -7.7563668266603061e-02 0.0000000000000000e+00  -9.9185457535372092e-03 -7.9689561562307679e-02 0.0000000000000000e+00  -1.0389546162584043e-02 -8.1819755455015186e-02 0.0000000000000000e+00  -1.0862713182056555e-02 -8.3954321741255195e-02 0.0000000000000000e+00  -1.1338947632476538e-02 -8.6093161916701424e-02 0.0000000000000000e+00  -1.1818387575731054e-02 -8.8235006168401769e-02 0.0000000000000000e+00  -1.2300560767102179e-02 -9.0378925712712971e-02 0.0000000000000000e+00  -1.2785388981637684e-02 -9.2525033666788256e-02 0.0000000000000000e+00  -1.3271911865854897e-02 -9.4672626259922690e-02 0.0000000000000000e+00  -1.3759102271604611e-02 -9.6820037170519693e-02 0.0000000000000000e+00  -1.4248241031342685e-02 -9.8968205595088579e-02 0.0000000000000000e+00  -1.4737865367093213e-02 -1.0111611914157287e-01 0.0000000000000000e+00  -1.5228062064070064e-02 -1.0326361094819321e-01 0.0000000000000000e+00  -1.5718622581577909e-02 -1.0541057533977706e-01 0.0000000000000000e+00  -1.6209266793286763e-02 -1.0755737533033360e-01 0.0000000000000000e+00  -1.6699820396091365e-02 -1.0970379911799902e-01 0.0000000000000000e+00  -1.7190390699901949e-02 -1.1185009097439250e-01 0.0000000000000000e+00  -1.7681010560337298e-02 -1.1399671558441112e-01 0.0000000000000000e+00  -2.6365571807323872e-02 -1.1201196479867724e-01 0.0000000000000000e+00  -2.5874892479866671e-02 -1.0986557796985083e-01 0.0000000000000000e+00  -2.5384200983333376e-02 -1.0771918842565670e-01 0.0000000000000000e+00  -2.4893596717642720e-02 -1.0557288075205933e-01 0.0000000000000000e+00  -2.4402957332163567e-02 -1.0342640148560590e-01 0.0000000000000000e+00  -2.3912160379362366e-02 -1.0127957348907464e-01 0.0000000000000000e+00  -2.3421009883630516e-02 -9.9132610954719730e-02 0.0000000000000000e+00  -2.2929433699556571e-02 -9.6985713270662952e-02 0.0000000000000000e+00  -2.2437490185009307e-02 -9.4838910777391414e-02 0.0000000000000000e+00  -2.1945104902741049e-02 -9.2693382672284011e-02 0.0000000000000000e+00  -2.1452160404126227e-02 -9.0548889858086901e-02 0.0000000000000000e+00  -2.0959544528580787e-02 -8.8406815096650770e-02 0.0000000000000000e+00  -2.0466826375693945e-02 -8.6268728803387443e-02 0.0000000000000000e+00  -1.9973332875480448e-02 -8.4132072271489000e-02 0.0000000000000000e+00  -1.9481673579394385e-02 -8.2000720882660999e-02 0.0000000000000000e+00  -1.8990653034123343e-02 -7.9876166633726181e-02 0.0000000000000000e+00  -1.8499172004545192e-02 -7.7753561890652342e-02 0.0000000000000000e+00  -1.8011522765710140e-02 -7.5638271035140855e-02 0.0000000000000000e+00  -1.7524978380379017e-02 -7.3531135754487748e-02 0.0000000000000000e+00  -1.7038063132897546e-02 -7.1426141437188506e-02 0.0000000000000000e+00  -1.6556181538070449e-02 -6.9329898400038073e-02 0.0000000000000000e+00  -1.6075510678317837e-02 -6.7243482732840171e-02 0.0000000000000000e+00  -1.5594223699376823e-02 -6.5159786344241910e-02 0.0000000000000000e+00  -1.5119015649679039e-02 -6.3087275642885951e-02 0.0000000000000000e+00  -1.4645120144082070e-02 -6.1028385838376983e-02 0.0000000000000000e+00  -1.4171034389833305e-02 -5.8974899997705645e-02 0.0000000000000000e+00  -1.3702365822599174e-02 -5.6934903099752666e-02 0.0000000000000000e+00  -1.3236892523691412e-02 -5.4914566921613450e-02 0.0000000000000000e+00  -1.2771582304887450e-02 -5.2898121248530411e-02 0.0000000000000000e+00  -1.2318059014930544e-02 -5.0901806075566443e-02 0.0000000000000000e+00  -1.1866175278961994e-02 -4.8932073444488335e-02 0.0000000000000000e+00  -1.1413908949636946e-02 -4.6968783402835022e-02 0.0000000000000000e+00  -1.0973120600105550e-02 -4.5031627540041225e-02 0.0000000000000000e+00  -1.0538549427323648e-02 -4.3107501559740705e-02 0.0000000000000000e+00  -1.0110257040666410e-02 -4.1206090457864608e-02 0.0000000000000000e+00  -9.6928687340592946e-03 -3.9332088886621208e-02 0.0000000000000000e+00  -9.2736476907990389e-03 -3.7474757380398509e-02 0.0000000000000000e+00  -8.8670017325695513e-03 -3.5644902711303585e-02 0.0000000000000000e+00  -8.4627601871880356e-03 -3.3840497185802156e-02 0.0000000000000000e+00  -8.0642450316025932e-03 -3.2065839385578672e-02 0.0000000000000000e+00  -7.6762168683863624e-03 -3.0322359193093309e-02 0.0000000000000000e+00  -7.3011616506690486e-03 -2.8601255886984159e-02 0.0000000000000000e+00  -6.9370171185137138e-03 -2.6916542426741016e-02 0.0000000000000000e+00  -6.5639136604613638e-03 -2.5262632849306892e-02 0.0000000000000000e+00  -6.2156945887288729e-03 -2.3647541062346553e-02 0.0000000000000000e+00  -5.8635879896984161e-03 -2.2078280815762793e-02 0.0000000000000000e+00  -5.5322226285086356e-03 -2.0537285040749188e-02 0.0000000000000000e+00  -5.2077895797009261e-03 -1.9047782597154825e-02 0.0000000000000000e+00  -4.8985195226697422e-03 -1.7587286423869829e-02 0.0000000000000000e+00  -4.6024835489670039e-03 -1.6176190981905616e-02 0.0000000000000000e+00  -4.2931131724182761e-03 -1.4803723115672652e-02 0.0000000000000000e+00  -4.0138737215275498e-03 -1.3480245095782432e-02 0.0000000000000000e+00  -3.7249954487302201e-03 -1.2216748864435573e-02 0.0000000000000000e+00  -3.4678367184003125e-03 -1.0993201755761189e-02 0.0000000000000000e+00  -3.2159314637878154e-03 -9.8460354540173094e-03 0.0000000000000000e+00  -2.9601149183963345e-03 -8.7164499205888563e-03 0.0000000000000000e+00  -2.7278636944724492e-03 -7.6682831768435768e-03 0.0000000000000000e+00  -2.4752868227086206e-03 -6.6783899597595477e-03 0.0000000000000000e+00  -2.2573264385479619e-03 -5.7418992871617744e-03 0.0000000000000000e+00  -2.0420829450839210e-03 -4.8890495653339120e-03 0.0000000000000000e+00  -1.8395010376114583e-03 -4.0816564817789227e-03 0.0000000000000000e+00  -1.6477786417831528e-03 -3.3547591593040891e-03 0.0000000000000000e+00  -1.4357133051967974e-03 -2.6839231448849686e-03 0.0000000000000000e+00  -1.2597822393080162e-03 -2.0861145824934350e-03 0.0000000000000000e+00  -1.0589704731031584e-03 -1.5634634818933631e-03 0.0000000000000000e+00  -8.8592382267396470e-04 -1.1285113448021022e-03 0.0000000000000000e+00  -6.9122580970495408e-04 -7.6950537063840156e-04 0.0000000000000000e+00  -5.1569613758025757e-04 -4.6637028321479376e-04 0.0000000000000000e+00  -3.4374956328079052e-04 -2.5416995767784035e-04 0.0000000000000000e+00  -1.7076867435723134e-04 -1.4550480203891732e-04 0.0000000000000000e+00  -2.4684879085137758e-02 -1.1465487695607979e-01 0.0000000000000000e+00  -2.0342709731500500e-02 -1.1564739034499687e-01 0.0000000000000000e+00  1.5101069208124444e-05 -1.4058939338161669e-04 0.0000000000000000e+00  -1.6873258674294931e-02 -9.0461812873488076e-02 0.0000000000000000e+00  -1.9374520371195771e-02 -1.0135740025912927e-01 0.0000000000000000e+00  1.2413618607005626e-05 -1.3927372701246165e-03 0.0000000000000000e+00  -1.4043984058660225e-02 -7.7801051047458214e-02 0.0000000000000000e+00  -1.5489591981464611e-02 -8.4188043977064461e-02 0.0000000000000000e+00  -2.9656514624067760e-04 -3.4971287541188342e-03 0.0000000000000000e+00  -2.1003174597834944e-02 -1.0762826844780253e-01 0.0000000000000000e+00  -4.3399160745119069e-04 -6.2261884488308012e-03 0.0000000000000000e+00  -9.1890403549535395e-04 -1.2252813379756238e-02 0.0000000000000000e+00  -1.2620721532323994e-02 -7.1462421569741807e-02 0.0000000000000000e+00  -1.8283593515903678e-03 -1.7248488821124716e-02 0.0000000000000000e+00  -1.1225245273209497e-02 -6.5181396467705988e-02 0.0000000000000000e+00  -2.5593192962808440e-03 -2.1949613980599459e-02 0.0000000000000000e+00  -3.6542819749948090e-03 -2.8325667272621504e-02 0.0000000000000000e+00  -9.9809857302935179e-03 -5.8789605525240485e-02 0.0000000000000000e+00  -8.4834709211384172e-03 -5.2739300061636490e-02 0.0000000000000000e+00  -4.5611250941862171e-03 -3.3464228018178326e-02 0.0000000000000000e+00  -5.6859633492260444e-03 -3.9108848226261032e-02 0.0000000000000000e+00  -7.1895307928272470e-03 -4.6532850430942990e-02 0.0000000000000000e+00  -6.3756491359065980e-04 -8.2433805901397008e-03 0.0000000000000000e+00  -1.8389174220143946e-02 -9.7086941981479602e-02 0.0000000000000000e+00  -6.3930105969388189e-03 -4.2362762953828924e-02 0.0000000000000000e+00  -1.4407487147101196e-03 -1.4831222437738182e-02 0.0000000000000000e+00  -3.0972585274517033e-03 -2.5431300946309372e-02 0.0000000000000000e+00  -1.1757907043175129e-04 -2.3756661087160754e-03 0.0000000000000000e+00  -2.2394902148044633e-02 -1.1112212970832079e-01 0.0000000000000000e+00  8.0172969626146360e-05 -6.1986915050987117e-04 0.0000000000000000e+00  -8.2097751766976139e-03 -5.5968500065820131e-02 0.0000000000000000e+00  -1.0893320300187066e-02 -6.8379801009928076e-02 0.0000000000000000e+00  -1.2292729489946586e-02 -7.4694083055911090e-02 0.0000000000000000e+00  -4.9215012205465992e-03 -3.0782359561036955e-02 0.0000000000000000e+00  -9.5283018976770259e-03 -6.2129375249650357e-02 0.0000000000000000e+00  -1.3719608249612766e-02 -8.1060126308875005e-02 0.0000000000000000e+00  -6.9527286286294671e-03 -4.9930589062439169e-02 0.0000000000000000e+00  -1.5168397207130407e-02 -8.7468685758444145e-02 0.0000000000000000e+00  -5.9770920172126469e-03 -3.6167263315992897e-02 0.0000000000000000e+00  -2.8477767466810063e-03 -1.9353578756783247e-02 0.0000000000000000e+00  -6.9478899787646115e-04 -4.9176230871754824e-03 0.0000000000000000e+00  -2.1037741117522719e-02 -1.0419511166309844e-01 0.0000000000000000e+00  -1.8842230692552992e-02 -9.3352770799804669e-02 0.0000000000000000e+00  -1.8547726850558390e-04 -1.0141653644967333e-02 0.0000000000000000e+00  -1.5730737925805961e-02 -9.3129903362996591e-02 0.0000000000000000e+00  -1.8313984090491100e-03 -1.0450223033983234e-02 0.0000000000000000e+00  -1.8032740195236173e-02 -8.7815635038343637e-02 0.0000000000000000e+00  -1.6567559464188336e-02 -8.1408408980579786e-02 0.0000000000000000e+00  -1.5117861243912342e-02 -7.5044642619082599e-02 0.0000000000000000e+00  -1.8595706772252425e-02 -1.0575407870711211e-01 0.0000000000000000e+00  3.6598731942292015e-04 -4.6386017466015584e-03 0.0000000000000000e+00  -1.2285508570333328e-02 -6.2488833672168072e-02 0.0000000000000000e+00  -1.3688916210274021e-02 -6.8734142330572595e-02 0.0000000000000000e+00  -2.6255364219437043e-03 -3.0402242117498444e-02 0.0000000000000000e+00  -9.0565179646450366e-04 -1.8979614349344393e-02 0.0000000000000000e+00  -1.0522721271959828e-02 -5.4535858308549734e-02 0.0000000000000000e+00  -9.5904555205445618e-03 -5.0300215156259237e-02 0.0000000000000000e+00  -3.5606945012484951e-03 -3.5789679644694969e-02 0.0000000000000000e+00  -7.5650661810634489e-05 -6.0251052986878478e-05 0.0000000000000000e+00  5.3050726981723689e-05 -4.6456981633456050e-05 0.0000000000000000e+00  -5.3965242537283402e-03 -4.5302567081868750e-02 0.0000000000000000e+00  -3.9909496641092031e-03 -2.3008720363510531e-02 0.0000000000000000e+00  -2.2873442132756066e-03 -1.3041369492828277e-02 0.0000000000000000e+00  -5.0686410949226551e-04 -1.7887337971052612e-03 0.0000000000000000e+00  -6.8907215385741953e-04 -3.0208868827577128e-03 0.0000000000000000e+00  -4.5665061978906324e-03 -4.1372666704999242e-02 0.0000000000000000e+00  -2.7166109495309230e-03 -1.5623177045840139e-02 0.0000000000000000e+00  -4.6760544195117021e-03 -2.6341346637098313e-02 0.0000000000000000e+00  -1.3475121995010924e-03 -7.4072445246639012e-03 0.0000000000000000e+00  -1.7116213558731115e-02 -9.9091861568884651e-02 0.0000000000000000e+00  -2.0489265305468064e-02 -9.8452529456728527e-02 0.0000000000000000e+00  2.3498515404740507e-04 -7.4891574284263870e-03 0.0000000000000000e+00  -3.4738602536239175e-04 -8.5292967701415914e-04 0.0000000000000000e+00  -1.9202938854056384e-02 -1.1010617288655949e-01 0.0000000000000000e+00  -8.6337048795234704e-03 -4.4591147944154114e-02 0.0000000000000000e+00  -7.6248120848034315e-03 -4.0625223922862025e-02 0.0000000000000000e+00  6.4707316935183759e-06 -1.3255326488341915e-02 0.0000000000000000e+00  4.2433394386079171e-04 -1.8008578449694734e-03 0.0000000000000000e+00  4.9403545048308398e-04 -3.1327916232012300e-03 0.0000000000000000e+00  -1.3209735881450184e-03 -2.3500989418635390e-02 0.0000000000000000e+00  -1.6567729685561459e-04 -1.5934859603631637e-02 0.0000000000000000e+00  -1.5950622201992180e-03 -2.6803302792559908e-02 0.0000000000000000e+00  -2.1626813764408131e-04 -4.4621690290337022e-04 0.0000000000000000e+00  -2.0195742855321823e-02 -1.1308791091503871e-01 0.0000000000000000e+00  -1.7664411878644481e-02 -8.5248600443899231e-02 0.0000000000000000e+00  -1.6203760649850529e-02 -7.8857494702359657e-02 0.0000000000000000e+00  4.0965606809747714e-04 -5.6801074648795769e-03 0.0000000000000000e+00  -1.4760382651360640e-02 -7.2514494721491268e-02 0.0000000000000000e+00  -1.7814122550333041e-02 -1.0327722192511087e-01 0.0000000000000000e+00  -1.3339126498837825e-02 -6.6228778316443956e-02 0.0000000000000000e+00  -1.1950945556452670e-02 -6.0033938305875952e-02 0.0000000000000000e+00  -1.0028891892357118e-03 -2.0794016605243867e-02 0.0000000000000000e+00  -1.1243724420321486e-02 -5.6866645705956585e-02 0.0000000000000000e+00  -2.8141958243435477e-03 -3.2518608571355107e-02 0.0000000000000000e+00  -9.2867830926632779e-03 -4.7931978843338087e-02 0.0000000000000000e+00  -3.7804752415001898e-03 -3.8003189687597229e-02 0.0000000000000000e+00  -2.3045331496326964e-02 -1.0886440588332021e-01 0.0000000000000000e+00  -1.6041313530900801e-02 -9.5682636700517965e-02 0.0000000000000000e+00  -1.7536087261535841e-03 -9.0976295585539109e-03 0.0000000000000000e+00  3.4506576928222563e-04 -9.4338799793495175e-04 0.0000000000000000e+00  1.8599549969379087e-04 -3.5993171485015343e-04 0.0000000000000000e+00  -6.8219475268435350e-03 -5.4218550069943756e-02 0.0000000000000000e+00  -7.1670032982296492e-03 -3.7739005653384811e-02 0.0000000000000000e+00  -8.1020071686913175e-03 -6.0351636670541324e-02 0.0000000000000000e+00  -1.2266845213596302e-02 -7.9221404283517996e-02 0.0000000000000000e+00  -9.4780764994443125e-03 -6.6567631939116342e-02 0.0000000000000000e+00  -1.0856556766435363e-02 -7.2867613510985030e-02 0.0000000000000000e+00  -5.8452262212669633e-03 -3.2454875584752040e-02 0.0000000000000000e+00  -5.6852880445650966e-03 -4.8247812926853380e-02 0.0000000000000000e+00  -3.7734008278088411e-03 -2.0689853464628930e-02 0.0000000000000000e+00  -5.4362140775056069e-03 -2.8962080501556822e-02 0.0000000000000000e+00  -1.4598925202655020e-02 -8.9777209696583760e-02 0.0000000000000000e+00  -3.3135003991647274e-03 -1.7830151762489341e-02 0.0000000000000000e+00  -1.3986540475666295e-02 -8.5471926773195234e-02 0.0000000000000000e+00  -1.2061589484107702e-03 -5.7133560573347049e-03 0.0000000000000000e+00  -9.8229625001389448e-04 -4.1033273336076280e-03 0.0000000000000000e+00  -2.2431275046087624e-02 -1.0588275156794968e-01 0.0000000000000000e+00  -2.1606778504767769e-02 -1.0188159014710803e-01 0.0000000000000000e+00  -1.2225503670167117e-02 -7.7037629463273208e-02 0.0000000000000000e+00  -1.0820824088586397e-02 -7.0701996208167348e-02 0.0000000000000000e+00  -7.9988113594073543e-03 -5.8174545008012481e-02 0.0000000000000000e+00  -1.3540540195744305e-02 -8.3380342559668766e-02 0.0000000000000000e+00  -9.4492760355306543e-03 -6.4424355451042400e-02 0.0000000000000000e+00  -6.7001499884754446e-03 -5.2097391789705474e-02 0.0000000000000000e+00  -6.1750403279047178e-03 -3.4206931290923184e-02 0.0000000000000000e+00  3.1800023795281970e-04 -9.1023417157095748e-03 0.0000000000000000e+00  -2.0103214515892382e-02 -9.5216537987406813e-02 0.0000000000000000e+00  -1.9107062344701990e-02 -9.1153578309117980e-02 0.0000000000000000e+