<?xml version="1.0"?>
<VTKFile type="UnstructuredGrid"  version="0.1"  >
<UnstructuredGrid>
<Piece  NumberOfPoints="439" NumberOfCells="725">
<Points>
<DataArray  type="Float64"  NumberOfComponents="3"  format="ascii">0.6 0.19 0  0.6 0.21 0  0.2489897949 0.21 0  0.2489897949 0.19 0  0.6 0.2 0  0.2496355385699469 0.2060260530378829 0  0.249959460510575 0.2020130349814059 0  0.2499594605105767 0.1979869650186357 0  0.24963553856995 0.1939739469621422 0  0.2539336006056293 0.21 0  0.2588774063112542 0.21 0  0.2638212120168921 0.21 0  0.26876501772253 0.21 0  0.2737088234281569 0.21 0  0.2786526291337753 0.21 0  0.2835964348393937 0.21 0  0.2885402405450166 0.21 0  0.2934840462506522 0.21 0  0.2984278519562708 0.21 0  0.3033716576618997 0.21 0  0.3083154633675181 0.21 0  0.3132592690731365 0.21 0  0.3182030747787549 0.21 0  0.3231468804843732 0.21 0  0.3280906861899917 0.21 0  0.3330344918956208 0.21 0  0.3379782976012284 0.21 0  0.3429221033068576 0.21 0  0.347865909012476 0.21 0  0.3528097147180944 0.21 0  0.3577535204237128 0.21 0  0.3626973261293311 0.21 0  0.3676411318349495 0.21 0  0.3725849375405788 0.21 0  0.3775287432461877 0.21 0  0.382472548951812 0.21 0  0.3874163546574338 0.21 0  0.3923601603630631 0.21 0  0.3973039660686706 0.21 0  0.4022477717742986 0.21 0  0.4071915774799107 0.21 0  0.4121353831855311 0.21 0  0.4170791888911518 0.21 0  0.4220229945967636 0.21 0  0.4269668003023918 0.21 0  0.4319106060080253 0.21 0  0.4368544117136773 0.21 0  0.4417982174193329 0.21 0  0.4467420231249967 0.21 0  0.4516858288306445 0.21 0  0.4566296345362864 0.21 0  0.461573440241916 0.21 0  0.4665172459475665 0.21 0  0.4714610516531998 0.21 0  0.4764048573588668 0.21 0  0.4813486630645134 0.21 0  0.486292468770176 0.21 0  0.4912362744758066 0.21 0  0.4961800801814611 0.21 0  0.5011238858870897 0.21 0  0.5060676915927493 0.21 0  0.5110114972983872 0.21 0  0.5159553030040036 0.21 0  0.5208991087096415 0.21 0  0.5258429144153002 0.21 0  0.5307867201209391 0.21 0  0.5357305258265987 0.21 0  0.5406743315322367 0.21 0  0.5456181372378529 0.21 0  0.5505619429434908 0.21 0  0.5555057486491456 0.21 0  0.5604495543547885 0.21 0  0.565393360060448 0.21 0  0.5703371657661116 0.21 0  0.5752809714717458 0.21 0  0.5802247771773834 0.21 0  0.5851685828830341 0.21 0  0.5901123885886809 0.21 0  0.5950561942943404 0.21 0  0.5950561942943833 0.19 0  0.590112388588758 0.19 0  0.5851685828831193 0.19 0  0.5802247771774727 0.19 0  0.5752809714718514 0.19 0  0.5703371657662308 0.19 0  0.565393360060618 0.19 0  0.5604495543549889 0.19 0  0.5555057486493581 0.19 0  0.5505619429437035 0.19 0  0.5456181372381043 0.19 0  0.540674331532505 0.19 0  0.5357305258268962 0.19 0  0.530786720121263 0.19 0  0.5258429144156628 0.19 0  0.5208991087100244 0.19 0  0.5159553030044218 0.19 0  0.5110114972988226 0.19 0  0.5060676915932177 0.19 0  0.5011238858875806 0.19 0  0.496180080181972 0.19 0  0.4912362744763531 0.19 0  0.4862924687707343 0.19 0  0.4813486630651046 0.19 0  0.4764048573594966 0.19 0  0.4714610516538683 0.19 0  0.4665172459482555 0.19 0  0.4615734402426349 0.19 0  0.4566296345370104 0.19 0  0.4516858288313808 0.19 0  0.4467420231257716 0.19 0  0.4417982174201465 0.19 0  0.4368544117145297 0.19 0  0.4319106060089131 0.19 0  0.4269668003032866 0.19 0  0.4220229945976482 0.19 0  0.4170791888920056 0.19 0  0.4121353831863594 0.19 0  0.4071915774806995 0.19 0  0.4022477717750478 0.19 0  0.3973039660693901 0.19 0  0.3923601603637548 0.19 0  0.3874163546581082 0.19 0  0.3824725489524824 0.19 0  0.3775287432468258 0.19 0  0.3725849375411773 0.19 0  0.3676411318355085 0.19 0  0.3626973261298614 0.19 0  0.3577535204242108 0.19 0  0.352809714718589 0.19 0  0.347865909012931 0.19 0  0.342922103307292 0.19 0  0.3379782976016536 0.19 0  0.3330344918960152 0.19 0  0.3280906861903751 0.19 0  0.3231468804847171 0.19 0  0.3182030747790592 0.19 0  0.3132592690734012 0.19 0  0.3083154633677581 0.19 0  0.3033716576621197 0.19 0  0.2984278519564813 0.19 0  0.2934840462508429 0.19 0  0.2885402405451874 0.19 0  0.2835964348395295 0.19 0  0.2786526291338716 0.19 0  0.2737088234282243 0.19 0  0.268765017722586 0.19 0  0.2638212120169476 0.19 0  0.2588774063113093 0.19 0  0.2539336006056579 0.19 0  0.6 0.1949999999999783 0  0.6 0.2049999999999729 0  0.2589734265316493 0.2005523893428403 0  0.5431462343853077 0.199999999999969 0  0.5682397894768162 0.1999704585808987 0  0.2774513927118024 0.2007941919421926 0  0.513849583376897 0.1999023426490919 0  0.5286810004937381 0.1999023426490969 0  0.2945108952057646 0.1992911908405386 0  0.5827780831384927 0.1995429801003349 0  0.3104128396569256 0.1999704585808978 0  0.3370001755418551 0.2008294612433967 0  0.4990181662600459 0.1999023426490902 0  0.3552816175709044 0.2000000000000608 0  0.4841867491431925 0.1999023426490849 0  0.3707373713905551 0.2000142376953689 0  0.3898882575102495 0.2000000000000828 0  0.4689857550492734 0.1995416724256694 0  0.4541577316841967 0.1999999999999098 0  0.4043534914018331 0.2000976573509244 0  0.4195510917439569 0.2000000000001057 0  0.4387019778644512 0.1999857623046772 0  0.3202472750256703 0.2000088842146399 0  0.5584053541080851 0.1999911157853577 0  0.4280667146887134 0.1998489048208241 0  0.3467659946265474 0.2001510951794375 0  0.3813726345658908 0.200151095179452 0  0.2860683376922098 0.2000415445706182 0  0.5911223811781194 0.1982449159348744 0  0.2679893161458627 0.201675125646729 0  0.4615734402426278 0.2022503633288003 0  0.4912362744763454 0.2022503633288091 0  0.5060676915931983 0.2022503633288118 0  0.3973039660686774 0.1977496366711965 0  0.4764048573594896 0.2022503633288051 0  0.5208991087100455 0.2022503633288184 0  0.4467420231257656 0.2022503633288 0  0.5357305258268849 0.2022503633288198 0  0.4121353831855317 0.1977496366711976 0  0.3626973261293352 0.1977496366711919 0  0.3033716576618961 0.1977496366711869 0  0.5752809714718229 0.1977496366711503 0  0.550459855919056 0.1971284784737667 0  0.3281927732146841 0.2028715215262406 0  0.5484179020497461 0.2038403215694763 0  0.3302347270839988 0.1961596784305491 0  0.5379210852238114 0.196125181664411 0  0.5230896681069652 0.1961251816644058 0  0.5082582509901222 0.1961251816644098 0  0.5774715308687094 0.2038748183355887 0  0.3011810982649548 0.2038748183355937 0  0.4785954167564111 0.196125181664404 0  0.4934268338732671 0.1961251816644063 0  0.395113406671763 0.2038748183355966 0  0.3605067667324117 0.2038748183355951 0  0.4593828808457146 0.1961251816643993 0  0.4489325825226805 0.1961251816644007 0  0.4099448237886219 0.2038748183355991 0  0.2557862999801971 0.1960858370257295 0  0.2550147360309399 0.2034426429991114 0  0.4348031476464689 0.2037737577641554 0  0.37463620160841 0.1962262422358553 0  0.3406258365864304 0.196046792193989 0  0.2813001681189834 0.1960467921940502 0  0.2912686387439893 0.1960816328649282 0  0.4246705335819892 0.2039532078059544 0  0.350162175732913 0.1960467921941878 0  0.3847688156722694 0.1960467921942359 0  0.316632368538356 0.19615945856337 0  0.5621550011053409 0.2037816492598991 0  0.5624413877019769 0.1960761923611377 0  0.3162395035833128 0.2038679557424692 0  0.2710887134207622 0.1959696443325838 0  0.5873014376403604 0.2047227881030823 0  0.4346679566442709 0.1954651459552513 0  0.4243296504077986 0.1958756980939062 0  0.3402559510833523 0.2047940500290923 0  0.2808684926760933 0.2047742417812656 0  0.2914077033138723 0.2047809517070955 0  0.3747713926104932 0.2045348540448554 0  0.3499216488898867 0.2051753413186305 0  0.3845282888292298 0.205175341318636 0  0.2648144865455052 0.1962089742986374 0  0.5943247643662894 0.2040415423589182 0  0.5320972610456145 0.1956445099050872 0  0.5172658439287727 0.1956445099050854 0  0.3069923255602658 0.2043468033872551 0  0.5024344268119265 0.1956445099050864 0  0.5716603035734351 0.2043468033872761 0  0.4876030096950741 0.1956445099050831 0  0.4728151975296263 0.1956402468909894 0  0.3663301776527538 0.20436745486386 0  0.4651631000724991 0.1956402468909893 0  0.4009372308499527 0.2043554900949198 0  0.4431091716023345 0.1956325451361429 0  0.4157593408842466 0.2043565497109067 0  0.5865057328865416 0.1956918868509067 0  0.5541600609760193 0.2044335994013721 0  0.3244925681577497 0.1955664005986376 0  0.272008018888917 0.2049327968152409 0  0.2633407725863902 0.2042483236346266 0  0.4567948413982566 0.2046536472831198 0  0.4167680012832803 0.1955060004091903 0  0.4716262585151221 0.2046536472831242 0  0.5161054367030595 0.2045563706470633 0  0.4864426024693469 0.2045563706470604 0  0.5012740195862044 0.2045563706470634 0  0.4022810343427545 0.1961423961483001 0  0.4420739040821668 0.2044853411424516 0  0.3673807293464664 0.1955677741328205 0  0.3925253672243162 0.195346352716901 0  0.5405091246712254 0.2046536472831267 0  0.357918727284983 0.1953463527168901 0  0.5307534575528717 0.2038576038516682 0  0.3079697655029555 0.1955637092892754 0  0.2985930588175599 0.1953463527168728 0  0.579671714346879 0.1955441268455555 0  0.5705023726275059 0.1953463527168462 0  0.5112451461103119 0.2035640580783926 0  0.4964137289934448 0.2035640580783915 0  0.4665727251511405 0.2038238154617746 0  0.5259274680675793 0.2038006696000127 0  0.4815823118765752 0.2035640580783898 0  0.4517504165552094 0.2039070625502732 0  0.4071070238280551 0.1961993303999926 0  0.3234846806957546 0.2047001437739977 0  0.5551679484379799 0.1952998562260008 0  0.5457754356464107 0.1954447171286166 0  0.3329307555206357 0.2046017509710421 0  0.4541577316841968 0.1960357661898101 0  0.3358300776141575 0.1950765652117375 0  0.2539718587514912 0.200011552766824 0  0.5826472073721517 0.2039971170156656 0  0.2761021761080182 0.1946948236183283 0  0.3898581462796225 0.2041572776584344 0  0.3552515063402743 0.2041572776584256 0  0.2965028074750666 0.2046578268138723 0  0.4299158836614793 0.1951782397873778 0  0.379426563923736 0.2049969334481307 0  0.2860882692072842 0.2042624797643994 0  0.3449948044168807 0.2051793676155613 0  0.2603922435707652 0.1950997711614917 0  0.5949856943860
[...]
<PointData  Vectors="f_18-1"> 
<DataArray  type="Float64"  Name="f_18-1"  NumberOfComponents="3" format="ascii">-2.6159334506624974e-02 -1.1190773316602291e-01 0.0000000000000000e+00  -1.7475300381957461e-02 -1.1389140547576831e-01 0.0000000000000000e+00  0.0000000000000000e+00 0.0000000000000000e+00 0.0000000000000000e+00  0.0000000000000000e+00 0.0000000000000000e+00 0.0000000000000000e+00  -2.1817297402450170e-02 -1.1289952879103440e-01 0.0000000000000000e+00  0.0000000000000000e+00 0.0000000000000000e+00 0.0000000000000000e+00  0.0000000000000000e+00 0.0000000000000000e+00 0.0000000000000000e+00  0.0000000000000000e+00 0.0000000000000000e+00 0.0000000000000000e+00  0.0000000000000000e+00 0.0000000000000000e+00 0.0000000000000000e+00  1.4412592820246695e-04 -1.2563968587316684e-04 0.0000000000000000e+00  3.0294237196093498e-04 -2.6460675228594433e-04 0.0000000000000000e+00  4.5958095246640502e-04 -4.4271219022080346e-04 0.0000000000000000e+00  6.0459833413063703e-04 -7.4067783165730338e-04 0.0000000000000000e+00  7.3870517205881553e-04 -1.1042946302339868e-03 0.0000000000000000e+00  8.7350559725554147e-04 -1.5604609461293915e-03 0.0000000000000000e+00  9.8930078562986935e-04 -2.0651364490917846e-03 0.0000000000000000e+00  1.0842469493793109e-03 -2.6541829420370262e-03 0.0000000000000000e+00  1.1737909535981825e-03 -3.3106426253699094e-03 0.0000000000000000e+00  1.2466286279624425e-03 -4.0340319443248288e-03 0.0000000000000000e+00  1.3152883385637755e-03 -4.8483173762964302e-03 0.0000000000000000e+00  1.3808742705021947e-03 -5.6777298213535584e-03 0.0000000000000000e+00  1.4113204863124972e-03 -6.6068622679567113e-03 0.0000000000000000e+00  1.4536424919462056e-03 -7.5929546816545365e-03 0.0000000000000000e+00  1.4590684026855988e-03 -8.6265721939299683e-03 0.0000000000000000e+00  1.4556006351255962e-03 -9.7346228081680222e-03 0.0000000000000000e+00  1.4361478982156902e-03 -1.0884569786029698e-02 0.0000000000000000e+00  1.3959615589887544e-03 -1.2105860952685165e-02 0.0000000000000000e+00  1.3378762824277489e-03 -1.3356210941345776e-02 0.0000000000000000e+00  1.2639163111728244e-03 -1.4667885033550323e-02 0.0000000000000000e+00  1.1718798519686233e-03 -1.6021447157231975e-02 0.0000000000000000e+00  1.0605608773102853e-03 -1.7416298825754378e-02 0.0000000000000000e+00  9.3801917813570238e-04 -1.8881108860122685e-02 0.0000000000000000e+00  8.1245846365705064e-04 -2.0356447079887870e-02 0.0000000000000000e+00  6.5817374935572880e-04 -2.1892123356731324e-02 0.0000000000000000e+00  4.8845723630393180e-04 -2.3452809470675122e-02 0.0000000000000000e+00  3.0270252706677918e-04 -2.5059574057483391e-02 0.0000000000000000e+00  1.0097296042087225e-04 -2.6699076837882675e-02 0.0000000000000000e+00  -1.1876410231829493e-04 -2.8369213563106510e-02 0.0000000000000000e+00  -3.5087866400430222e-04 -3.0091999171421725e-02 0.0000000000000000e+00  -5.8547028989535451e-04 -3.1819909480281683e-02 0.0000000000000000e+00  -8.4981801060326980e-04 -3.3590527225085112e-02 0.0000000000000000e+00  -1.1251801827486980e-03 -3.5397312811022312e-02 0.0000000000000000e+00  -1.4046052450559306e-03 -3.7212311435570002e-02 0.0000000000000000e+00  -1.7096438856175769e-03 -3.9065001437436200e-02 0.0000000000000000e+00  -2.0156427172147886e-03 -4.0938786770312062e-02 0.0000000000000000e+00  -2.3426505354062475e-03 -4.2833618245931800e-02 0.0000000000000000e+00  -2.6745358689689506e-03 -4.4756160392051166e-02 0.0000000000000000e+00  -3.0224145872674722e-03 -4.6691981831329422e-02 0.0000000000000000e+00  -3.3825373091722175e-03 -4.8650324190227225e-02 0.0000000000000000e+00  -3.7491581594859126e-03 -5.0624989997965886e-02 0.0000000000000000e+00  -4.1249988264436396e-03 -5.2617964617854104e-02 0.0000000000000000e+00  -4.5141256897122378e-03 -5.4625976018682944e-02 0.0000000000000000e+00  -4.9086007744598651e-03 -5.6647899812176078e-02 0.0000000000000000e+00  -5.3116144472419033e-03 -5.8685324478406367e-02 0.0000000000000000e+00  -5.7258067319871384e-03 -6.0734995691449530e-02 0.0000000000000000e+00  -6.1453398612245679e-03 -6.2795680038437177e-02 0.0000000000000000e+00  -6.5720677957037581e-03 -6.4868828899748057e-02 0.0000000000000000e+00  -7.0075232695697761e-03 -6.6950858248072773e-02 0.0000000000000000e+00  -7.4474814830816759e-03 -6.9041415312044496e-02 0.0000000000000000e+00  -7.8932425733942799e-03 -7.1141411751028963e-02 0.0000000000000000e+00  -8.3459503900100724e-03 -7.3248102565270146e-02 0.0000000000000000e+00  -8.8022737385564705e-03 -7.5360981217419465e-02 0.0000000000000000e+00  -9.2632429030841557e-03 -7.7480695865314864e-02 0.0000000000000000e+00  -9.7294844311622917e-03 -7.9605000538447379e-02 0.0000000000000000e+00  -1.0198302323053738e-02 -8.1733776220787119e-02 0.0000000000000000e+00  -1.0670640341404417e-02 -8.3866988382555879e-02 0.0000000000000000e+00  -1.1146444738779911e-02 -8.6003297752810612e-02 0.0000000000000000e+00  -1.1625091387410566e-02 -8.8141797078864187e-02 0.0000000000000000e+00  -1.2106585601546344e-02 -9.0282984658797166e-02 0.0000000000000000e+00  -1.2589915606860480e-02 -9.2426497992359594e-02 0.0000000000000000e+00  -1.3073874302246080e-02 -9.4570217216615751e-02 0.0000000000000000e+00  -1.3560260975731608e-02 -9.6715903083706659e-02 0.0000000000000000e+00  -1.4047217231408879e-02 -9.8862375652225512e-02 0.0000000000000000e+00  -1.4535469451762763e-02 -1.0100910522185683e-01 0.0000000000000000e+00  -1.5024680679929911e-02 -1.0315638650391291e-01 0.0000000000000000e+00  -1.5514217070621986e-02 -1.0530355415749894e-01 0.0000000000000000e+00  -1.6004295998221667e-02 -1.0745073047402462e-01 0.0000000000000000e+00  -1.6494600288759074e-02 -1.0959785722117388e-01 0.0000000000000000e+00  -1.6984918041313302e-02 -1.1174467183637071e-01 0.0000000000000000e+00  -2.5668939417613740e-02 -1.0976104417584651e-01 0.0000000000000000e+00  -2.5178420424573300e-02 -1.0761426373389125e-01 0.0000000000000000e+00  -2.4687727642271045e-02 -1.0546737773208489e-01 0.0000000000000000e+00  -2.4196773987606876e-02 -1.0332055831684525e-01 0.0000000000000000e+00  -2.3705644074325193e-02 -1.0117406912103487e-01 0.0000000000000000e+00  -2.3214198083493915e-02 -9.9027823988509969e-02 0.0000000000000000e+00  -2.2722568938000027e-02 -9.6882612760065323e-02 0.0000000000000000e+00  -2.2230449996926936e-02 -9.4738604957760847e-02 0.0000000000000000e+00  -2.1738509075421398e-02 -9.2595512818642076e-02 0.0000000000000000e+00  -2.1246506782160519e-02 -9.0454894608587466e-02 0.0000000000000000e+00  -2.0754310153128345e-02 -8.8315774236574079e-02 0.0000000000000000e+00  -2.0263075480724948e-02 -8.6179733009364642e-02 0.0000000000000000e+00  -1.9772002704528044e-02 -8.4048065160874624e-02 0.0000000000000000e+00  -1.9280192539717671e-02 -8.1917734940165174e-02 0.0000000000000000e+00  -1.8790547274037728e-02 -7.9792949446569852e-02 0.0000000000000000e+00  -1.8301457152561099e-02 -7.7675308109444605e-02 0.0000000000000000e+00  -1.7811695496316244e-02 -7.5559775954928993e-02 0.0000000000000000e+00  -1.7325908884522897e-02 -7.3452442489857606e-02 0.0000000000000000e+00  -1.6841071973905955e-02 -7.1355006097568480e-02 0.0000000000000000e+00  -1.6355524299001504e-02 -6.9260458517386866e-02 0.0000000000000000e+00  -1.5875883638431371e-02 -6.7177220021822415e-02 0.0000000000000000e+00  -1.5397776855032640e-02 -6.5107131184214101e-02 0.0000000000000000e+00  -1.4918952251100553e-02 -6.3040774446136399e-02 0.0000000000000000e+00  -1.4448214582241256e-02 -6.0989127049255562e-02 0.0000000000000000e+00  -1.3979624776349222e-02 -5.8954519248987453e-02 0.0000000000000000e+00  -1.3511186983380684e-02 -5.6926234422832560e-02 0.0000000000000000e+00  -1.3050092398689421e-02 -5.4914205543743461e-02 0.0000000000000000e+00  -1.2593177269157398e-02 -5.2924095666948896e-02 0.0000000000000000e+00  -1.2136909494941922e-02 -5.0938197496492740e-02 0.0000000000000000e+00  -1.1694127718445269e-02 -4.8974288209633086e-02 0.0000000000000000e+00  -1.1253171967946301e-02 -4.7039073152456291e-02 0.0000000000000000e+00  -1.0811819879038865e-02 -4.5110642919845463e-02 0.0000000000000000e+00  -1.0382772465781027e-02 -4.3210575029056397e-02 0.0000000000000000e+00  -9.9603271764447734e-03 -4.1324780676780498e-02 0.0000000000000000e+00  -9.5445120027071121e-03 -3.9464035982641595e-02 0.0000000000000000e+00  -9.1404010820138968e-03 -3.7633592787030642e-02 0.0000000000000000e+00  -8.7342844912505942e-03 -3.5821682125219217e-02 0.0000000000000000e+00  -8.3418461567745742e-03 -3.4040205008512972e-02 0.0000000000000000e+00  -7.9521554754505078e-03 -3.2286418272622790e-02 0.0000000000000000e+00  -7.5689248800276448e-03 -3.0564701545331127e-02 0.0000000000000000e+00  -7.1972119081292361e-03 -2.8876078537628667e-02 0.0000000000000000e+00  -6.8395503871339072e-03 -2.7211117224282214e-02 0.0000000000000000e+00  -6.4933744105721437e-03 -2.5584031723898153e-02 0.0000000000000000e+00  -6.1381048760480788e-03 -2.3988473526344117e-02 0.0000000000000000e+00  -5.8084417285119592e-03 -2.2432595655392545e-02 0.0000000000000000e+00  -5.4746890329385213e-03 -2.0923271855816782e-02 0.0000000000000000e+00  -5.1619263500115361e-03 -1.9442663332945080e-02 0.0000000000000000e+00  -4.8557209937602850e-03 -1.8014092387056448e-02 0.0000000000000000e+00  -4.5647288962169744e-03 -1.6615017984634158e-02 0.0000000000000000e+00  -4.2866516685789472e-03 -1.5265912441299307e-02 0.0000000000000000e+00  -3.9949922065984078e-03 -1.3955646903403228e-02 0.0000000000000000e+00  -3.7332776732241974e-03 -1.2694782470297780e-02 0.0000000000000000e+00  -3.4618115149559173e-03 -1.1493809185402172e-02 0.0000000000000000e+00  -3.2218200044361730e-03 -1.0332839261208388e-02 0.0000000000000000e+00  -2.9868145016667862e-03 -9.2470924087250609e-03 0.0000000000000000e+00  -2.7482625281538380e-03 -8.1783682328694304e-03 0.0000000000000000e+00  -2.5325993180233589e-03 -7.1892825978369336e-03 0.0000000000000000e+00  -2.2974016371183257e-03 -6.2559784345957983e-03 0.0000000000000000e+00  -2.0954542051944136e-03 -5.3742471356492856e-03 0.0000000000000000e+00  -1.8958327448296351e-03 -4.5722428883236037e-03 0.0000000000000000e+00  -1.7082596186729960e-03 -3.8135516404184831e-03 0.0000000000000000e+00  -1.5305912969144899e-03 -3.1312814791980416e-03 0.0000000000000000e+00  -1.3334955786231941e-03 -2.5019787890869878e-03 0.0000000000000000e+00  -1.1702106742613196e-03 -1.9419624996585214e-03 0.0000000000000000e+00  -9.8326941716352415e-04 -1.4529882597475020e-03 0.0000000000000000e+00  -8.2224325025470461e-04 -1.0467712958176459e-03 0.0000000000000000e+00  -6.4090733054734169e-04 -7.1211311124001503e-04 0.0000000000000000e+00  -4.7768095128483283e-04 -4.3021508934246199e-04 0.0000000000000000e+00  -3.1799847117061907e-04 -2.3366470474914646e-04 0.0000000000000000e+00  -1.5769073100042926e-04 -1.3390505954358285e-04 0.0000000000000000e+00  -2.3988276419589144e-02 -1.1240365517184429e-01 0.0000000000000000e+00  -1.9646340835956792e-02 -1.1339543593690776e-01 0.0000000000000000e+00  1.4724812989036255e-05 -1.2758866124070419e-04 0.0000000000000000e+00  -1.6185811018942189e-02 -8.8226175777654250e-02 0.0000000000000000e+00  -1.8679179350668977e-02 -9.9103952505974632e-02 0.0000000000000000e+00  1.6387473646088832e-05 -1.2897065512355369e-03 0.0000000000000000e+00  -1.3373448615205527e-02 -7.5601383755695306e-02 0.0000000000000000e+00  -1.4809656913364612e-02 -8.1969674991878488e-02 0.0000000000000000e+00  -2.6380920120886234e-04 -3.2577562616102700e-03 0.0000000000000000e+00  -2.0307048240796852e-02 -1.0537529501759674e-01 0.0000000000000000e+00  -3.7836912009327808e-04 -5.8183816196724246e-03 0.0000000000000000e+00  -7.9790708781370123e-04 -1.1507839004819630e-02 0.0000000000000000e+00  -1.1963070497259235e-02 -6.9288210251949076e-02 0.0000000000000000e+00  -1.6305499683227976e-03 -1.6269316774704654e-02 0.0000000000000000e+00  -1.0588010615199340e-02 -6.3050977031234315e-02 0.0000000000000000e+00  -2.3006157569288831e-03 -2.0776099038731094e-02 0.0000000000000000e+00  -3.3156229111007268e-03 -2.6921261838618385e-02 0.0000000000000000e+00  -9.3728157107928808e-03 -5.6729618987257556e-02 0.0000000000000000e+00  -7.9161384845456428e-03 -5.0765964204969399e-02 0.0000000000000000e+00  -4.1635894169771304e-03 -3.1897343443788473e-02 0.0000000000000000e+00  -5.2288215316383096e-03 -3.7393298330140677e-02 0.0000000000000000e+00  -6.6676686670352880e-03 -4.4663657398633309e-02 0.0000000000000000e+00  -5.5794103003560178e-04 -7.7168682168211886e-03 0.0000000000000000e+00  -1.7695731015311980e-02 -9.4837405318796544e-02 0.0000000000000000e+00  -5.9045076211627278e-03 -4.0575339864542447e-02 0.0000000000000000e+00  -1.2767905156191722e-03 -1.3961088382197210e-02 0.0000000000000000e+00  -2.7961781341075071e-03 -2.4127320620526020e-02 0.0000000000000000e+00  -1.0114010356538198e-04 -2.2080131319296881e-03 0.0000000000000000e+00  -2.1698652981891661e-02 -1.0887047210461281e-01 0.0000000000000000e+00  7.6888488179122669e-05 -5.7073617804201057e-04 0.0000000000000000e+00  -7.6352829272503019e-03 -5.3943979439487824e-02 0.0000000000000000e+00  -1.0252842458380524e-02 -6.6222468413568256e-02 0.0000000000000000e+00  -1.1633373805069383e-02 -7.2503958448178224e-02 0.0000000000000000e+00  -4.5274464261002905e-03 -2.9302142332786732e-02 0.0000000000000000e+00  -8.9162709314665363e-03 -6.0027190679259858e-02 0.0000000000000000e+00  -1.3047949175102703e-02 -7.8849719683364503e-02 0.0000000000000000e+00  -6.4221037929488543e-03 -4.7999183378064844e-02 0.0000000000000000e+00  -1.4487265116517404e-02 -8.5240585463371155e-02 0.0000000000000000e+00  -5.5261139861484676e-03 -3.4530251007479570e-02 0.0000000000000000e+00  -2.5931252508686305e-03 -1.8289194120374993e-02 0.0000000000000000e+00  -6.3070414525102545e-04 -4.5912894541381066e-03 0.0000000000000000e+00  -2.0341334879802334e-02 -1.0194155249591981e-01 0.0000000000000000e+00  -1.8149253199874260e-02 -9.1110673320134769e-02 0.0000000000000000e+00  -1.1780346190873009e-04 -9.5056189883296182e-03 0.0000000000000000e+00  -1.5044255431951746e-02 -9.0887337313745126e-02 0.0000000000000000e+00  -1.6740311883400637e-03 -9.8071956218324166e-03 0.0000000000000000e+00  -1.7343632008282532e-02 -8.5588219500499010e-02 0.0000000000000000e+00  -1.5885470844125213e-02 -7.9199688066335414e-02 0.0000000000000000e+00  -1.4443871789452722e-02 -7.2857037899982768e-02 0.0000000000000000e+00  -1.7900429750029527e-02 -1.0349986842755009e-01 0.0000000000000000e+00  3.6435939027999780e-04 -4.3248080092619058e-03 0.0000000000000000e+00  -1.1642274184577887e-02 -6.0389162458434079e-02 0.0000000000000000e+00  -1.3026466901519863e-02 -6.6579441336855283e-02 0.0000000000000000e+00  -2.3076384096489488e-03 -2.8922143207965163e-02 0.0000000000000000e+00  -7.3582347158869001e-04 -1.7919409979127943e-02 0.0000000000000000e+00  -9.9187103940291208e-03 -5.2540317512300726e-02 0.0000000000000000e+00  -9.0120817142794636e-03 -4.8372186029139626e-02 0.0000000000000000e+00  -3.1779845301887241e-03 -3.4151163575858214e-02 0.0000000000000000e+00  -6.9895822393837648e-05 -5.4093119130059630e-05 0.0000000000000000e+00  4.9592548046610178e-05 -4.1553942651102744e-05 0.0000000000000000e+00  -4.9164612012321425e-03 -4.3450230937440146e-02 0.0000000000000000e+00  -3.6704710041824164e-03 -2.1802612951763164e-02 0.0000000000000000e+00  -2.0931539457931044e-03 -1.2264821445895361e-02 0.0000000000000000e+00  -4.6748674468353779e-04 -1.6608871706900934e-03 0.0000000000000000e+00  -6.3362502499019651e-04 -2.8136398001102274e-03 0.0000000000000000e+00  -4.1252070501174107e-03 -3.9599640078536981e-02 0.0000000000000000e+00  -2.4880829288359370e-03 -1.4723823163007358e-02 0.0000000000000000e+00  -4.3127670081698878e-03 -2.5013562359154702e-02 0.0000000000000000e+00  -1.2323110940333246e-03 -6.9338919404498501e-03 0.0000000000000000e+00  -1.6423802466688987e-02 -9.6839626158077674e-02 0.0000000000000000e+00  -1.9793061547559478e-02 -9.6201918884438672e-02 0.0000000000000000e+00  2.5981257621654789e-04 -7.0025810778528456e-03 0.0000000000000000e+00  -3.2109920311995118e-04 -7.8827411406834998e-04 0.0000000000000000e+00  -1.8507135740672198e-02 -1.0785352750943707e-01 0.0000000000000000e+00  -8.0900345901999821e-03 -4.2767001375431657e-02 0.0000000000000000e+00  -7.1152643733393911e-03 -3.8883020958531404e-02 0.0000000000000000e+00  8.8530049491735005e-05 -1.2454410742890476e-02 0.0000000000000000e+00  4.0318830097862122e-04 -1.6694161142591058e-03 0.0000000000000000e+00  4.7551924803138995e-04 -2.9138714671209311e-03 0.0000000000000000e+00  -1.1001598260920397e-03 -2.2259990406619704e-02 0.0000000000000000e+00  -5.3454831012744898e-05 -1.5005998609665748e-02 0.0000000000000000e+00  -1.3392761752223290e-03 -2.5441588241907346e-02 0.0000000000000000e+00  -1.9979385652305534e-04 -4.1044403233971477e-04 0.0000000000000000e+00  -1.9499548222123637e-02 -1.1083602102644069e-01 0.0000000000000000e+00  -1.6977461330961095e-02 -8.3028730156471969e-02 0.0000000000000000e+00  -1.5524146387692997e-02 -7.6656902464858359e-02 0.0000000000000000e+00  4.1191986782232595e-04 -5.3018730525173190e-03 0.0000000000000000e+00  -1.4089565022641538e-02 -7.0338388489750978e-02 0.0000000000000000e+00  -1.7119666892654241e-02 -1.0102286185202647e-01 0.0000000000000000e+00  -1.2681959780240474e-02 -6.4093624242283653e-02 0.0000000000000000e+00  -1.1315902967228586e-02 -5.7963286481218332e-02 0.0000000000000000e+00  -8.1561784954334207e-04 -1.9658601110443159e-02 0.0000000000000000e+00  -1.0623646175468071e-02 -5.4838007704675257e-02 0.0000000000000000e+00  -2.4760867321841195e-03 -3.0972104356881879e-02 0.0000000000000000e+00  -8.7210305804331402e-03 -4.6045497958918720e-02 0.0000000000000000e+00  -3.3783206038168188e-03 -3.6307158777015909e-02 0.0000000000000000e+00  -2.2348975854818588e-02 -1.0661242481676779e-01 0.0000000000000000e+00  -1.5352496224447282e-02 -9.3434955101690781e-02 0.0000000000000000e+00  -1.6073606291526819e-03 -8.5290974500451099e-03 0.0000000000000000e+00  3.2506836935516519e-04 -8.7076539545629154e-04 0.0000000000000000e+00  1.7444776419400269e-04 -3.3000175415474903e-04 0.0000000000000000e+00  -6.2758476190604992e-03 -5.2216575722600744e-02 0.0000000000000000e+00  -6.6786399052104709e-03 -3.6066365968239582e-02 0.0000000000000000e+00  -7.5131637481284912e-03 -5.8267322800000097e-02 0.0000000000000000e+00  -1.1602574671960969e-02 -7.7015334729508833e-02 0.0000000000000000e+00  -8.8540852733709936e-03 -6.4421993417855122e-02 0.0000000000000000e+00  -1.0208034088189462e-02 -7.0683824680883814e-02 0.0000000000000000e+00  -5.4146763294615884e-03 -3.0926284922499096e-02 0.0000000000000000e+00  -5.1854312117781982e-03 -4.6341709518122498e-02 0.0000000000000000e+00  -3.4733585616741392e-03 -1.9575716464346679e-02 0.0000000000000000e+00  -5.0342512332793837e-03 -2.7546433406873762e-02 0.0000000000000000e+00  -1.3917686862751900e-02 -8.7542488840283955e-02 0.0000000000000000e+00  -3.0469784274046526e-03 -1.6835035563233916e-02 0.0000000000000000e+00  -1.3310448524706428e-02 -8.3248814188682116e-02 0.0000000000000000e+00  -1.1076048594483383e-03 -5.3409218003567490e-03 0.0000000000000000e+00  -9.0435506916859275e-04 -3.8290656965876664e-03 0.0000000000000000e+00  -2.1734701354258704e-02 -1.0362982076397789e-01 0.0000000000000000e+00  -2.0909873442191723e-02 -9.9628720846491117e-02 0.0000000000000000e+00  -1.1563665698056572e-02 -7.4838587000884388e-02 0.0000000000000000e+00  -1.0176261434528633e-02 -6.8529443690501082e-02 0.0000000000000000e+00  -7.4191314187822700e-03 -5.6118157693738922e-02 0.0000000000000000e+00  -1.2867550877390152e-02 -8.1162943888383451e-02 0.0000000000000000e+00  -8.8313678249415939e-03 -6.2297797851051273e-02 0.0000000000000000e+00  -6.1647029011982603e-03 -5.0128836162466904e-02 0.0000000000000000e+00  -5.7270655023078237e-03 -3.2626802888402237e-02 0.0000000000000000e+00  3.5027833355066006e-04 -8.5219856597033329e-03 0.0000000000000000e+00  -1.9407669417245001e-02 -9.2970988445760169e-02 0.0000000000000000e+00  -1.8414229185974618e-02 -8.8917172353427706e-02 0.0000000000000000e+0