<?xml version="1.0"?>
<VTKFile type="UnstructuredGrid"  version="0.1"  >
<UnstructuredGrid>
<Piece  NumberOfPoints="439" NumberOfCells="725">
<Points>
<DataArray  type="Float64"  NumberOfComponents="3"  format="ascii">0.6 0.19 0  0.6 0.21 0  0.2489897949 0.21 0  0.2489897949 0.19 0  0.6 0.2 0  0.2496355385699469 0.2060260530378829 0  0.249959460510575 0.2020130349814059 0  0.2499594605105767 0.1979869650186357 0  0.24963553856995 0.1939739469621422 0  0.2539336006056293 0.21 0  0.2588774063112542 0.21 0  0.2638212120168921 0.21 0  0.26876501772253 0.21 0  0.2737088234281569 0.21 0  0.2786526291337753 0.21 0  0.2835964348393937 0.21 0  0.2885402405450166 0.21 0  0.2934840462506522 0.21 0  0.2984278519562708 0.21 0  0.3033716576618997 0.21 0  0.3083154633675181 0.21 0  0.3132592690731365 0.21 0  0.3182030747787549 0.21 0  0.3231468804843732 0.21 0  0.3280906861899917 0.21 0  0.3330344918956208 0.21 0  0.3379782976012284 0.21 0  0.3429221033068576 0.21 0  0.347865909012476 0.21 0  0.3528097147180944 0.21 0  0.3577535204237128 0.21 0  0.3626973261293311 0.21 0  0.3676411318349495 0.21 0  0.3725849375405788 0.21 0  0.3775287432461877 0.21 0  0.382472548951812 0.21 0  0.3874163546574338 0.21 0  0.3923601603630631 0.21 0  0.3973039660686706 0.21 0  0.4022477717742986 0.21 0  0.4071915774799107 0.21 0  0.4121353831855311 0.21 0  0.4170791888911518 0.21 0  0.4220229945967636 0.21 0  0.4269668003023918 0.21 0  0.4319106060080253 0.21 0  0.4368544117136773 0.21 0  0.4417982174193329 0.21 0  0.4467420231249967 0.21 0  0.4516858288306445 0.21 0  0.4566296345362864 0.21 0  0.461573440241916 0.21 0  0.4665172459475665 0.21 0  0.4714610516531998 0.21 0  0.4764048573588668 0.21 0  0.4813486630645134 0.21 0  0.486292468770176 0.21 0  0.4912362744758066 0.21 0  0.4961800801814611 0.21 0  0.5011238858870897 0.21 0  0.5060676915927493 0.21 0  0.5110114972983872 0.21 0  0.5159553030040036 0.21 0  0.5208991087096415 0.21 0  0.5258429144153002 0.21 0  0.5307867201209391 0.21 0  0.5357305258265987 0.21 0  0.5406743315322367 0.21 0  0.5456181372378529 0.21 0  0.5505619429434908 0.21 0  0.5555057486491456 0.21 0  0.5604495543547885 0.21 0  0.565393360060448 0.21 0  0.5703371657661116 0.21 0  0.5752809714717458 0.21 0  0.5802247771773834 0.21 0  0.5851685828830341 0.21 0  0.5901123885886809 0.21 0  0.5950561942943404 0.21 0  0.5950561942943833 0.19 0  0.590112388588758 0.19 0  0.5851685828831193 0.19 0  0.5802247771774727 0.19 0  0.5752809714718514 0.19 0  0.5703371657662308 0.19 0  0.565393360060618 0.19 0  0.5604495543549889 0.19 0  0.5555057486493581 0.19 0  0.5505619429437035 0.19 0  0.5456181372381043 0.19 0  0.540674331532505 0.19 0  0.5357305258268962 0.19 0  0.530786720121263 0.19 0  0.5258429144156628 0.19 0  0.5208991087100244 0.19 0  0.5159553030044218 0.19 0  0.5110114972988226 0.19 0  0.5060676915932177 0.19 0  0.5011238858875806 0.19 0  0.496180080181972 0.19 0  0.4912362744763531 0.19 0  0.4862924687707343 0.19 0  0.4813486630651046 0.19 0  0.4764048573594966 0.19 0  0.4714610516538683 0.19 0  0.4665172459482555 0.19 0  0.4615734402426349 0.19 0  0.4566296345370104 0.19 0  0.4516858288313808 0.19 0  0.4467420231257716 0.19 0  0.4417982174201465 0.19 0  0.4368544117145297 0.19 0  0.4319106060089131 0.19 0  0.4269668003032866 0.19 0  0.4220229945976482 0.19 0  0.4170791888920056 0.19 0  0.4121353831863594 0.19 0  0.4071915774806995 0.19 0  0.4022477717750478 0.19 0  0.3973039660693901 0.19 0  0.3923601603637548 0.19 0  0.3874163546581082 0.19 0  0.3824725489524824 0.19 0  0.3775287432468258 0.19 0  0.3725849375411773 0.19 0  0.3676411318355085 0.19 0  0.3626973261298614 0.19 0  0.3577535204242108 0.19 0  0.352809714718589 0.19 0  0.347865909012931 0.19 0  0.342922103307292 0.19 0  0.3379782976016536 0.19 0  0.3330344918960152 0.19 0  0.3280906861903751 0.19 0  0.3231468804847171 0.19 0  0.3182030747790592 0.19 0  0.3132592690734012 0.19 0  0.3083154633677581 0.19 0  0.3033716576621197 0.19 0  0.2984278519564813 0.19 0  0.2934840462508429 0.19 0  0.2885402405451874 0.19 0  0.2835964348395295 0.19 0  0.2786526291338716 0.19 0  0.2737088234282243 0.19 0  0.268765017722586 0.19 0  0.2638212120169476 0.19 0  0.2588774063113093 0.19 0  0.2539336006056579 0.19 0  0.6 0.1949999999999783 0  0.6 0.2049999999999729 0  0.2589734265316493 0.2005523893428403 0  0.5431462343853077 0.199999999999969 0  0.5682397894768162 0.1999704585808987 0  0.2774513927118024 0.2007941919421926 0  0.513849583376897 0.1999023426490919 0  0.5286810004937381 0.1999023426490969 0  0.2945108952057646 0.1992911908405386 0  0.5827780831384927 0.1995429801003349 0  0.3104128396569256 0.1999704585808978 0  0.3370001755418551 0.2008294612433967 0  0.4990181662600459 0.1999023426490902 0  0.3552816175709044 0.2000000000000608 0  0.4841867491431925 0.1999023426490849 0  0.3707373713905551 0.2000142376953689 0  0.3898882575102495 0.2000000000000828 0  0.4689857550492734 0.1995416724256694 0  0.4541577316841967 0.1999999999999098 0  0.4043534914018331 0.2000976573509244 0  0.4195510917439569 0.2000000000001057 0  0.4387019778644512 0.1999857623046772 0  0.3202472750256703 0.2000088842146399 0  0.5584053541080851 0.1999911157853577 0  0.4280667146887134 0.1998489048208241 0  0.3467659946265474 0.2001510951794375 0  0.3813726345658908 0.200151095179452 0  0.2860683376922098 0.2000415445706182 0  0.5911223811781194 0.1982449159348744 0  0.2679893161458627 0.201675125646729 0  0.4615734402426278 0.2022503633288003 0  0.4912362744763454 0.2022503633288091 0  0.5060676915931983 0.2022503633288118 0  0.3973039660686774 0.1977496366711965 0  0.4764048573594896 0.2022503633288051 0  0.5208991087100455 0.2022503633288184 0  0.4467420231257656 0.2022503633288 0  0.5357305258268849 0.2022503633288198 0  0.4121353831855317 0.1977496366711976 0  0.3626973261293352 0.1977496366711919 0  0.3033716576618961 0.1977496366711869 0  0.5752809714718229 0.1977496366711503 0  0.550459855919056 0.1971284784737667 0  0.3281927732146841 0.2028715215262406 0  0.5484179020497461 0.2038403215694763 0  0.3302347270839988 0.1961596784305491 0  0.5379210852238114 0.196125181664411 0  0.5230896681069652 0.1961251816644058 0  0.5082582509901222 0.1961251816644098 0  0.5774715308687094 0.2038748183355887 0  0.3011810982649548 0.2038748183355937 0  0.4785954167564111 0.196125181664404 0  0.4934268338732671 0.1961251816644063 0  0.395113406671763 0.2038748183355966 0  0.3605067667324117 0.2038748183355951 0  0.4593828808457146 0.1961251816643993 0  0.4489325825226805 0.1961251816644007 0  0.4099448237886219 0.2038748183355991 0  0.2557862999801971 0.1960858370257295 0  0.2550147360309399 0.2034426429991114 0  0.4348031476464689 0.2037737577641554 0  0.37463620160841 0.1962262422358553 0  0.3406258365864304 0.196046792193989 0  0.2813001681189834 0.1960467921940502 0  0.2912686387439893 0.1960816328649282 0  0.4246705335819892 0.2039532078059544 0  0.350162175732913 0.1960467921941878 0  0.3847688156722694 0.1960467921942359 0  0.316632368538356 0.19615945856337 0  0.5621550011053409 0.2037816492598991 0  0.5624413877019769 0.1960761923611377 0  0.3162395035833128 0.2038679557424692 0  0.2710887134207622 0.1959696443325838 0  0.5873014376403604 0.2047227881030823 0  0.4346679566442709 0.1954651459552513 0  0.4243296504077986 0.1958756980939062 0  0.3402559510833523 0.2047940500290923 0  0.2808684926760933 0.2047742417812656 0  0.2914077033138723 0.2047809517070955 0  0.3747713926104932 0.2045348540448554 0  0.3499216488898867 0.2051753413186305 0  0.3845282888292298 0.205175341318636 0  0.2648144865455052 0.1962089742986374 0  0.5943247643662894 0.2040415423589182 0  0.5320972610456145 0.1956445099050872 0  0.5172658439287727 0.1956445099050854 0  0.3069923255602658 0.2043468033872551 0  0.5024344268119265 0.1956445099050864 0  0.5716603035734351 0.2043468033872761 0  0.4876030096950741 0.1956445099050831 0  0.4728151975296263 0.1956402468909894 0  0.3663301776527538 0.20436745486386 0  0.4651631000724991 0.1956402468909893 0  0.4009372308499527 0.2043554900949198 0  0.4431091716023345 0.1956325451361429 0  0.4157593408842466 0.2043565497109067 0  0.5865057328865416 0.1956918868509067 0  0.5541600609760193 0.2044335994013721 0  0.3244925681577497 0.1955664005986376 0  0.272008018888917 0.2049327968152409 0  0.2633407725863902 0.2042483236346266 0  0.4567948413982566 0.2046536472831198 0  0.4167680012832803 0.1955060004091903 0  0.4716262585151221 0.2046536472831242 0  0.5161054367030595 0.2045563706470633 0  0.4864426024693469 0.2045563706470604 0  0.5012740195862044 0.2045563706470634 0  0.4022810343427545 0.1961423961483001 0  0.4420739040821668 0.2044853411424516 0  0.3673807293464664 0.1955677741328205 0  0.3925253672243162 0.195346352716901 0  0.5405091246712254 0.2046536472831267 0  0.357918727284983 0.1953463527168901 0  0.5307534575528717 0.2038576038516682 0  0.3079697655029555 0.1955637092892754 0  0.2985930588175599 0.1953463527168728 0  0.579671714346879 0.1955441268455555 0  0.5705023726275059 0.1953463527168462 0  0.5112451461103119 0.2035640580783926 0  0.4964137289934448 0.2035640580783915 0  0.4665727251511405 0.2038238154617746 0  0.5259274680675793 0.2038006696000127 0  0.4815823118765752 0.2035640580783898 0  0.4517504165552094 0.2039070625502732 0  0.4071070238280551 0.1961993303999926 0  0.3234846806957546 0.2047001437739977 0  0.5551679484379799 0.1952998562260008 0  0.5457754356464107 0.1954447171286166 0  0.3329307555206357 0.2046017509710421 0  0.4541577316841968 0.1960357661898101 0  0.3358300776141575 0.1950765652117375 0  0.2539718587514912 0.200011552766824 0  0.5826472073721517 0.2039971170156656 0  0.2761021761080182 0.1946948236183283 0  0.3898581462796225 0.2041572776584344 0  0.3552515063402743 0.2041572776584256 0  0.2965028074750666 0.2046578268138723 0  0.4299158836614793 0.1951782397873778 0  0.379426563923736 0.2049969334481307 0  0.2860882692072842 0.2042624797643994 0  0.3449948044168807 0.2051793676155613 0  0.2603922435707652 0.1950997711614917 0  0.5949856943860
[...]
<PointData  Vectors="f_18-1"> 
<DataArray  type="Float64"  Name="f_18-1"  NumberOfComponents="3" format="ascii">-1.0447418912974116e-02 -6.9158227020857985e-02 0.0000000000000000e+00  -5.3149408540499564e-03 -6.9828084407657809e-02 0.0000000000000000e+00  0.0000000000000000e+00 0.0000000000000000e+00 0.0000000000000000e+00  0.0000000000000000e+00 0.0000000000000000e+00 0.0000000000000000e+00  -7.8811475774158979e-03 -6.9493143916930997e-02 0.0000000000000000e+00  0.0000000000000000e+00 0.0000000000000000e+00 0.0000000000000000e+00  0.0000000000000000e+00 0.0000000000000000e+00 0.0000000000000000e+00  0.0000000000000000e+00 0.0000000000000000e+00 0.0000000000000000e+00  0.0000000000000000e+00 0.0000000000000000e+00 0.0000000000000000e+00  1.0045960387411037e-04 -8.8065150348654565e-05 0.0000000000000000e+00  2.1010226164836813e-04 -1.8395304047640144e-04 0.0000000000000000e+00  3.1804223391094361e-04 -3.0609406060614388e-04 0.0000000000000000e+00  4.1846060863458463e-04 -5.0866894087174498e-04 0.0000000000000000e+00  5.1170052849221421e-04 -7.5444393240007646e-04 0.0000000000000000e+00  6.0629172355789471e-04 -1.0615004060953513e-03 0.0000000000000000e+00  6.8869385690814404e-04 -1.3999830634104167e-03 0.0000000000000000e+00  7.5858241452565712e-04 -1.7939138642289122e-03 0.0000000000000000e+00  8.2617490902683465e-04 -2.2312990045024184e-03 0.0000000000000000e+00  8.8433317215955642e-04 -2.7118238426186068e-03 0.0000000000000000e+00  9.4223288952855258e-04 -3.2501339720194993e-03 0.0000000000000000e+00  9.9825952945505514e-04 -3.7975839780836291e-03 0.0000000000000000e+00  1.0349041216091725e-03 -4.4089157238483313e-03 0.0000000000000000e+00  1.0809279905514568e-03 -5.0548256070359638e-03 0.0000000000000000e+00  1.1052757994363430e-03 -5.7312568186202355e-03 0.0000000000000000e+00  1.1270635522291721e-03 -6.4532721555686330e-03 0.0000000000000000e+00  1.1405135965097378e-03 -7.2011403842961834e-03 0.0000000000000000e+00  1.1444135013136097e-03 -7.9928670595977233e-03 0.0000000000000000e+00  1.1386821020762585e-03 -8.8021981136355391e-03 0.0000000000000000e+00  1.1262754480647708e-03 -9.6486090927743063e-03 0.0000000000000000e+00  1.1050694276079928e-03 -1.0520315995366760e-02 0.0000000000000000e+00  1.0745756923057398e-03 -1.1416723293221648e-02 0.0000000000000000e+00  1.0411857939318493e-03 -1.2353693896095466e-02 0.0000000000000000e+00  1.0062849077219918e-03 -1.3296356869610792e-02 0.0000000000000000e+00  9.5816407583997803e-04 -1.4274567200003811e-02 0.0000000000000000e+00  9.0265733626265407e-04 -1.5266898228234051e-02 0.0000000000000000e+00  8.4069012193182201e-04 -1.6285175879111470e-02 0.0000000000000000e+00  7.7171312254148384e-04 -1.7321708991649445e-02 0.0000000000000000e+00  6.9477474067520140e-04 -1.8375071521811753e-02 0.0000000000000000e+00  6.1438946140797890e-04 -1.9456149066573825e-02 0.0000000000000000e+00  5.3270242997387760e-04 -2.0539611893822300e-02 0.0000000000000000e+00  4.3829028653376620e-04 -2.1646318819017143e-02 0.0000000000000000e+00  3.4053180321704120e-04 -2.2771061412431140e-02 0.0000000000000000e+00  2.4105972506822541e-04 -2.3899776200740332e-02 0.0000000000000000e+00  1.3136426934172557e-04 -2.5048006215053247e-02 0.0000000000000000e+00  2.2340325823158689e-05 -2.6205925991516148e-02 0.0000000000000000e+00  -9.5347722777250167e-05 -2.7374535492051370e-02 0.0000000000000000e+00  -2.1380488500015766e-04 -2.8555789776388965e-02 0.0000000000000000e+00  -3.3873411300870145e-04 -2.9743648218297059e-02 0.0000000000000000e+00  -4.6775237261225370e-04 -3.0941763347844195e-02 0.0000000000000000e+00  -5.9876012039685898e-04 -3.2146858824180863e-02 0.0000000000000000e+00  -7.3279156989245115e-04 -3.3359791484809352e-02 0.0000000000000000e+00  -8.7137902432921879e-04 -3.4579321522522660e-02 0.0000000000000000e+00  -1.0113788349795647e-03 -3.5804208493061665e-02 0.0000000000000000e+00  -1.1539310595978737e-03 -3.7035265605024015e-02 0.0000000000000000e+00  -1.2999646964332074e-03 -3.8271299949653691e-02 0.0000000000000000e+00  -1.4473992356888443e-03 -3.9511366524163906e-02 0.0000000000000000e+00  -1.5968231956390224e-03 -4.0756107535264395e-02 0.0000000000000000e+00  -1.7488246132029870e-03 -4.2004290596259632e-02 0.0000000000000000e+00  -1.9019844244365311e-03 -4.3255431552070268e-02 0.0000000000000000e+00  -2.0567146210739322e-03 -4.4509902935930816e-02 0.0000000000000000e+00  -2.2134104188555707e-03 -4.5766803833577389e-02 0.0000000000000000e+00  -2.3710296707877688e-03 -4.7025629655153403e-02 0.0000000000000000e+00  -2.5298613082564607e-03 -4.8286627070511380e-02 0.0000000000000000e+00  -2.6900458603522008e-03 -4.9549058494689532e-02 0.0000000000000000e+00  -2.8508019943259688e-03 -5.0812660081816834e-02 0.0000000000000000e+00  -3.0123684035131435e-03 -5.2077465763596453e-02 0.0000000000000000e+00  -3.1747114337143767e-03 -5.3343068766557027e-02 0.0000000000000000e+00  -3.3376513503663116e-03 -5.4609230709297803e-02 0.0000000000000000e+00  -3.5011464409349271e-03 -5.5876060999121457e-02 0.0000000000000000e+00  -3.6649691612011836e-03 -5.7143455437819256e-02 0.0000000000000000e+00  -3.8289263665420427e-03 -5.8410914793047650e-02 0.0000000000000000e+00  -3.9933619372051676e-03 -5.9678933899826814e-02 0.0000000000000000e+00  -4.1578904870272580e-03 -6.0947201786407973e-02 0.0000000000000000e+00  -4.3227425113804259e-03 -6.2215633835132789e-02 0.0000000000000000e+00  -4.4878272467168551e-03 -6.3484315203313324e-02 0.0000000000000000e+00  -4.6530175580605957e-03 -6.4753017834441429e-02 0.0000000000000000e+00  -4.8183941014628947e-03 -6.6021806766168728e-02 0.0000000000000000e+00  -4.9838704138377033e-03 -6.7290625303845567e-02 0.0000000000000000e+00  -5.1493803120105314e-03 -6.8559358472514237e-02 0.0000000000000000e+00  -1.0281819283562444e-02 -6.7889463702031541e-02 0.0000000000000000e+00  -1.0116183162210685e-02 -6.6620700314265965e-02 0.0000000000000000e+00  -9.9505050059304455e-03 -6.5351907018901589e-02 0.0000000000000000e+00  -9.7847658169098219e-03 -6.4083176565685004e-02 0.0000000000000000e+00  -9.6189770762770219e-03 -6.2814576147402754e-02 0.0000000000000000e+00  -9.4531310634246284e-03 -6.1546059084855581e-02 0.0000000000000000e+00  -9.2872541102552303e-03 -6.0277853104142985e-02 0.0000000000000000e+00  -9.1212426276402175e-03 -5.9009946369975003e-02 0.0000000000000000e+00  -8.9553041980973223e-03 -5.7742269667855610e-02 0.0000000000000000e+00  -8.7892959228961388e-03 -5.6475155783424554e-02 0.0000000000000000e+00  -8.6232167933181676e-03 -5.5208360233360773e-02 0.0000000000000000e+00  -8.4572399651988671e-03 -5.3942268418812868e-02 0.0000000000000000e+00  -8.2910841522003537e-03 -5.2677115582822738e-02 0.0000000000000000e+00  -8.1246540507274260e-03 -5.1412221615407774e-02 0.0000000000000000e+00  -7.9583752970622656e-03 -5.0148678664285844e-02 0.0000000000000000e+00  -7.7917575634372941e-03 -4.8886919732206317e-02 0.0000000000000000e+00  -7.6247446416507630e-03 -4.7625678778934727e-02 0.0000000000000000e+00  -7.4581746276835116e-03 -4.6366820093520875e-02 0.0000000000000000e+00  -7.2911629281242479e-03 -4.5110928276045813e-02 0.0000000000000000e+00  -7.1236413131763503e-03 -4.3855892100877765e-02 0.0000000000000000e+00  -6.9570993763937768e-03 -4.2604706788333460e-02 0.0000000000000000e+00  -6.7901310626639092e-03 -4.1357961926658068e-02 0.0000000000000000e+00  -6.6225852900735427e-03 -4.0112446975243778e-02 0.0000000000000000e+00  -6.4566910145897301e-03 -3.8872395520970701e-02 0.0000000000000000e+00  -6.2903075034912836e-03 -3.7638462860003240e-02 0.0000000000000000e+00  -6.1234373120673527e-03 -3.6406856224582902e-02 0.0000000000000000e+00  -5.9578765154246162e-03 -3.5181432026663184e-02 0.0000000000000000e+00  -5.7921343456022491e-03 -3.3964578812413354e-02 0.0000000000000000e+00  -5.6260595485560045e-03 -3.2749311439457432e-02 0.0000000000000000e+00  -5.4633533203254613e-03 -3.1543518679362302e-02 0.0000000000000000e+00  -5.2989933522577205e-03 -3.0349579593060588e-02 0.0000000000000000e+00  -5.1336888062637120e-03 -2.9158646342392690e-02 0.0000000000000000e+00  -4.9710918435301957e-03 -2.7980559452759721e-02 0.0000000000000000e+00  -4.8100680490841940e-03 -2.6809430868752704e-02 0.0000000000000000e+00  -4.6497949025207800e-03 -2.5649943274919838e-02 0.0000000000000000e+00  -4.4923737217012569e-03 -2.4505364387937077e-02 0.0000000000000000e+00  -4.3323242155641649e-03 -2.3369330909696260e-02 0.0000000000000000e+00  -4.1762893277536347e-03 -2.2248785727400976e-02 0.0000000000000000e+00  -4.0192275824117553e-03 -2.1141994698990453e-02 0.0000000000000000e+00  -3.8625763700311250e-03 -2.0051507958426563e-02 0.0000000000000000e+00  -3.7088316710947420e-03 -1.8978607235147684e-02 0.0000000000000000e+00  -3.5600974869182578e-03 -1.7918777392064465e-02 0.0000000000000000e+00  -3.4142830460540488e-03 -1.6879427347407886e-02 0.0000000000000000e+00  -3.2611069178236896e-03 -1.5856069503141532e-02 0.0000000000000000e+00  -3.1182519547254292e-03 -1.4856023825427875e-02 0.0000000000000000e+00  -2.9694699130904194e-03 -1.3881078825247391e-02 0.0000000000000000e+00  -2.8298182811524282e-03 -1.2923709786506251e-02 0.0000000000000000e+00  -2.6901224149966235e-03 -1.1996324601373214e-02 0.0000000000000000e+00  -2.5565733965682851e-03 -1.1086841336157467e-02 0.0000000000000000e+00  -2.4269767867602511e-03 -1.0207140333599920e-02 0.0000000000000000e+00  -2.2869155452745582e-03 -9.3494277867451937e-03 0.0000000000000000e+00  -2.1609738907337429e-03 -8.5228395420317762e-03 0.0000000000000000e+00  -2.0255253490286435e-03 -7.7313337750122054e-03 0.0000000000000000e+00  -1.9062431387663042e-03 -6.9658523109596042e-03 0.0000000000000000e+00  -1.7857473247836013e-03 -6.2464778244361438e-03 0.0000000000000000e+00  -1.6619704144212363e-03 -5.5377233569129866e-03 0.0000000000000000e+00  -1.5478769824739222e-03 -4.8790526201151919e-03 0.0000000000000000e+00  -1.4189770557903082e-03 -4.2546293365270816e-03 0.0000000000000000e+00  -1.3080478859079359e-03 -3.6640887177664381e-03 0.0000000000000000e+00  -1.1950087583238885e-03 -3.1243492446513493e-03 0.0000000000000000e+00  -1.0874884398915320e-03 -2.6130165703293442e-03 0.0000000000000000e+00  -9.8329446541434076e-04 -2.1512654797507824e-03 0.0000000000000000e+00  -8.6469452613551889e-04 -1.7235292908175763e-03 0.0000000000000000e+00  -7.6534376932914025e-04 -1.3423419923453673e-03 0.0000000000000000e+00  -6.4836202308612924e-04 -1.0072867166013553e-03 0.0000000000000000e+00  -5.4600125403226609e-04 -7.2815437400905675e-04 0.0000000000000000e+00  -4.2824147592140113e-04 -4.9668446877780212e-04 0.0000000000000000e+00  -3.2118135525899423e-04 -3.0138898408535686e-04 0.0000000000000000e+00  -2.1502719025423604e-04 -1.6424956288296094e-04 0.0000000000000000e+00  -1.0711201024978067e-04 -9.3082862650751397e-05 0.0000000000000000e+00  -9.1642573387198997e-03 -6.9325687425650109e-02 0.0000000000000000e+00  -6.5980548873136001e-03 -6.9660610052175997e-02 0.0000000000000000e+00  1.1794091940915306e-05 -9.1556089002286080e-05 0.0000000000000000e+00  -5.9796495103300543e-03 -5.4908004601268962e-02 0.0000000000000000e+00  -6.8252121617067970e-03 -6.1341425953006061e-02 0.0000000000000000e+00  2.3781707049420021e-05 -8.8838571854218300e-04 0.0000000000000000e+00  -5.0321781324902150e-03 -4.7413437834944845e-02 0.0000000000000000e+00  -5.5232410969075184e-03 -5.1201410089246030e-02 0.0000000000000000e+00  -1.3671593310770193e-04 -2.2194008621633007e-03 0.0000000000000000e+00  -7.4215875824544296e-03 -6.5057942881345032e-02 0.0000000000000000e+00  -1.6472332171482321e-04 -3.9274169657136189e-03 0.0000000000000000e+00  -2.9839107974246232e-04 -7.6696010588705238e-03 0.0000000000000000e+00  -4.5454301039752889e-03 -4.3641744315950165e-02 0.0000000000000000e+00  -6.9049772178221590e-04 -1.0771421562064483e-02 0.0000000000000000e+00  -4.0656557013336375e-03 -3.9895863349750434e-02 0.0000000000000000e+00  -9.6312237800948229e-04 -1.3677293519487261e-02 0.0000000000000000e+00  -1.3683602368959522e-03 -1.7598991946512703e-02 0.0000000000000000e+00  -3.6731035439352706e-03 -3.6082877311150369e-02 0.0000000000000000e+00  -3.1027122721978967e-03 -3.2440032038399728e-02 0.0000000000000000e+00  -1.6913496545391648e-03 -2.0742341579792028e-02 0.0000000000000000e+00  -2.1071932257571715e-03 -2.4185519797580515e-02 0.0000000000000000e+00  -2.6469621214633581e-03 -2.8693700870776200e-02 0.0000000000000000e+00  -2.4063074533088057e-04 -5.1847974867184551e-03 0.0000000000000000e+00  -6.4910477583144657e-03 -5.8819287440950704e-02 0.0000000000000000e+00  -2.3753357293275191e-03 -2.6166712055548540e-02 0.0000000000000000e+00  -5.3616378508032463e-04 -9.2734581804899650e-03 0.0000000000000000e+00  -1.1514961860548980e-03 -1.5819966575874998e-02 0.0000000000000000e+00  -4.3457361954974776e-05 -1.5108064189741823e-03 0.0000000000000000e+00  -8.0341769948757778e-03 -6.7156023441297383e-02 0.0000000000000000e+00  5.7613480857461527e-05 -3.9707064217199453e-04 0.0000000000000000e+00  -2.7761429837736282e-03 -3.4331751601459730e-02 0.0000000000000000e+00  -3.7012400713502015e-03 -4.1748812308907694e-02 0.0000000000000000e+00  -4.1803033177612555e-03 -4.5509169277072603e-02 0.0000000000000000e+00  -2.0277483785624611e-03 -1.9139563410051703e-02 0.0000000000000000e+00  -3.2321262489865628e-03 -3.8019149402704483e-02 0.0000000000000000e+00  -4.6665067886693095e-03 -4.9290282444693224e-02 0.0000000000000000e+00  -2.3375842614488189e-03 -3.0700343235642268e-02 0.0000000000000000e+00  -5.1571314677138621e-03 -5.3083732619051263e-02 0.0000000000000000e+00  -2.4189841194016404e-03 -2.2432560083398757e-02 0.0000000000000000e+00  -1.2376065196923307e-03 -1.2099195880786121e-02 0.0000000000000000e+00  -3.5625216569515377e-04 -3.1165023112216632e-03 0.0000000000000000e+00  -7.6305900749449214e-03 -6.3073859644502850e-02 0.0000000000000000e+00  -6.9591541009673651e-03 -5.6686472202297028e-02 0.0000000000000000e+00  9.1397298179461692e-05 -6.3463702230740302e-03 0.0000000000000000e+00  -5.1717218283264784e-03 -5.6387341827284852e-02 0.0000000000000000e+00  -9.1525895979039436e-04 -6.5828948023196341e-03 0.0000000000000000e+00  -6.7968799194710839e-03 -5.3440717083688333e-02 0.0000000000000000e+00  -6.3013663339363752e-03 -4.9647132110745305e-02 0.0000000000000000e+00  -5.8072436920762246e-03 -4.5865575065655778e-02 0.0000000000000000e+00  -6.1325582868232706e-03 -6.3841120899479714e-02 0.0000000000000000e+00  2.9929935834061092e-04 -2.9212081754721245e-03 0.0000000000000000e+00  -4.8302963855692002e-03 -3.8373665956019938e-02 0.0000000000000000e+00  -5.3161439781277070e-03 -4.2104352061636506e-02 0.0000000000000000e+00  -6.5750974050503709e-04 -1.8810893795214816e-02 0.0000000000000000e+00  -6.3464389825656375e-05 -1.1799458658945479e-02 0.0000000000000000e+00  -4.2137902389371724e-03 -3.3604858675941277e-02 0.0000000000000000e+00  -3.8824990517579766e-03 -3.1050838659526077e-02 0.0000000000000000e+00  -9.8458757551112973e-04 -2.2095695480295035e-02 0.0000000000000000e+00  -4.6571676891921425e-05 -3.9652436975766179e-05 0.0000000000000000e+00  3.4815403303099709e-05 -3.0857231935579622e-05 0.0000000000000000e+00  -1.6388575062944168e-03 -2.7873215969237100e-02 0.0000000000000000e+00  -1.7929094445307372e-03 -1.4379314061300249e-02 0.0000000000000000e+00  -1.1153738419314317e-03 -8.1977942476007294e-03 0.0000000000000000e+00  -2.9729810685542423e-04 -1.1450082513062233e-03 0.0000000000000000e+00  -3.9101671292788778e-04 -1.9259017963307199e-03 0.0000000000000000e+00  -1.3300784704434717e-03 -2.5487647437091674e-02 0.0000000000000000e+00  -1.2923723555893257e-03 -9.8027535086640822e-03 0.0000000000000000e+00  -2.0716109047164565e-03 -1.6437228801905956e-02 0.0000000000000000e+00  -7.0197580834093127e-04 -4.6831821395978317e-03 0.0000000000000000e+00  -5.6444812663878413e-03 -5.9907944847216801e-02 0.0000000000000000e+00  -7.6298601994143405e-03 -5.9723632407749375e-02 0.0000000000000000e+00  2.8129974391298193e-04 -4.6958916845582840e-03 0.0000000000000000e+00  -2.0957596032866719e-04 -5.4858540250825728e-04 0.0000000000000000e+00  -6.2439620692395364e-03 -6.6392389246220526e-02 0.0000000000000000e+00  -3.6021045249788799e-03 -2.7605775070004189e-02 0.0000000000000000e+00  -3.1948091550453687e-03 -2.5185095565833374e-02 0.0000000000000000e+00  3.0314144051366330e-04 -8.2578775881694474e-03 0.0000000000000000e+00  2.8883670426032643e-04 -1.1411868197787479e-03 0.0000000000000000e+00  3.5233960989447847e-04 -1.9774126866411641e-03 0.0000000000000000e+00  -1.4764463122475177e-04 -1.4574739034921210e-02 0.0000000000000000e+00  2.8465862625965055e-04 -9.9085369693272043e-03 0.0000000000000000e+00  -1.8280530212301318e-04 -1.6590950419935323e-02 0.0000000000000000e+00  -1.3156508103925714e-04 -2.8776602219784156e-04 0.0000000000000000e+00  -6.6539406918595771e-03 -6.8172058813033010e-02 0.0000000000000000e+00  -6.7253008690466541e-03 -5.1934211727693178e-02 0.0000000000000000e+00  -6.2299966757473641e-03 -4.8144746488923237e-02 0.0000000000000000e+00  3.4826113401397618e-04 -3.5691128542280721e-03 0.0000000000000000e+00  -5.7363794054268585e-03 -4.4370293294579637e-02 0.0000000000000000e+00  -5.8171218207372800e-03 -6.2365669998838795e-02 0.0000000000000000e+00  -5.2463636222383012e-03 -4.0620133980508448e-02 0.0000000000000000e+00  -4.7644520532224453e-03 -3.6915458398757692e-02 0.0000000000000000e+00  -5.6221901284846176e-05 -1.2912390584719572e-02 0.0000000000000000e+00  -4.5166724505949669e-03 -3.5015899010988526e-02 0.0000000000000000e+00  -6.7968024310628402e-04 -2.0095435042619895e-02 0.0000000000000000e+00  -3.8224513491444509e-03 -2.9628997191940818e-02 0.0000000000000000e+00  -1.0156291768056143e-03 -2.3433826412192854e-02 0.0000000000000000e+00  -8.5346546876517264e-03 -6.5885671224110098e-02 0.0000000000000000e+00  -5.2108512423296761e-03 -5.7879257629133436e-02 0.0000000000000000e+00  -9.0676740293333107e-04 -5.7431215331031999e-03 0.0000000000000000e+00  2.2853958798564294e-04 -6.0026816716804855e-04 0.0000000000000000e+00  1.2217015042068047e-04 -2.3085977795393343e-04 0.0000000000000000e+00  -2.0454951666868284e-03 -3.3229356408570394e-02 0.0000000000000000e+00  -3.0588253879833519e-03 -2.3431568967814911e-02 0.0000000000000000e+00  -2.4869369660958738e-03 -3.6902326871738417e-02 0.0000000000000000e+00  -3.9214815720578838e-03 -4.8143001356046856e-02 0.0000000000000000e+00  -2.9691956527899666e-03 -4.0614356531860830e-02 0.0000000000000000e+00  -3.4405446296479512e-03 -4.4366909597757111e-02 0.0000000000000000e+00  -2.5098238856741694e-03 -2.0190230549121280e-02 0.0000000000000000e+00  -1.6678496941753300e-03 -2.9638698072554464e-02 0.0000000000000000e+00  -1.7518828878833510e-03 -1.2952336224377777e-02 0.0000000000000000e+00  -2.4185596143019767e-03 -1.8059384458273823e-02 0.0000000000000000e+00  -4.7008093835380670e-03 -5.4387801792783172e-02 0.0000000000000000e+00  -1.5787750180885035e-03 -1.1180518243722308e-02 0.0000000000000000e+00  -4.5813715593751537e-03 -5.1863294003996641e-02 0.0000000000000000e+00  -6.5616636221619759e-04 -3.6244008862254392e-03 0.0000000000000000e+00  -5.5274671433352322e-04 -2.6118156004598719e-03 0.0000000000000000e+00  -8.3435846162475368e-03 -6.4126813684497602e-02 0.0000000000000000e+00  -8.0870395861531389e-03 -6.1767258584081317e-02 0.0000000000000000e+00  -4.0151411252382935e-03 -4.6870589297933411e-02 0.0000000000000000e+00  -3.5353018181395477e-03 -4.3101383057498770e-02 0.0000000000000000e+00  -2.5387441072475003e-03 -3.5618697804443614e-02 0.0000000000000000e+00  -4.4365401967402266e-03 -5.0626889357263796e-02 0.0000000000000000e+00  -3.0653739545990978e-03 -3.9359131714449144e-02 0.0000000000000000e+00  -2.0800697319693891e-03 -3.1970356585430092e-02 0.0000000000000000e+00  -2.6285637930482907e-03 -2.1261585108686015e-02 0.0000000000000000e+00  3.7425409433064727e-04 -5.6911011263919026e-03 0.0000000000000000e+00  -7.5852920151238097e-03 -5.7832449509774925e-02 0.0000000000000000e+00  -7.2338228418562028e-03 -5.5429859868583883e-02 0.0000000000000000e+00  3.17374