<?xml version="1.0"?>
<VTKFile type="UnstructuredGrid"  version="0.1"  >
<UnstructuredGrid>
<Piece  NumberOfPoints="439" NumberOfCells="725">
<Points>
<DataArray  type="Float64"  NumberOfComponents="3"  format="ascii">0.6 0.19 0  0.6 0.21 0  0.2489897949 0.21 0  0.2489897949 0.19 0  0.6 0.2 0  0.2496355385699469 0.2060260530378829 0  0.249959460510575 0.2020130349814059 0  0.2499594605105767 0.1979869650186357 0  0.24963553856995 0.1939739469621422 0  0.2539336006056293 0.21 0  0.2588774063112542 0.21 0  0.2638212120168921 0.21 0  0.26876501772253 0.21 0  0.2737088234281569 0.21 0  0.2786526291337753 0.21 0  0.2835964348393937 0.21 0  0.2885402405450166 0.21 0  0.2934840462506522 0.21 0  0.2984278519562708 0.21 0  0.3033716576618997 0.21 0  0.3083154633675181 0.21 0  0.3132592690731365 0.21 0  0.3182030747787549 0.21 0  0.3231468804843732 0.21 0  0.3280906861899917 0.21 0  0.3330344918956208 0.21 0  0.3379782976012284 0.21 0  0.3429221033068576 0.21 0  0.347865909012476 0.21 0  0.3528097147180944 0.21 0  0.3577535204237128 0.21 0  0.3626973261293311 0.21 0  0.3676411318349495 0.21 0  0.3725849375405788 0.21 0  0.3775287432461877 0.21 0  0.382472548951812 0.21 0  0.3874163546574338 0.21 0  0.3923601603630631 0.21 0  0.3973039660686706 0.21 0  0.4022477717742986 0.21 0  0.4071915774799107 0.21 0  0.4121353831855311 0.21 0  0.4170791888911518 0.21 0  0.4220229945967636 0.21 0  0.4269668003023918 0.21 0  0.4319106060080253 0.21 0  0.4368544117136773 0.21 0  0.4417982174193329 0.21 0  0.4467420231249967 0.21 0  0.4516858288306445 0.21 0  0.4566296345362864 0.21 0  0.461573440241916 0.21 0  0.4665172459475665 0.21 0  0.4714610516531998 0.21 0  0.4764048573588668 0.21 0  0.4813486630645134 0.21 0  0.486292468770176 0.21 0  0.4912362744758066 0.21 0  0.4961800801814611 0.21 0  0.5011238858870897 0.21 0  0.5060676915927493 0.21 0  0.5110114972983872 0.21 0  0.5159553030040036 0.21 0  0.5208991087096415 0.21 0  0.5258429144153002 0.21 0  0.5307867201209391 0.21 0  0.5357305258265987 0.21 0  0.5406743315322367 0.21 0  0.5456181372378529 0.21 0  0.5505619429434908 0.21 0  0.5555057486491456 0.21 0  0.5604495543547885 0.21 0  0.565393360060448 0.21 0  0.5703371657661116 0.21 0  0.5752809714717458 0.21 0  0.5802247771773834 0.21 0  0.5851685828830341 0.21 0  0.5901123885886809 0.21 0  0.5950561942943404 0.21 0  0.5950561942943833 0.19 0  0.590112388588758 0.19 0  0.5851685828831193 0.19 0  0.5802247771774727 0.19 0  0.5752809714718514 0.19 0  0.5703371657662308 0.19 0  0.565393360060618 0.19 0  0.5604495543549889 0.19 0  0.5555057486493581 0.19 0  0.5505619429437035 0.19 0  0.5456181372381043 0.19 0  0.540674331532505 0.19 0  0.5357305258268962 0.19 0  0.530786720121263 0.19 0  0.5258429144156628 0.19 0  0.5208991087100244 0.19 0  0.5159553030044218 0.19 0  0.5110114972988226 0.19 0  0.5060676915932177 0.19 0  0.5011238858875806 0.19 0  0.496180080181972 0.19 0  0.4912362744763531 0.19 0  0.4862924687707343 0.19 0  0.4813486630651046 0.19 0  0.4764048573594966 0.19 0  0.4714610516538683 0.19 0  0.4665172459482555 0.19 0  0.4615734402426349 0.19 0  0.4566296345370104 0.19 0  0.4516858288313808 0.19 0  0.4467420231257716 0.19 0  0.4417982174201465 0.19 0  0.4368544117145297 0.19 0  0.4319106060089131 0.19 0  0.4269668003032866 0.19 0  0.4220229945976482 0.19 0  0.4170791888920056 0.19 0  0.4121353831863594 0.19 0  0.4071915774806995 0.19 0  0.4022477717750478 0.19 0  0.3973039660693901 0.19 0  0.3923601603637548 0.19 0  0.3874163546581082 0.19 0  0.3824725489524824 0.19 0  0.3775287432468258 0.19 0  0.3725849375411773 0.19 0  0.3676411318355085 0.19 0  0.3626973261298614 0.19 0  0.3577535204242108 0.19 0  0.352809714718589 0.19 0  0.347865909012931 0.19 0  0.342922103307292 0.19 0  0.3379782976016536 0.19 0  0.3330344918960152 0.19 0  0.3280906861903751 0.19 0  0.3231468804847171 0.19 0  0.3182030747790592 0.19 0  0.3132592690734012 0.19 0  0.3083154633677581 0.19 0  0.3033716576621197 0.19 0  0.2984278519564813 0.19 0  0.2934840462508429 0.19 0  0.2885402405451874 0.19 0  0.2835964348395295 0.19 0  0.2786526291338716 0.19 0  0.2737088234282243 0.19 0  0.268765017722586 0.19 0  0.2638212120169476 0.19 0  0.2588774063113093 0.19 0  0.2539336006056579 0.19 0  0.6 0.1949999999999783 0  0.6 0.2049999999999729 0  0.2589734265316493 0.2005523893428403 0  0.5431462343853077 0.199999999999969 0  0.5682397894768162 0.1999704585808987 0  0.2774513927118024 0.2007941919421926 0  0.513849583376897 0.1999023426490919 0  0.5286810004937381 0.1999023426490969 0  0.2945108952057646 0.1992911908405386 0  0.5827780831384927 0.1995429801003349 0  0.3104128396569256 0.1999704585808978 0  0.3370001755418551 0.2008294612433967 0  0.4990181662600459 0.1999023426490902 0  0.3552816175709044 0.2000000000000608 0  0.4841867491431925 0.1999023426490849 0  0.3707373713905551 0.2000142376953689 0  0.3898882575102495 0.2000000000000828 0  0.4689857550492734 0.1995416724256694 0  0.4541577316841967 0.1999999999999098 0  0.4043534914018331 0.2000976573509244 0  0.4195510917439569 0.2000000000001057 0  0.4387019778644512 0.1999857623046772 0  0.3202472750256703 0.2000088842146399 0  0.5584053541080851 0.1999911157853577 0  0.4280667146887134 0.1998489048208241 0  0.3467659946265474 0.2001510951794375 0  0.3813726345658908 0.200151095179452 0  0.2860683376922098 0.2000415445706182 0  0.5911223811781194 0.1982449159348744 0  0.2679893161458627 0.201675125646729 0  0.4615734402426278 0.2022503633288003 0  0.4912362744763454 0.2022503633288091 0  0.5060676915931983 0.2022503633288118 0  0.3973039660686774 0.1977496366711965 0  0.4764048573594896 0.2022503633288051 0  0.5208991087100455 0.2022503633288184 0  0.4467420231257656 0.2022503633288 0  0.5357305258268849 0.2022503633288198 0  0.4121353831855317 0.1977496366711976 0  0.3626973261293352 0.1977496366711919 0  0.3033716576618961 0.1977496366711869 0  0.5752809714718229 0.1977496366711503 0  0.550459855919056 0.1971284784737667 0  0.3281927732146841 0.2028715215262406 0  0.5484179020497461 0.2038403215694763 0  0.3302347270839988 0.1961596784305491 0  0.5379210852238114 0.196125181664411 0  0.5230896681069652 0.1961251816644058 0  0.5082582509901222 0.1961251816644098 0  0.5774715308687094 0.2038748183355887 0  0.3011810982649548 0.2038748183355937 0  0.4785954167564111 0.196125181664404 0  0.4934268338732671 0.1961251816644063 0  0.395113406671763 0.2038748183355966 0  0.3605067667324117 0.2038748183355951 0  0.4593828808457146 0.1961251816643993 0  0.4489325825226805 0.1961251816644007 0  0.4099448237886219 0.2038748183355991 0  0.2557862999801971 0.1960858370257295 0  0.2550147360309399 0.2034426429991114 0  0.4348031476464689 0.2037737577641554 0  0.37463620160841 0.1962262422358553 0  0.3406258365864304 0.196046792193989 0  0.2813001681189834 0.1960467921940502 0  0.2912686387439893 0.1960816328649282 0  0.4246705335819892 0.2039532078059544 0  0.350162175732913 0.1960467921941878 0  0.3847688156722694 0.1960467921942359 0  0.316632368538356 0.19615945856337 0  0.5621550011053409 0.2037816492598991 0  0.5624413877019769 0.1960761923611377 0  0.3162395035833128 0.2038679557424692 0  0.2710887134207622 0.1959696443325838 0  0.5873014376403604 0.2047227881030823 0  0.4346679566442709 0.1954651459552513 0  0.4243296504077986 0.1958756980939062 0  0.3402559510833523 0.2047940500290923 0  0.2808684926760933 0.2047742417812656 0  0.2914077033138723 0.2047809517070955 0  0.3747713926104932 0.2045348540448554 0  0.3499216488898867 0.2051753413186305 0  0.3845282888292298 0.205175341318636 0  0.2648144865455052 0.1962089742986374 0  0.5943247643662894 0.2040415423589182 0  0.5320972610456145 0.1956445099050872 0  0.5172658439287727 0.1956445099050854 0  0.3069923255602658 0.2043468033872551 0  0.5024344268119265 0.1956445099050864 0  0.5716603035734351 0.2043468033872761 0  0.4876030096950741 0.1956445099050831 0  0.4728151975296263 0.1956402468909894 0  0.3663301776527538 0.20436745486386 0  0.4651631000724991 0.1956402468909893 0  0.4009372308499527 0.2043554900949198 0  0.4431091716023345 0.1956325451361429 0  0.4157593408842466 0.2043565497109067 0  0.5865057328865416 0.1956918868509067 0  0.5541600609760193 0.2044335994013721 0  0.3244925681577497 0.1955664005986376 0  0.272008018888917 0.2049327968152409 0  0.2633407725863902 0.2042483236346266 0  0.4567948413982566 0.2046536472831198 0  0.4167680012832803 0.1955060004091903 0  0.4716262585151221 0.2046536472831242 0  0.5161054367030595 0.2045563706470633 0  0.4864426024693469 0.2045563706470604 0  0.5012740195862044 0.2045563706470634 0  0.4022810343427545 0.1961423961483001 0  0.4420739040821668 0.2044853411424516 0  0.3673807293464664 0.1955677741328205 0  0.3925253672243162 0.195346352716901 0  0.5405091246712254 0.2046536472831267 0  0.357918727284983 0.1953463527168901 0  0.5307534575528717 0.2038576038516682 0  0.3079697655029555 0.1955637092892754 0  0.2985930588175599 0.1953463527168728 0  0.579671714346879 0.1955441268455555 0  0.5705023726275059 0.1953463527168462 0  0.5112451461103119 0.2035640580783926 0  0.4964137289934448 0.2035640580783915 0  0.4665727251511405 0.2038238154617746 0  0.5259274680675793 0.2038006696000127 0  0.4815823118765752 0.2035640580783898 0  0.4517504165552094 0.2039070625502732 0  0.4071070238280551 0.1961993303999926 0  0.3234846806957546 0.2047001437739977 0  0.5551679484379799 0.1952998562260008 0  0.5457754356464107 0.1954447171286166 0  0.3329307555206357 0.2046017509710421 0  0.4541577316841968 0.1960357661898101 0  0.3358300776141575 0.1950765652117375 0  0.2539718587514912 0.200011552766824 0  0.5826472073721517 0.2039971170156656 0  0.2761021761080182 0.1946948236183283 0  0.3898581462796225 0.2041572776584344 0  0.3552515063402743 0.2041572776584256 0  0.2965028074750666 0.2046578268138723 0  0.4299158836614793 0.1951782397873778 0  0.379426563923736 0.2049969334481307 0  0.2860882692072842 0.2042624797643994 0  0.3449948044168807 0.2051793676155613 0  0.2603922435707652 0.1950997711614917 0  0.5949856943860
[...]
<PointData  Vectors="f_18-1"> 
<DataArray  type="Float64"  Name="f_18-1"  NumberOfComponents="3" format="ascii">-6.4226977834668615e-03 -5.1320973584927897e-02 0.0000000000000000e+00  -2.4054880016132337e-03 -5.1728635623040621e-02 0.0000000000000000e+00  0.0000000000000000e+00 0.0000000000000000e+00 0.0000000000000000e+00  0.0000000000000000e+00 0.0000000000000000e+00 0.0000000000000000e+00  -4.4140535302904134e-03 -5.1524799373244633e-02 0.0000000000000000e+00  0.0000000000000000e+00 0.0000000000000000e+00 0.0000000000000000e+00  0.0000000000000000e+00 0.0000000000000000e+00 0.0000000000000000e+00  0.0000000000000000e+00 0.0000000000000000e+00 0.0000000000000000e+00  0.0000000000000000e+00 0.0000000000000000e+00 0.0000000000000000e+00  6.5183529530294805e-05 -5.6126379977418593e-05 0.0000000000000000e+00  1.3690191109734856e-04 -1.1696813875039363e-04 0.0000000000000000e+00  2.0791490507638592e-04 -1.9462222761618193e-04 0.0000000000000000e+00  2.7491115256545411e-04 -3.2475290984457835e-04 0.0000000000000000e+00  3.3803057506680116e-04 -4.8316774487644596e-04 0.0000000000000000e+00  4.0321369260999781e-04 -6.8181685162503679e-04 0.0000000000000000e+00  4.6106480846086132e-04 -9.0135521342789824e-04 0.0000000000000000e+00  5.1185725492372981e-04 -1.1580492551554488e-03 0.0000000000000000e+00  5.6234217340851136e-04 -1.4438666306627675e-03 0.0000000000000000e+00  6.0770537952350447e-04 -1.7590161846272726e-03 0.0000000000000000e+00  6.5473279204470466e-04 -2.1135459505298273e-03 0.0000000000000000e+00  7.0103344467241043e-04 -2.4743099325500928e-03 0.0000000000000000e+00  7.3627405437268559e-04 -2.8796946196917648e-03 0.0000000000000000e+00  7.7959795647753447e-04 -3.3090387362342765e-03 0.0000000000000000e+00  8.0904498294103757e-04 -3.7605092897886466e-03 0.0000000000000000e+00  8.3871359244505823e-04 -4.2447240693304676e-03 0.0000000000000000e+00  8.6380330410092577e-04 -4.7478148861096574e-03 0.0000000000000000e+00  8.8407838056312707e-04 -5.2831733098640888e-03 0.0000000000000000e+00  8.9835841385022214e-04 -5.8320213080402302e-03 0.0000000000000000e+00  9.0969726481223930e-04 -6.4087025484375667e-03 0.0000000000000000e+00  9.1595113693727947e-04 -7.0047331253554239e-03 0.0000000000000000e+00  9.1668143528850460e-04 -7.6201357234210784e-03 0.0000000000000000e+00  9.1769702342340545e-04 -8.2672229207131423e-03 0.0000000000000000e+00  9.1827796382227351e-04 -8.9190262408520519e-03 0.0000000000000000e+00  9.1082538995538209e-04 -9.5996917596571606e-03 0.0000000000000000e+00  8.9859223861105033e-04 -1.0292602374923904e-02 0.0000000000000000e+00  8.8307598464108794e-04 -1.1007399500897961e-02 0.0000000000000000e+00  8.6324634610996992e-04 -1.1738106658437176e-02 0.0000000000000000e+00  8.3805630012445198e-04 -1.2484144690604890e-02 0.0000000000000000e+00  8.1209121212230174e-04 -1.3255153244087697e-02 0.0000000000000000e+00  7.8557418698021325e-04 -1.4028640252992991e-02 0.0000000000000000e+00  7.4951902149079301e-04 -1.4824314257732897e-02 0.0000000000000000e+00  7.1196794078414621e-04 -1.5637645387288963e-02 0.0000000000000000e+00  6.7342172587050411e-04 -1.6455108660096866e-02 0.0000000000000000e+00  6.2683707268329893e-04 -1.7292465652864419e-02 0.0000000000000000e+00  5.8201064053289549e-04 -1.8139685555740283e-02 0.0000000000000000e+00  5.2960414105935379e-04 -1.8998837481475832e-02 0.0000000000000000e+00  4.7787215607760538e-04 -1.9871426604633764e-02 0.0000000000000000e+00  4.2005731410270174e-04 -2.0751898916477961e-02 0.0000000000000000e+00  3.5890074902056860e-04 -2.1644250017116937e-02 0.0000000000000000e+00  2.9646837413458842e-04 -2.2544968326053249e-02 0.0000000000000000e+00  2.3169585404038203e-04 -2.3455292912678390e-02 0.0000000000000000e+00  1.6228840509819318e-04 -2.4374149172118040e-02 0.0000000000000000e+00  9.1894130648851531e-05 -2.5300125106564694e-02 0.0000000000000000e+00  1.9179685450966176e-05 -2.6234312982143407e-02 0.0000000000000000e+00  -5.7443714624981605e-05 -2.7175473459499798e-02 0.0000000000000000e+00  -1.3535689984281574e-04 -2.8122342030105940e-02 0.0000000000000000e+00  -2.1526568499138102e-04 -2.9075799020738032e-02 0.0000000000000000e+00  -2.9825485409504422e-04 -3.0034324040515734e-02 0.0000000000000000e+00  -3.8239155847650716e-04 -3.0997254846748364e-02 0.0000000000000000e+00  -4.6817477857496369e-04 -3.1965162580563526e-02 0.0000000000000000e+00  -5.5641405856610778e-04 -3.2936894256721687e-02 0.0000000000000000e+00  -6.4563213679395652e-04 -3.3911830591153318e-02 0.0000000000000000e+00  -7.3623215380974594e-04 -3.4890391122413496e-02 0.0000000000000000e+00  -8.2873654365665957e-04 -3.5871615868033772e-02 0.0000000000000000e+00  -9.2193401246262036e-04 -3.6855131185938250e-02 0.0000000000000000e+00  -1.0162649131162662e-03 -3.7841026344862166e-02 0.0000000000000000e+00  -1.1118498087475978e-03 -3.8828666546657765e-02 0.0000000000000000e+00  -1.2084965447859844e-03 -3.9817580823518890e-02 0.0000000000000000e+00  -1.3061380420869408e-03 -4.0807941945556828e-02 0.0000000000000000e+00  -1.4043670243619158e-03 -4.1799434965035527e-02 0.0000000000000000e+00  -1.5028743656004154e-03 -4.2791056434371061e-02 0.0000000000000000e+00  -1.6022263736091454e-03 -4.3783671828562604e-02 0.0000000000000000e+00  -1.7017710939858108e-03 -4.4776580396384311e-02 0.0000000000000000e+00  -1.8017920683247738e-03 -4.5769657597650282e-02 0.0000000000000000e+00  -1.9021394882136949e-03 -4.6762919764721723e-02 0.0000000000000000e+00  -2.0026178313800424e-03 -4.7756153788536586e-02 0.0000000000000000e+00  -2.1032591606919950e-03 -4.8749358227104987e-02 0.0000000000000000e+00  -2.2039816876498830e-03 -4.9742520228308489e-02 0.0000000000000000e+00  -2.3047293567738723e-03 -5.0735592778743718e-02 0.0000000000000000e+00  -6.3219349397791724e-03 -5.0327915458443923e-02 0.0000000000000000e+00  -6.2211569745577126e-03 -4.9334817562489454e-02 0.0000000000000000e+00  -6.1203350511188775e-03 -4.8341657076596260e-02 0.0000000000000000e+00  -6.0194350724944133e-03 -4.7348455731123527e-02 0.0000000000000000e+00  -5.9184459143027321e-03 -4.6355306091136798e-02 0.0000000000000000e+00  -5.8173045641456344e-03 -4.5362165343308669e-02 0.0000000000000000e+00  -5.7159612530690218e-03 -4.4369331522298459e-02 0.0000000000000000e+00  -5.6142833693066871e-03 -4.3376856742233273e-02 0.0000000000000000e+00  -5.5125227262537435e-03 -4.2384708754180322e-02 0.0000000000000000e+00  -5.4104277754896020e-03 -4.1393531264506442e-02 0.0000000000000000e+00  -5.3080363175331546e-03 -4.0402931031540530e-02 0.0000000000000000e+00  -5.2056665832628749e-03 -3.9413725502913111e-02 0.0000000000000000e+00  -5.1028463852340151e-03 -3.8426444448774480e-02 0.0000000000000000e+00  -4.9995259855170216e-03 -3.7439674857683423e-02 0.0000000000000000e+00  -4.8965104111691896e-03 -3.6455605318542590e-02 0.0000000000000000e+00  -4.7929252300599095e-03 -3.5474821715519501e-02 0.0000000000000000e+00  -4.6887847588029706e-03 -3.4494924076387233e-02 0.0000000000000000e+00  -4.5855021956780805e-03 -3.3519190461422953e-02 0.0000000000000000e+00  -4.4815248955084666e-03 -3.2548081196503514e-02 0.0000000000000000e+00  -4.3768825184083045e-03 -3.1578223103969592e-02 0.0000000000000000e+00  -4.2736421159305042e-03 -3.0614211895246338e-02 0.0000000000000000e+00  -4.1696013630922232e-03 -2.9656441615270115e-02 0.0000000000000000e+00  -4.0647857673720344e-03 -2.8700333548221491e-02 0.0000000000000000e+00  -3.9620140174396424e-03 -2.7751958961433589e-02 0.0000000000000000e+00  -3.8583014859397348e-03 -2.6811796337052485e-02 0.0000000000000000e+00  -3.7539320979432227e-03 -2.5874638237153056e-02 0.0000000000000000e+00  -3.6511485489151996e-03 -2.4945941669829698e-02 0.0000000000000000e+00  -3.5478982273383910e-03 -2.4028063243606988e-02 0.0000000000000000e+00  -3.4444936795638313e-03 -2.3112280473616718e-02 0.0000000000000000e+00  -3.3450355841134643e-03 -2.2208377699266740e-02 0.0000000000000000e+00  -3.2434051505730007e-03 -2.1318232782001633e-02 0.0000000000000000e+00  -3.1409033918677887e-03 -2.0431284891911459e-02 0.0000000000000000e+00  -3.0412565308109772e-03 -1.9559063493121580e-02 0.0000000000000000e+00  -2.9432939127968447e-03 -1.8694289937605912e-02 0.0000000000000000e+00  -2.8459585488246342e-03 -1.7842001974756019e-02 0.0000000000000000e+00  -2.7511192777024815e-03 -1.7005041584157773e-02 0.0000000000000000e+00  -2.6536502174862057e-03 -1.6176624278821931e-02 0.0000000000000000e+00  -2.5596210919339312e-03 -1.5363740404199936e-02 0.0000000000000000e+00  -2.4643750763866362e-03 -1.4563978108049153e-02 0.0000000000000000e+00  -2.3692797492531766e-03 -1.3779674895019975e-02 0.0000000000000000e+00  -2.2765850676683928e-03 -1.3011658339461831e-02 0.0000000000000000e+00  -2.1882912289456725e-03 -1.2255861325890564e-02 0.0000000000000000e+00  -2.1020333996435623e-03 -1.1518394231265149e-02 0.0000000000000000e+00  -2.0092496145783833e-03 -1.0794600007786625e-02 0.0000000000000000e+00  -1.9248359256202015e-03 -1.0090881820757553e-02 0.0000000000000000e+00  -1.8351230867005510e-03 -9.4078854641319477e-03 0.0000000000000000e+00  -1.7526433162081540e-03 -8.7395530662774615e-03 0.0000000000000000e+00  -1.6693345963380835e-03 -8.0950054831883857e-03 0.0000000000000000e+00  -1.5907347737828695e-03 -7.4649214587713232e-03 0.0000000000000000e+00  -1.5144360829478173e-03 -6.8580619809108035e-03 0.0000000000000000e+00  -1.4297965251445059e-03 -6.2676999065053203e-03 0.0000000000000000e+00  -1.3551254179090945e-03 -5.7012603964744493e-03 0.0000000000000000e+00  -1.2726588628712773e-03 -5.1607975320941022e-03 0.0000000000000000e+00  -1.2015683872086936e-03 -4.6400841961564175e-03 0.0000000000000000e+00  -1.1285276674247076e-03 -4.1529156027786717e-03 0.0000000000000000e+00  -1.0531229137344445e-03 -3.6733098826967499e-03 0.0000000000000000e+00  -9.8360450676132746e-04 -3.2301055216926743e-03 0.0000000000000000e+00  -9.0320499677382993e-04 -2.8107040166758740e-03 0.0000000000000000e+00  -8.3485378107019906e-04 -2.4156846884782575e-03 0.0000000000000000e+00  -7.6421101879929957e-04 -2.0559222419691487e-03 0.0000000000000000e+00  -6.9713727084158008e-04 -1.7159942285600242e-03 0.0000000000000000e+00  -6.3164026079596917e-04 -1.4101071642536765e-03 0.0000000000000000e+00  -5.5612025722154605e-04 -1.1271858810002165e-03 0.0000000000000000e+00  -4.9305884902558507e-04 -8.7601232160469265e-04 0.0000000000000000e+00  -4.1794459616476714e-04 -6.5582519737391340e-04 0.0000000000000000e+00  -3.5215919523884435e-04 -4.7297944687904126e-04 0.0000000000000000e+00  -2.7610753994824935e-04 -3.2173482619882616e-04 0.0000000000000000e+00  -2.0704596324035290e-04 -1.9458190344661197e-04 0.0000000000000000e+00  -1.3848714640666751e-04 -1.0567808985787345e-04 0.0000000000000000e+00  -6.8831148724971336e-05 -5.9906662741678111e-05 0.0000000000000000e+00  -5.4183518472930448e-03 -5.1422887259553934e-02 0.0000000000000000e+00  -3.4097791383967280e-03 -5.1626717889684877e-02 0.0000000000000000e+00  8.0524416590641134e-06 -5.7529714741374807e-05 0.0000000000000000e+00  -3.2568828661483033e-03 -4.0108713314337789e-02 0.0000000000000000e+00  -3.7726491373958142e-03 -4.5143592894566632e-02 0.0000000000000000e+00  2.0182244034557018e-05 -5.7249048649874736e-04 0.0000000000000000e+00  -2.6896764557897373e-03 -3.4269856802856415e-02 0.0000000000000000e+00  -2.9847162893826555e-03 -3.7215687737777496e-02 0.0000000000000000e+00  -7.3376485527025225e-05 -1.4446205171202210e-03 0.0000000000000000e+00  -4.1548101381722637e-03 -4.8055853147933869e-02 0.0000000000000000e+00  -7.1363877671342234e-05 -2.5739337571565706e-03 0.0000000000000000e+00  -1.0223011038033987e-04 -5.0863456519435754e-03 0.0000000000000000e+00  -2.4002339197185078e-03 -3.1351930523762422e-02 0.0000000000000000e+00  -3.1176867291149364e-04 -7.2085588072000025e-03 0.0000000000000000e+00  -2.1184655859719111e-03 -2.8472761970442226e-02 0.0000000000000000e+00  -4.4165696027492686e-04 -9.2199443939960709e-03 0.0000000000000000e+00  -6.4121957108900448e-04 -1.1976989475362715e-02 0.0000000000000000e+00  -1.9076102415578513e-03 -2.5568381104789529e-02 0.0000000000000000e+00  -1.5630608226092223e-03 -2.2818350428759404e-02 0.0000000000000000e+00  -8.0059723865161443e-04 -1.4219689040116470e-02 0.0000000000000000e+00  -1.0215375980006612e-03 -1.6712031422458733e-02 0.0000000000000000e+00  -1.3118716373054580e-03 -2.0024716230213443e-02 0.0000000000000000e+00  -1.0415973510683119e-04 -3.4128847774120338e-03 0.0000000000000000e+00  -3.5682148239160848e-03 -4.3168733300009129e-02 0.0000000000000000e+00  -1.1708350756495698e-03 -1.8162200505196194e-02 0.0000000000000000e+00  -2.3486677249287186e-04 -6.1805177751553218e-03 0.0000000000000000e+00  -5.2760839440932036e-04 -1.0719646802881606e-02 0.0000000000000000e+00  -1.8707911208798976e-05 -9.7929367184094182e-04 0.0000000000000000e+00  -4.5856363843533102e-03 -4.9705751227891525e-02 0.0000000000000000e+00  3.9221782424104953e-05 -2.5390833826732253e-04 0.0000000000000000e+00  -1.2734541151570272e-03 -2.4228415263814369e-02 0.0000000000000000e+00  -1.7972696282077822e-03 -2.9880783172996920e-02 0.0000000000000000e+00  -2.0765721855810952e-03 -3.2780897136869082e-02 0.0000000000000000e+00  -1.0762279158624882e-03 -1.3083928732288013e-02 0.0000000000000000e+00  -1.5286241375255349e-03 -2.7025316797536475e-02 0.0000000000000000e+00  -2.3642840484646992e-03 -3.5714104612749181e-02 0.0000000000000000e+00  -1.0350039296039449e-03 -2.1504238620214965e-02 0.0000000000000000e+00  -2.6582434680679540e-03 -3.8670413997744110e-02 0.0000000000000000e+00  -1.2865220470395125e-03 -1.5451476938738277e-02 0.0000000000000000e+00  -6.6369865129793182e-04 -8.1334059441791513e-03 0.0000000000000000e+00  -2.0884242357634413e-04 -2.0390312748839335e-03 0.0000000000000000e+00  -4.3620344176962334e-03 -4.6512998555076790e-02 0.0000000000000000e+00  -3.9800292424091461e-03 -4.1516426635661317e-02 0.0000000000000000e+00  1.3820534831963293e-04 -4.1872154213768885e-03 0.0000000000000000e+00  -2.5949505711062764e-03 -4.1243233558262059e-02 0.0000000000000000e+00  -5.3748133542305199e-04 -4.3630860963723098e-03 0.0000000000000000e+00  -3.9245708756891814e-03 -3.8985222749869979e-02 0.0000000000000000e+00  -3.6219268617584816e-03 -3.6027869773745669e-02 0.0000000000000000e+00  -3.3215671024842243e-03 -3.3093045597003407e-02 0.0000000000000000e+00  -3.1768242035891243e-03 -4.7077960930889236e-02 0.0000000000000000e+00  2.2377296624183463e-04 -1.9023558641609894e-03 0.0000000000000000e+00  -2.7335574744011561e-03 -2.7332161025682037e-02 0.0000000000000000e+00  -3.0248742500515614e-03 -3.0190604247520462e-02 0.0000000000000000e+00  -1.0844582797642121e-04 -1.2820139765936708e-02 0.0000000000000000e+00  1.4205279554416788e-04 -7.9035136067155676e-03 0.0000000000000000e+00  -2.3694954631715919e-03 -2.3716697231776270e-02 0.0000000000000000e+00  -2.1748958471550341e-03 -2.1801310210889258e-02 0.0000000000000000e+00  -2.5988215173580048e-04 -1.5176239829790727e-02 0.0000000000000000e+00  -2.9979092570445398e-05 -2.4729991365468974e-05 0.0000000000000000e+00  2.2745921520351573e-05 -1.8983915049806565e-05 0.0000000000000000e+00  -5.8961381073617417e-04 -1.9397388473394443e-02 0.0000000000000000e+00  -1.0064864315138730e-03 -9.7265837254458826e-03 0.0000000000000000e+00  -6.4851872497819830e-04 -5.4592451677094728e-03 0.0000000000000000e+00  -1.8823120509731269e-04 -7.4232681569105189e-04 0.0000000000000000e+00  -2.4369753641383435e-04 -1.2545525671287321e-03 0.0000000000000000e+00  -4.2440661597781466e-04 -1.7643035899670576e-02 0.0000000000000000e+00  -7.4260748578842094e-04 -6.5563732207760675e-03 0.0000000000000000e+00  -1.1619825954381723e-03 -1.1173469036736361e-02 0.0000000000000000e+00  -4.2012132272013249e-04 -3.0848498388492229e-03 0.0000000000000000e+00  -2.8841259483664556e-03 -4.3998955548086034e-02 0.0000000000000000e+00  -4.4358614768141508e-03 -4.3899701482587226e-02 0.0000000000000000e+00  2.3782663786840315e-04 -3.0794183250283046e-03 0.0000000000000000e+00  -1.3423620207522987e-04 -3.5364453104742144e-04 0.0000000000000000e+00  -3.2066990530734609e-03 -4.9070229636995921e-02 0.0000000000000000e+00  -2.0398545695062323e-03 -1.9247058962483320e-02 0.0000000000000000e+00  -1.7912894499048197e-03 -1.7465201501685436e-02 0.0000000000000000e+00  3.1793154582526381e-04 -5.4752463924230650e-03 0.0000000000000000e+00  1.9606039721844565e-04 -7.3528692178710556e-04 0.0000000000000000e+00  2.4678663668918296e-04 -1.2811605561429825e-03 0.0000000000000000e+00  1.4717649924636550e-04 -9.8285412648224640e-03 0.0000000000000000e+00  3.3975701901733767e-04 -6.5999130307186054e-03 0.0000000000000000e+00  1.7167885436771438e-04 -1.1241638444352641e-02 0.0000000000000000e+00  -8.4442172336164547e-05 -1.8445771312580807e-04 0.0000000000000000e+00  -3.4866317674894830e-03 -5.0467210222534323e-02 0.0000000000000000e+00  -3.9016943623877477e-03 -3.7812458066098349e-02 0.0000000000000000e+00  -3.5993441969790750e-03 -3.4863129222993471e-02 0.0000000000000000e+00  2.6528059998066770e-04 -2.3302170677901263e-03 0.0000000000000000e+00  -3.2994536142298921e-03 -3.1940069731592080e-02 0.0000000000000000e+00  -2.9638200787445767e-03 -4.5920030069916296e-02 0.0000000000000000e+00  -3.0035358704819238e-03 -2.9053813196973064e-02 0.0000000000000000e+00  -2.7148343204294444e-03 -2.6224688355575398e-02 0.0000000000000000e+00  1.7161993029949404e-04 -8.6721293804493619e-03 0.0000000000000000e+00  -2.5670181906756505e-03 -2.4784419123575707e-02 0.0000000000000000e+00  -9.2712596018936072e-05 -1.3735487882569113e-02 0.0000000000000000e+00  -2.1609284111078430e-03 -2.0745002409777637e-02 0.0000000000000000e+00  -2.4856995197710698e-04 -1.6143343640407266e-02 0.0000000000000000e+00  -5.0042954090777836e-03 -4.8726269744891491e-02 0.0000000000000000e+00  -2.5917989819114343e-03 -4.2407056614570338e-02 0.0000000000000000e+00  -5.4368408480619257e-04 -3.7978038458226378e-03 0.0000000000000000e+00  1.5195832101556173e-04 -3.8438664365846969e-04 0.0000000000000000e+00  8.0365940258209082e-05 -1.4659993848201711e-04 0.0000000000000000e+00  -7.5364562823659897e-04 -2.3384722600104695e-02 0.0000000000000000e+00  -1.7283486904654294e-03 -1.6188793785105439e-02 0.0000000000000000e+00  -9.9188465088727805e-04 -2.6161527949660746e-02 0.0000000000000000e+00  -1.8149538105302857e-03 -3.4809178905874101e-02 0.0000000000000000e+00  -1.2655649279730476e-03 -2.8996562237704252e-02 0.0000000000000000e+00  -1.5348106732750160e-03 -3.1884690423819327e-02 0.0000000000000000e+00  -1.3988519129818566e-03 -1.3844034907475725e-02 0.0000000000000000e+00  -5.6540052212921993e-04 -2.0701743022770773e-02 0.0000000000000000e+00  -1.0042236787292098e-03 -8.7342894717838040e-03 0.0000000000000000e+00  -1.3756492212900256e-03 -1.2326726297166952e-02 0.0000000000000000e+00  -2.2739619287954738e-03 -3.9675062454911675e-02 0.0000000000000000e+00  -9.1565784360598558e-04 -7.5076353100340405e-03 0.0000000000000000e+00  -2.2390391356497874e-03 -3.7708694136142092e-02 0.0000000000000000e+00  -4.0236175838970391e-04 -2.3795883597011016e-03 0.0000000000000000e+00  -3.4430684089568371e-04 -1.7080527517767373e-03 0.0000000000000000e+00  -4.8945700176375017e-03 -4.7350254555964026e-02 0.0000000000000000e+00  -4.7470101726237073e-03 -4.5504057825957886e-02 0.0000000000000000e+00  -1.9172212836539434e-03 -3.3827523376561933e-02 0.0000000000000000e+00  -1.6378533241248742e-03 -3.0914007758074978e-02 0.0000000000000000e+00  -1.0629102232745334e-03 -2.5192239280941608e-02 0.0000000000000000e+00  -2.1552307837396458e-03 -3.6745341945481957e-02 0.0000000000000000e+00  -1.3694154681687402e-03 -2.8040781723043195e-02 0.0000000000000000e+00  -8.1123799648324057e-04 -2.2444174752080350e-02 0.0000000000000000e+00  -1.4620572024149623e-03 -1.4613845642005496e-02 0.0000000000000000e+00  3.1716617836389133e-04 -3.7432496511086402e-03 0.0000000000000000e+00  -4.4426842003941385e-03 -4.2423930187722794e-02 0.0000000000000000e+00  -4.2213945438270874e-03 -4.0543609522341130e-02 0.0000000000000000e+00  3.0441825139903596e-