<?xml version="1.0"?>
<VTKFile type="UnstructuredGrid"  version="0.1"  >
<UnstructuredGrid>
<Piece  NumberOfPoints="439" NumberOfCells="725">
<Points>
<DataArray  type="Float64"  NumberOfComponents="3"  format="ascii">0.6 0.19 0  0.6 0.21 0  0.2489897949 0.21 0  0.2489897949 0.19 0  0.6 0.2 0  0.2496355385699469 0.2060260530378829 0  0.249959460510575 0.2020130349814059 0  0.2499594605105767 0.1979869650186357 0  0.24963553856995 0.1939739469621422 0  0.2539336006056293 0.21 0  0.2588774063112542 0.21 0  0.2638212120168921 0.21 0  0.26876501772253 0.21 0  0.2737088234281569 0.21 0  0.2786526291337753 0.21 0  0.2835964348393937 0.21 0  0.2885402405450166 0.21 0  0.2934840462506522 0.21 0  0.2984278519562708 0.21 0  0.3033716576618997 0.21 0  0.3083154633675181 0.21 0  0.3132592690731365 0.21 0  0.3182030747787549 0.21 0  0.3231468804843732 0.21 0  0.3280906861899917 0.21 0  0.3330344918956208 0.21 0  0.3379782976012284 0.21 0  0.3429221033068576 0.21 0  0.347865909012476 0.21 0  0.3528097147180944 0.21 0  0.3577535204237128 0.21 0  0.3626973261293311 0.21 0  0.3676411318349495 0.21 0  0.3725849375405788 0.21 0  0.3775287432461877 0.21 0  0.382472548951812 0.21 0  0.3874163546574338 0.21 0  0.3923601603630631 0.21 0  0.3973039660686706 0.21 0  0.4022477717742986 0.21 0  0.4071915774799107 0.21 0  0.4121353831855311 0.21 0  0.4170791888911518 0.21 0  0.4220229945967636 0.21 0  0.4269668003023918 0.21 0  0.4319106060080253 0.21 0  0.4368544117136773 0.21 0  0.4417982174193329 0.21 0  0.4467420231249967 0.21 0  0.4516858288306445 0.21 0  0.4566296345362864 0.21 0  0.461573440241916 0.21 0  0.4665172459475665 0.21 0  0.4714610516531998 0.21 0  0.4764048573588668 0.21 0  0.4813486630645134 0.21 0  0.486292468770176 0.21 0  0.4912362744758066 0.21 0  0.4961800801814611 0.21 0  0.5011238858870897 0.21 0  0.5060676915927493 0.21 0  0.5110114972983872 0.21 0  0.5159553030040036 0.21 0  0.5208991087096415 0.21 0  0.5258429144153002 0.21 0  0.5307867201209391 0.21 0  0.5357305258265987 0.21 0  0.5406743315322367 0.21 0  0.5456181372378529 0.21 0  0.5505619429434908 0.21 0  0.5555057486491456 0.21 0  0.5604495543547885 0.21 0  0.565393360060448 0.21 0  0.5703371657661116 0.21 0  0.5752809714717458 0.21 0  0.5802247771773834 0.21 0  0.5851685828830341 0.21 0  0.5901123885886809 0.21 0  0.5950561942943404 0.21 0  0.5950561942943833 0.19 0  0.590112388588758 0.19 0  0.5851685828831193 0.19 0  0.5802247771774727 0.19 0  0.5752809714718514 0.19 0  0.5703371657662308 0.19 0  0.565393360060618 0.19 0  0.5604495543549889 0.19 0  0.5555057486493581 0.19 0  0.5505619429437035 0.19 0  0.5456181372381043 0.19 0  0.540674331532505 0.19 0  0.5357305258268962 0.19 0  0.530786720121263 0.19 0  0.5258429144156628 0.19 0  0.5208991087100244 0.19 0  0.5159553030044218 0.19 0  0.5110114972988226 0.19 0  0.5060676915932177 0.19 0  0.5011238858875806 0.19 0  0.496180080181972 0.19 0  0.4912362744763531 0.19 0  0.4862924687707343 0.19 0  0.4813486630651046 0.19 0  0.4764048573594966 0.19 0  0.4714610516538683 0.19 0  0.4665172459482555 0.19 0  0.4615734402426349 0.19 0  0.4566296345370104 0.19 0  0.4516858288313808 0.19 0  0.4467420231257716 0.19 0  0.4417982174201465 0.19 0  0.4368544117145297 0.19 0  0.4319106060089131 0.19 0  0.4269668003032866 0.19 0  0.4220229945976482 0.19 0  0.4170791888920056 0.19 0  0.4121353831863594 0.19 0  0.4071915774806995 0.19 0  0.4022477717750478 0.19 0  0.3973039660693901 0.19 0  0.3923601603637548 0.19 0  0.3874163546581082 0.19 0  0.3824725489524824 0.19 0  0.3775287432468258 0.19 0  0.3725849375411773 0.19 0  0.3676411318355085 0.19 0  0.3626973261298614 0.19 0  0.3577535204242108 0.19 0  0.352809714718589 0.19 0  0.347865909012931 0.19 0  0.342922103307292 0.19 0  0.3379782976016536 0.19 0  0.3330344918960152 0.19 0  0.3280906861903751 0.19 0  0.3231468804847171 0.19 0  0.3182030747790592 0.19 0  0.3132592690734012 0.19 0  0.3083154633677581 0.19 0  0.3033716576621197 0.19 0  0.2984278519564813 0.19 0  0.2934840462508429 0.19 0  0.2885402405451874 0.19 0  0.2835964348395295 0.19 0  0.2786526291338716 0.19 0  0.2737088234282243 0.19 0  0.268765017722586 0.19 0  0.2638212120169476 0.19 0  0.2588774063113093 0.19 0  0.2539336006056579 0.19 0  0.6 0.1949999999999783 0  0.6 0.2049999999999729 0  0.2589734265316493 0.2005523893428403 0  0.5431462343853077 0.199999999999969 0  0.5682397894768162 0.1999704585808987 0  0.2774513927118024 0.2007941919421926 0  0.513849583376897 0.1999023426490919 0  0.5286810004937381 0.1999023426490969 0  0.2945108952057646 0.1992911908405386 0  0.5827780831384927 0.1995429801003349 0  0.3104128396569256 0.1999704585808978 0  0.3370001755418551 0.2008294612433967 0  0.4990181662600459 0.1999023426490902 0  0.3552816175709044 0.2000000000000608 0  0.4841867491431925 0.1999023426490849 0  0.3707373713905551 0.2000142376953689 0  0.3898882575102495 0.2000000000000828 0  0.4689857550492734 0.1995416724256694 0  0.4541577316841967 0.1999999999999098 0  0.4043534914018331 0.2000976573509244 0  0.4195510917439569 0.2000000000001057 0  0.4387019778644512 0.1999857623046772 0  0.3202472750256703 0.2000088842146399 0  0.5584053541080851 0.1999911157853577 0  0.4280667146887134 0.1998489048208241 0  0.3467659946265474 0.2001510951794375 0  0.3813726345658908 0.200151095179452 0  0.2860683376922098 0.2000415445706182 0  0.5911223811781194 0.1982449159348744 0  0.2679893161458627 0.201675125646729 0  0.4615734402426278 0.2022503633288003 0  0.4912362744763454 0.2022503633288091 0  0.5060676915931983 0.2022503633288118 0  0.3973039660686774 0.1977496366711965 0  0.4764048573594896 0.2022503633288051 0  0.5208991087100455 0.2022503633288184 0  0.4467420231257656 0.2022503633288 0  0.5357305258268849 0.2022503633288198 0  0.4121353831855317 0.1977496366711976 0  0.3626973261293352 0.1977496366711919 0  0.3033716576618961 0.1977496366711869 0  0.5752809714718229 0.1977496366711503 0  0.550459855919056 0.1971284784737667 0  0.3281927732146841 0.2028715215262406 0  0.5484179020497461 0.2038403215694763 0  0.3302347270839988 0.1961596784305491 0  0.5379210852238114 0.196125181664411 0  0.5230896681069652 0.1961251816644058 0  0.5082582509901222 0.1961251816644098 0  0.5774715308687094 0.2038748183355887 0  0.3011810982649548 0.2038748183355937 0  0.4785954167564111 0.196125181664404 0  0.4934268338732671 0.1961251816644063 0  0.395113406671763 0.2038748183355966 0  0.3605067667324117 0.2038748183355951 0  0.4593828808457146 0.1961251816643993 0  0.4489325825226805 0.1961251816644007 0  0.4099448237886219 0.2038748183355991 0  0.2557862999801971 0.1960858370257295 0  0.2550147360309399 0.2034426429991114 0  0.4348031476464689 0.2037737577641554 0  0.37463620160841 0.1962262422358553 0  0.3406258365864304 0.196046792193989 0  0.2813001681189834 0.1960467921940502 0  0.2912686387439893 0.1960816328649282 0  0.4246705335819892 0.2039532078059544 0  0.350162175732913 0.1960467921941878 0  0.3847688156722694 0.1960467921942359 0  0.316632368538356 0.19615945856337 0  0.5621550011053409 0.2037816492598991 0  0.5624413877019769 0.1960761923611377 0  0.3162395035833128 0.2038679557424692 0  0.2710887134207622 0.1959696443325838 0  0.5873014376403604 0.2047227881030823 0  0.4346679566442709 0.1954651459552513 0  0.4243296504077986 0.1958756980939062 0  0.3402559510833523 0.2047940500290923 0  0.2808684926760933 0.2047742417812656 0  0.2914077033138723 0.2047809517070955 0  0.3747713926104932 0.2045348540448554 0  0.3499216488898867 0.2051753413186305 0  0.3845282888292298 0.205175341318636 0  0.2648144865455052 0.1962089742986374 0  0.5943247643662894 0.2040415423589182 0  0.5320972610456145 0.1956445099050872 0  0.5172658439287727 0.1956445099050854 0  0.3069923255602658 0.2043468033872551 0  0.5024344268119265 0.1956445099050864 0  0.5716603035734351 0.2043468033872761 0  0.4876030096950741 0.1956445099050831 0  0.4728151975296263 0.1956402468909894 0  0.3663301776527538 0.20436745486386 0  0.4651631000724991 0.1956402468909893 0  0.4009372308499527 0.2043554900949198 0  0.4431091716023345 0.1956325451361429 0  0.4157593408842466 0.2043565497109067 0  0.5865057328865416 0.1956918868509067 0  0.5541600609760193 0.2044335994013721 0  0.3244925681577497 0.1955664005986376 0  0.272008018888917 0.2049327968152409 0  0.2633407725863902 0.2042483236346266 0  0.4567948413982566 0.2046536472831198 0  0.4167680012832803 0.1955060004091903 0  0.4716262585151221 0.2046536472831242 0  0.5161054367030595 0.2045563706470633 0  0.4864426024693469 0.2045563706470604 0  0.5012740195862044 0.2045563706470634 0  0.4022810343427545 0.1961423961483001 0  0.4420739040821668 0.2044853411424516 0  0.3673807293464664 0.1955677741328205 0  0.3925253672243162 0.195346352716901 0  0.5405091246712254 0.2046536472831267 0  0.357918727284983 0.1953463527168901 0  0.5307534575528717 0.2038576038516682 0  0.3079697655029555 0.1955637092892754 0  0.2985930588175599 0.1953463527168728 0  0.579671714346879 0.1955441268455555 0  0.5705023726275059 0.1953463527168462 0  0.5112451461103119 0.2035640580783926 0  0.4964137289934448 0.2035640580783915 0  0.4665727251511405 0.2038238154617746 0  0.5259274680675793 0.2038006696000127 0  0.4815823118765752 0.2035640580783898 0  0.4517504165552094 0.2039070625502732 0  0.4071070238280551 0.1961993303999926 0  0.3234846806957546 0.2047001437739977 0  0.5551679484379799 0.1952998562260008 0  0.5457754356464107 0.1954447171286166 0  0.3329307555206357 0.2046017509710421 0  0.4541577316841968 0.1960357661898101 0  0.3358300776141575 0.1950765652117375 0  0.2539718587514912 0.200011552766824 0  0.5826472073721517 0.2039971170156656 0  0.2761021761080182 0.1946948236183283 0  0.3898581462796225 0.2041572776584344 0  0.3552515063402743 0.2041572776584256 0  0.2965028074750666 0.2046578268138723 0  0.4299158836614793 0.1951782397873778 0  0.379426563923736 0.2049969334481307 0  0.2860882692072842 0.2042624797643994 0  0.3449948044168807 0.2051793676155613 0  0.2603922435707652 0.1950997711614917 0  0.5949856943860
[...]
<PointData  Vectors="f_18-1"> 
<DataArray  type="Float64"  Name="f_18-1"  NumberOfComponents="3" format="ascii">-2.8035010758020673e-02 -1.1600251326163150e-01 0.0000000000000000e+00  -1.9012515903459148e-02 -1.1815331187528132e-01 0.0000000000000000e+00  0.0000000000000000e+00 0.0000000000000000e+00 0.0000000000000000e+00  0.0000000000000000e+00 0.0000000000000000e+00 0.0000000000000000e+00  -2.3523685450028583e-02 -1.1707787928872475e-01 0.0000000000000000e+00  0.0000000000000000e+00 0.0000000000000000e+00 0.0000000000000000e+00  0.0000000000000000e+00 0.0000000000000000e+00 0.0000000000000000e+00  0.0000000000000000e+00 0.0000000000000000e+00 0.0000000000000000e+00  0.0000000000000000e+00 0.0000000000000000e+00 0.0000000000000000e+00  1.5103666426406284e-04 -1.3226308466359095e-04 0.0000000000000000e+00  3.1712081929965411e-04 -2.7852651178944835e-04 0.0000000000000000e+00  4.8070422066170390e-04 -4.6586013576548849e-04 0.0000000000000000e+00  6.3167952855209110e-04 -7.7840911134930248e-04 0.0000000000000000e+00  7.7086522769500329e-04 -1.1594685751856863e-03 0.0000000000000000e+00  9.1023047038488322e-04 -1.6370974381850166e-03 0.0000000000000000e+00  1.0294464053342469e-03 -2.1652214386257058e-03 0.0000000000000000e+00  1.1263780599414703e-03 -2.7810185902090688e-03 0.0000000000000000e+00  1.2171382994946277e-03 -3.4668138046550839e-03 0.0000000000000000e+00  1.2900314558300693e-03 -4.2219040445925097e-03 0.0000000000000000e+00  1.3578498618730755e-03 -5.0710952337158065e-03 0.0000000000000000e+00  1.4222926214158477e-03 -5.9359482546650364e-03 0.0000000000000000e+00  1.4494943297183830e-03 -6.9037128115649023e-03 0.0000000000000000e+00  1.4883799462358726e-03 -7.9304327917957933e-03 0.0000000000000000e+00  1.4886744086243092e-03 -9.0059358631220821e-03 0.0000000000000000e+00  1.4790325538922430e-03 -1.0158089874344932e-02 0.0000000000000000e+00  1.4524513737078574e-03 -1.1353278966866146e-02 0.0000000000000000e+00  1.4037856145356958e-03 -1.2621720138353309e-02 0.0000000000000000e+00  1.3363933439099714e-03 -1.3919894381556584e-02 0.0000000000000000e+00  1.2520224102205533e-03 -1.5281043542950849e-02 0.0000000000000000e+00  1.1485969747761988e-03 -1.6685158471036455e-02 0.0000000000000000e+00  1.0248589274700999e-03 -1.8131593613993364e-02 0.0000000000000000e+00  8.8876029042922813e-04 -1.9649913204488542e-02 0.0000000000000000e+00  7.4941409914304024e-04 -2.1179045904903545e-02 0.0000000000000000e+00  5.7979746583724590e-04 -2.2769910125965940e-02 0.0000000000000000e+00  3.9401550366395218e-04 -2.4386304597757362e-02 0.0000000000000000e+00  1.9120444271763680e-04 -2.6049884944662399e-02 0.0000000000000000e+00  -2.8394623475979933e-05 -2.7746943282306445e-02 0.0000000000000000e+00  -2.6685126235733515e-04 -2.9475342381069216e-02 0.0000000000000000e+00  -5.1863916897210334e-04 -3.1257887626471463e-02 0.0000000000000000e+00  -7.7298536240946801e-04 -3.3045746805938074e-02 0.0000000000000000e+00  -1.0585086681590456e-03 -3.4877397202354624e-02 0.0000000000000000e+00  -1.3558466182220156e-03 -3.6746462758080224e-02 0.0000000000000000e+00  -1.6574519251021966e-03 -3.8624056789810748e-02 0.0000000000000000e+00  -1.9860636834991797e-03 -4.0540513962857468e-02 0.0000000000000000e+00  -2.3159010098744641e-03 -4.2478974970706511e-02 0.0000000000000000e+00  -2.6678607966714300e-03 -4.4439200360017909e-02 0.0000000000000000e+00  -3.0252025965525993e-03 -4.6428386252800165e-02 0.0000000000000000e+00  -3.3994305395422682e-03 -4.8431352173611102e-02 0.0000000000000000e+00  -3.7867848671557227e-03 -5.0457900733849377e-02 0.0000000000000000e+00  -4.1811451625739429e-03 -5.2501676064074028e-02 0.0000000000000000e+00  -4.5854090820673299e-03 -5.4564799512289403e-02 0.0000000000000000e+00  -5.0039480014009785e-03 -5.6643776410031987e-02 0.0000000000000000e+00  -5.4283443628392446e-03 -5.8737643201502120e-02 0.0000000000000000e+00  -5.8620194552627732e-03 -6.0848055928220790e-02 0.0000000000000000e+00  -6.3078567759995022e-03 -6.2971520429077998e-02 0.0000000000000000e+00  -6.7595867422966362e-03 -6.5106877692416160e-02 0.0000000000000000e+00  -7.2192322484322998e-03 -6.7255664696599049e-02 0.0000000000000000e+00  -7.6884803148848952e-03 -6.9414004556024686e-02 0.0000000000000000e+00  -8.1627479255997181e-03 -7.1581631558172223e-02 0.0000000000000000e+00  -8.6434667226158168e-03 -7.3759524735863446e-02 0.0000000000000000e+00  -9.1319073337258038e-03 -7.5944680967315381e-02 0.0000000000000000e+00  -9.6244121591630150e-03 -7.8136649132312247e-02 0.0000000000000000e+00  -1.0122127814404698e-02 -8.0336138362731790e-02 0.0000000000000000e+00  -1.0625768946081577e-02 -8.2540667004743926e-02 0.0000000000000000e+00  -1.1132341700254362e-02 -8.4750198386124354e-02 0.0000000000000000e+00  -1.1642901497135955e-02 -8.6964688971613274e-02 0.0000000000000000e+00  -1.2157393243742187e-02 -8.9182672340405930e-02 0.0000000000000000e+00  -1.2675119967549234e-02 -9.1403126430988746e-02 0.0000000000000000e+00  -1.3196129969773688e-02 -9.3626668326604323e-02 0.0000000000000000e+00  -1.3719272815439838e-02 -9.5852944431634321e-02 0.0000000000000000e+00  -1.4243119483480247e-02 -9.8079494834829750e-02 0.0000000000000000e+00  -1.4769803443602705e-02 -1.0030838344918749e-01 0.0000000000000000e+00  -1.5297147324564313e-02 -1.0253828777849336e-01 0.0000000000000000e+00  -1.5826052437093934e-02 -1.0476854361964495e-01 0.0000000000000000e+00  -1.6356124227843931e-02 -1.0699955536168163e-01 0.0000000000000000e+00  -1.6886594734140913e-02 -1.0923044848350845e-01 0.0000000000000000e+00  -1.7417784308650298e-02 -1.1146141104732875e-01 0.0000000000000000e+00  -1.7949302674831909e-02 -1.1369234842167483e-01 0.0000000000000000e+00  -1.8480847644318295e-02 -1.1592288923935830e-01 0.0000000000000000e+00  -2.7503277271189806e-02 -1.1377210801464095e-01 0.0000000000000000e+00  -2.6971395080229246e-02 -1.1154161753511883e-01 0.0000000000000000e+00  -2.6439289620867244e-02 -1.0931100265936472e-01 0.0000000000000000e+00  -2.5906885947883811e-02 -1.0708055179456474e-01 0.0000000000000000e+00  -2.5374304150016840e-02 -1.0485059090711683e-01 0.0000000000000000e+00  -2.4841393476407504e-02 -1.0262099998635217e-01 0.0000000000000000e+00  -2.4308352149594894e-02 -1.0039275053314009e-01 0.0000000000000000e+00  -2.3774785548196137e-02 -9.8166014181968811e-02 0.0000000000000000e+00  -2.3241526423868786e-02 -9.5940398957850420e-02 0.0000000000000000e+00  -2.2708300978776966e-02 -9.3717722080935623e-02 0.0000000000000000e+00  -2.2174940614002357e-02 -9.1496802346442085e-02 0.0000000000000000e+00  -2.1642822436806309e-02 -8.9279430059137826e-02 0.0000000000000000e+00  -2.1111039736761185e-02 -8.7067047318219834e-02 0.0000000000000000e+00  -2.0578489327095949e-02 -8.4856185816024873e-02 0.0000000000000000e+00  -2.0048593245008021e-02 -8.2651547049705024e-02 0.0000000000000000e+00  -1.9519537553001540e-02 -8.0454882756500617e-02 0.0000000000000000e+00  -1.8989822372261635e-02 -7.8260568235236430e-02 0.0000000000000000e+00  -1.8464796972315716e-02 -7.6075283284247563e-02 0.0000000000000000e+00  -1.7941095696187691e-02 -7.3900892622511496e-02 0.0000000000000000e+00  -1.7416718172508217e-02 -7.1729678668541685e-02 0.0000000000000000e+00  -1.6899160886428045e-02 -6.9570768253698179e-02 0.0000000000000000e+00  -1.6383611918794311e-02 -6.7426182757459902e-02 0.0000000000000000e+00  -1.5867406390358461e-02 -6.5285657792071738e-02 0.0000000000000000e+00  -1.5360394688283961e-02 -6.3160981181523343e-02 0.0000000000000000e+00  -1.4856114648879209e-02 -6.1054678109861274e-02 0.0000000000000000e+00  -1.4352177039200527e-02 -5.8955152727238454e-02 0.0000000000000000e+00  -1.3856590354397276e-02 -5.6873028851163826e-02 0.0000000000000000e+00  -1.3365975665220629e-02 -5.4814223129869583e-02 0.0000000000000000e+00  -1.2876241909645019e-02 -5.2759905204613780e-02 0.0000000000000000e+00  -1.2401379742439815e-02 -5.0728730581012051e-02 0.0000000000000000e+00  -1.1929063283754496e-02 -4.8727845307218597e-02 0.0000000000000000e+00  -1.1456525609612911e-02 -4.6734044248158330e-02 0.0000000000000000e+00  -1.0997567281904123e-02 -4.4769891039804624e-02 0.0000000000000000e+00  -1.0545834506993659e-02 -4.2820511985894739e-02 0.0000000000000000e+00  -1.0101553227709538e-02 -4.0897231456278473e-02 0.0000000000000000e+00  -9.6700311030994707e-03 -3.9005331195239856e-02 0.0000000000000000e+00  -9.2367887918972102e-03 -3.7132735065151738e-02 0.0000000000000000e+00  -8.8182813241194924e-03 -3.5291550634678773e-02 0.0000000000000000e+00  -8.4031068238813109e-03 -3.3479004713119292e-02 0.0000000000000000e+00  -7.9951818594391662e-03 -3.1699546416190591e-02 0.0000000000000000e+00  -7.5997180547134517e-03 -2.9954079409691279e-02 0.0000000000000000e+00  -7.2191562493162222e-03 -2.8232809280913720e-02 0.0000000000000000e+00  -6.8509749991985175e-03 -2.6550368030559053e-02 0.0000000000000000e+00  -6.4738610568450226e-03 -2.4900432470115846e-02 0.0000000000000000e+00  -6.1236211046350863e-03 -2.3290927216896809e-02 0.0000000000000000e+00  -5.7697304002102320e-03 -2.1729297722371074e-02 0.0000000000000000e+00  -5.4377542906828523e-03 -2.0196892459902617e-02 0.0000000000000000e+00  -5.1130951279439790e-03 -1.8717904814183672e-02 0.0000000000000000e+00  -4.8043987455347681e-03 -1.7269069978441198e-02 0.0000000000000000e+00  -4.5095294081195034e-03 -1.5871509368661149e-02 0.0000000000000000e+00  -4.2010644390300450e-03 -1.4514055559725087e-02 0.0000000000000000e+00  -3.9239406533460785e-03 -1.3207115421992070e-02 0.0000000000000000e+00  -3.6373447995105101e-03 -1.1961883733450820e-02 0.0000000000000000e+00  -3.3835214804800798e-03 -1.0757461551347365e-02 0.0000000000000000e+00  -3.1354496209924964e-03 -9.6304048080506684e-03 0.0000000000000000e+00  -2.8838086688184297e-03 -8.5208832829092168e-03 0.0000000000000000e+00  -2.6563452137560229e-03 -7.4931955140475183e-03 0.0000000000000000e+00  -2.4090091271612964e-03 -6.5232327445224501e-03 0.0000000000000000e+00  -2.1963538878608485e-03 -5.6062582410117429e-03 0.0000000000000000e+00  -1.9865826446767137e-03 -4.7716889861854975e-03 0.0000000000000000e+00  -1.7894643285955750e-03 -3.9817908064539963e-03 0.0000000000000000e+00  -1.6029643483916908e-03 -3.2708955691815407e-03 0.0000000000000000e+00  -1.3964437301001557e-03 -2.6149088490030588e-03 0.0000000000000000e+00  -1.2252302588868285e-03 -2.0306481233342980e-03 0.0000000000000000e+00  -1.0295104072420467e-03 -1.5201881910300750e-03 0.0000000000000000e+00  -8.6092863625912011e-04 -1.0958234377083415e-03 0.0000000000000000e+00  -6.7120926482689650e-04 -7.4599452211185119e-04 0.0000000000000000e+00  -5.0037487656642257e-04 -4.5103071014834795e-04 0.0000000000000000e+00  -3.3322482584726375e-04 -2.4510599398048843e-04 0.0000000000000000e+00  -1.6533843878057132e-04 -1.4039781933776455e-04 0.0000000000000000e+00  -2.5779284358492475e-02 -1.1654023138782438e-01 0.0000000000000000e+00  -2.1268140103139453e-02 -1.1761556003391659e-01 0.0000000000000000e+00  1.5414377573148269e-05 -1.3471866477768755e-04 0.0000000000000000e+00  -1.7420517859519334e-02 -9.1447039338017289e-02 0.0000000000000000e+00  -2.0121001145360383e-02 -1.0274439536608850e-01 0.0000000000000000e+00  1.5600974640468873e-05 -1.3523436644203614e-03 0.0000000000000000e+00  -1.4376680244850894e-02 -7.8344223185509793e-02 0.0000000000000000e+00  -1.5929317849593515e-02 -8.4951901152121118e-02 0.0000000000000000e+00  -2.8184591343394114e-04 -3.4076629765970616e-03 0.0000000000000000e+00  -2.1877240261959176e-02 -1.0925805528579474e-01 0.0000000000000000e+00  -4.0986605262247034e-04 -6.0761817385652402e-03 0.0000000000000000e+00  -8.7095440468933408e-04 -1.1990454630222488e-02 0.0000000000000000e+00  -1.2853978235371504e-02 -7.1797338691698770e-02 0.0000000000000000e+00  -1.7595505871090429e-03 -1.6927481920356455e-02 0.0000000000000000e+00  -1.1371633119357103e-02 -6.5333216048817561e-02 0.0000000000000000e+00  -2.4794560941689817e-03 -2.1596286108878520e-02 0.0000000000000000e+00  -3.5680705764225586e-03 -2.7955681966997960e-02 0.0000000000000000e+00  -1.0057742111745187e-02 -5.8785111208150449e-02 0.0000000000000000e+00  -8.4998864161131699e-03 -5.2614637651174662e-02 0.0000000000000000e+00  -4.4778784147698298e-03 -3.3102096189872574e-02 0.0000000000000000e+00  -5.6178448602119766e-03 -3.8784462282469803e-02 0.0000000000000000e+00  -7.1599471283812378e-03 -4.6302267082783524e-02 0.0000000000000000e+00  -6.0429644834768216e-04 -8.0514561760343141e-03 0.0000000000000000e+00  -1.9055689522113419e-02 -9.8312574085300405e-02 0.0000000000000000e+00  -6.3398781785721052e-03 -4.2074236640998637e-02 0.0000000000000000e+00  -1.3803414726971637e-03 -1.4534727478318467e-02 0.0000000000000000e+00  -3.0128384024053108e-03 -2.5065406446117086e-02 0.0000000000000000e+00  -1.0929635970868453e-04 -2.3119388907020025e-03 0.0000000000000000e+00  -2.3360534818154338e-02 -1.1288379274050742e-01 0.0000000000000000e+00  8.0031211152659627e-05 -5.9972105808771227e-04 0.0000000000000000e+00  -8.2336987274091288e-03 -5.5910986912031953e-02 0.0000000000000000e+00  -1.1051101242205735e-02 -6.8628661911447661e-02 0.0000000000000000e+00  -1.2540332547988385e-02 -7.5141176073176399e-02 0.0000000000000000e+00  -4.8379180955586314e-03 -3.0412936063659305e-02 0.0000000000000000e+00  -9.6114315492935431e-03 -6.2209636678436507e-02 0.0000000000000000e+00  -1.4068385210085877e-02 -8.1724097606547294e-02 0.0000000000000000e+00  -6.9305412220870026e-03 -4.9759431687612404e-02 0.0000000000000000e+00  -1.5625025656971547e-02 -8.8357138803746280e-02 0.0000000000000000e+00  -5.9061345507325390e-03 -3.5818383057025151e-02 0.0000000000000000e+00  -2.7686457599305956e-03 -1.9016633630506544e-02 0.0000000000000000e+00  -6.6835402257103425e-04 -4.7968394027959509e-03 0.0000000000000000e+00  -2.1879172493538719e-02 -1.0568246322614418e-01 0.0000000000000000e+00  -1.9491423880909700e-02 -9.4429663593068827e-02 0.0000000000000000e+00  -1.5481419314884644e-04 -9.9133771843673210e-03 0.0000000000000000e+00  -1.6258320102806610e-02 -9.4227166657620501e-02 0.0000000000000000e+00  -1.7733012209095584e-03 -1.0219387625711354e-02 0.0000000000000000e+00  -1.8599596343331446e-02 -8.8691706449301494e-02 0.0000000000000000e+00  -1.7021743050510265e-02 -8.2061633423776856e-02 0.0000000000000000e+00  -1.5463729936906052e-02 -7.5482630043876953e-02 0.0000000000000000e+00  -1.9353308083035561e-02 -1.0732886219523260e-01 0.0000000000000000e+00  3.6919760745515100e-04 -4.5226110514488818e-03 0.0000000000000000e+00  -1.2442833108170882e-02 -6.2562163904888252e-02 0.0000000000000000e+00  -1.3934109948580195e-02 -6.8974998782563926e-02 0.0000000000000000e+00  -2.5369290475586036e-03 -3.0034029115308739e-02 0.0000000000000000e+00  -8.4094020596769633e-04 -1.8643738719429533e-02 0.0000000000000000e+00  -1.0589784699350154e-02 -5.4437513351821926e-02 0.0000000000000000e+00  -9.6169617193783453e-03 -5.0125829660219341e-02 0.0000000000000000e+00  -3.4724097473569438e-03 -3.5442153238717820e-02 0.0000000000000000e+00  -7.3170818227452202e-05 -5.7200995114283254e-05 0.0000000000000000e+00  5.1949213340654747e-05 -4.4167715538919334e-05 0.0000000000000000e+00  -5.3373508274235622e-03 -4.5058666650801202e-02 0.0000000000000000e+00  -3.9048963893403036e-03 -2.2651688424603331e-02 0.0000000000000000e+00  -2.2194063363628522e-03 -1.2769811865028433e-02 0.0000000000000000e+00  -4.9056767271377197e-04 -1.7392051966001094e-03 0.0000000000000000e+00  -6.6644639921106363e-04 -2.9428795942674940e-03 0.0000000000000000e+00  -4.4905724076890743e-03 -4.1076837966449939e-02 0.0000000000000000e+00  -2.6410954057920918e-03 -1.5319626813426175e-02 0.0000000000000000e+00  -4.5891293256960491e-03 -2.5973817239376650e-02 0.0000000000000000e+00  -1.3027042288066874e-03 -7.2337749972633458e-03 0.0000000000000000e+00  -1.7751302240319577e-02 -1.0040915015927744e-01 0.0000000000000000e+00  -2.1252064345294013e-02 -9.9712565756037111e-02 0.0000000000000000e+00  2.4941061809505977e-04 -7.3115358909089751e-03 0.0000000000000000e+00  -3.3637111975941253e-04 -8.2669293329430574e-04 0.0000000000000000e+00  -2.0027603955540780e-02 -1.1185622889550545e-01 0.0000000000000000e+00  -8.6192853978462811e-03 -4.4327489821811970e-02 0.0000000000000000e+00  -7.5816630277982392e-03 -4.0313266315354528e-02 0.0000000000000000e+00  4.4542833771182475e-05 -1.2977684373275376e-02 0.0000000000000000e+00  4.1864668851103248e-04 -1.7502935856444990e-03 0.0000000000000000e+00  4.9023604062045341e-04 -3.0508598310514637e-03 0.0000000000000000e+00  -1.2443673030871499e-03 -2.3141071797282815e-02 0.0000000000000000e+00  -1.1666951670909943e-04 -1.5625301080470347e-02 0.0000000000000000e+00  -1.5119048709574384e-03 -2.6435672169643484e-02 0.0000000000000000e+00  -2.0921623050014165e-04 -4.3109135077326610e-04 0.0000000000000000e+00  -2.1090155659978318e-02 -1.1495204412744740e-01 0.0000000000000000e+00  -1.8194068332585966e-02 -8.6033004675033803e-02 0.0000000000000000e+00  -1.6622131360566263e-02 -7.9421644439031880e-02 0.0000000000000000e+00  4.1494258417181640e-04 -5.5410465548874606e-03 0.0000000000000000e+00  -1.5072512238084456e-02 -7.2869250858417556e-02 0.0000000000000000e+00  -1.8516321719453683e-02 -1.0475748066847936e-01 0.0000000000000000e+00  -1.3554397851573174e-02 -6.6397409326514667e-02 0.0000000000000000e+00  -1.2083595844779457e-02 -6.0048511746209204e-02 0.0000000000000000e+00  -9.3375609836937471e-04 -2.0446495387966040e-02 0.0000000000000000e+00  -1.1339391635520151e-02 -5.6813602501064042e-02 0.0000000000000000e+00  -2.7246281493895110e-03 -3.2155439767860075e-02 0.0000000000000000e+00  -9.2975704710022370e-03 -4.7717926393181169e-02 0.0000000000000000e+00  -3.6944442214519270e-03 -3.7672988654443372e-02 0.0000000000000000e+00  -2.4015424040270583e-02 -1.1052620330829475e-01 0.0000000000000000e+00  -1.6603506221803420e-02 -9.6875585511119217e-02 0.0000000000000000e+00  -1.6987668161404363e-03 -8.8912718439976366e-03 0.0000000000000000e+00  3.3901665199572296e-04 -9.1445812880900843e-04 0.0000000000000000e+00  1.8239617140384016e-04 -3.4741961770348262e-04 0.0000000000000000e+00  -6.8111501600307727e-03 -5.4131192021229096e-02 0.0000000000000000e+00  -7.1099324058204938e-03 -3.7400516097286847e-02 0.0000000000000000e+00  -8.1416422072332194e-03 -6.0395631298651310e-02 0.0000000000000000e+00  -1.2549125214372464e-02 -7.9830378698528326e-02 0.0000000000000000e+00  -9.5837260338255906e-03 -6.6771510405714746e-02 0.0000000000000000e+00  -1.1043523802481541e-02 -7.3262917944907829e-02 0.0000000000000000e+00  -5.7669549255933740e-03 -3.2088384469262855e-02 0.0000000000000000e+00  -5.6370698994029486e-03 -4.8051796068594443e-02 0.0000000000000000e+00  -3.6881717803701778e-03 -2.0345111249170860e-02 0.0000000000000000e+00  -5.3517680858831450e-03 -2.8591886319786090e-02 0.0000000000000000e+00  -1.5054384026072757e-02 -9.0757410241432718e-02 0.0000000000000000e+00  -3.2315498975565801e-03 -1.7506197451124701e-02 0.0000000000000000e+00  -1.4382299129070316e-02 -8.6296422010570514e-02 0.0000000000000000e+00  -1.1674322569143266e-03 -5.5759018485346439e-03 0.0000000000000000e+00  -9.5126767322443681e-04 -4.0012527364344337e-03 0.0000000000000000e+00  -2.3346467938586388e-02 -1.0742663164320171e-01 0.0000000000000000e+00  -2.2448314171305567e-02 -1.0326899769936476e-01 0.0000000000000000e+00  -1.2488906741964621e-02 -7.7568026435914400e-02 0.0000000000000000e+00  -1.0991602160284239e-02 -7.1025184892102314e-02 0.0000000000000000e+00  -8.0268331452340198e-03 -5.8167220832867829e-02 0.0000000000000000e+00  -1.3902262780883657e-02 -8.4131182674950636e-02 0.0000000000000000e+00  -9.5422305874988279e-03 -6.4566653951661016e-02 0.0000000000000000e+00  -6.6799439832269563e-03 -5.1968233652616214e-02 0.0000000000000000e+00  -6.1014836962269359e-03 -3.3846603914011113e-02 0.0000000000000000e+00  3.3641581629131916e-04 -8.8926966710966299e-03 0.0000000000000000e+00  -2.0819232150856154e-02 -9.6353534701456633e-02 0.0000000000000000e+00  -1.9745807915737573e-02 -9.2144738810573779e-02 0.0000000000000000e+