<?xml version="1.0"?>
<VTKFile type="UnstructuredGrid"  version="0.1"  >
<UnstructuredGrid>
<Piece  NumberOfPoints="439" NumberOfCells="725">
<Points>
<DataArray  type="Float64"  NumberOfComponents="3"  format="ascii">0.6 0.19 0  0.6 0.21 0  0.2489897949 0.21 0  0.2489897949 0.19 0  0.6 0.2 0  0.2496355385699469 0.2060260530378829 0  0.249959460510575 0.2020130349814059 0  0.2499594605105767 0.1979869650186357 0  0.24963553856995 0.1939739469621422 0  0.2539336006056293 0.21 0  0.2588774063112542 0.21 0  0.2638212120168921 0.21 0  0.26876501772253 0.21 0  0.2737088234281569 0.21 0  0.2786526291337753 0.21 0  0.2835964348393937 0.21 0  0.2885402405450166 0.21 0  0.2934840462506522 0.21 0  0.2984278519562708 0.21 0  0.3033716576618997 0.21 0  0.3083154633675181 0.21 0  0.3132592690731365 0.21 0  0.3182030747787549 0.21 0  0.3231468804843732 0.21 0  0.3280906861899917 0.21 0  0.3330344918956208 0.21 0  0.3379782976012284 0.21 0  0.3429221033068576 0.21 0  0.347865909012476 0.21 0  0.3528097147180944 0.21 0  0.3577535204237128 0.21 0  0.3626973261293311 0.21 0  0.3676411318349495 0.21 0  0.3725849375405788 0.21 0  0.3775287432461877 0.21 0  0.382472548951812 0.21 0  0.3874163546574338 0.21 0  0.3923601603630631 0.21 0  0.3973039660686706 0.21 0  0.4022477717742986 0.21 0  0.4071915774799107 0.21 0  0.4121353831855311 0.21 0  0.4170791888911518 0.21 0  0.4220229945967636 0.21 0  0.4269668003023918 0.21 0  0.4319106060080253 0.21 0  0.4368544117136773 0.21 0  0.4417982174193329 0.21 0  0.4467420231249967 0.21 0  0.4516858288306445 0.21 0  0.4566296345362864 0.21 0  0.461573440241916 0.21 0  0.4665172459475665 0.21 0  0.4714610516531998 0.21 0  0.4764048573588668 0.21 0  0.4813486630645134 0.21 0  0.486292468770176 0.21 0  0.4912362744758066 0.21 0  0.4961800801814611 0.21 0  0.5011238858870897 0.21 0  0.5060676915927493 0.21 0  0.5110114972983872 0.21 0  0.5159553030040036 0.21 0  0.5208991087096415 0.21 0  0.5258429144153002 0.21 0  0.5307867201209391 0.21 0  0.5357305258265987 0.21 0  0.5406743315322367 0.21 0  0.5456181372378529 0.21 0  0.5505619429434908 0.21 0  0.5555057486491456 0.21 0  0.5604495543547885 0.21 0  0.565393360060448 0.21 0  0.5703371657661116 0.21 0  0.5752809714717458 0.21 0  0.5802247771773834 0.21 0  0.5851685828830341 0.21 0  0.5901123885886809 0.21 0  0.5950561942943404 0.21 0  0.5950561942943833 0.19 0  0.590112388588758 0.19 0  0.5851685828831193 0.19 0  0.5802247771774727 0.19 0  0.5752809714718514 0.19 0  0.5703371657662308 0.19 0  0.565393360060618 0.19 0  0.5604495543549889 0.19 0  0.5555057486493581 0.19 0  0.5505619429437035 0.19 0  0.5456181372381043 0.19 0  0.540674331532505 0.19 0  0.5357305258268962 0.19 0  0.530786720121263 0.19 0  0.5258429144156628 0.19 0  0.5208991087100244 0.19 0  0.5159553030044218 0.19 0  0.5110114972988226 0.19 0  0.5060676915932177 0.19 0  0.5011238858875806 0.19 0  0.496180080181972 0.19 0  0.4912362744763531 0.19 0  0.4862924687707343 0.19 0  0.4813486630651046 0.19 0  0.4764048573594966 0.19 0  0.4714610516538683 0.19 0  0.4665172459482555 0.19 0  0.4615734402426349 0.19 0  0.4566296345370104 0.19 0  0.4516858288313808 0.19 0  0.4467420231257716 0.19 0  0.4417982174201465 0.19 0  0.4368544117145297 0.19 0  0.4319106060089131 0.19 0  0.4269668003032866 0.19 0  0.4220229945976482 0.19 0  0.4170791888920056 0.19 0  0.4121353831863594 0.19 0  0.4071915774806995 0.19 0  0.4022477717750478 0.19 0  0.3973039660693901 0.19 0  0.3923601603637548 0.19 0  0.3874163546581082 0.19 0  0.3824725489524824 0.19 0  0.3775287432468258 0.19 0  0.3725849375411773 0.19 0  0.3676411318355085 0.19 0  0.3626973261298614 0.19 0  0.3577535204242108 0.19 0  0.352809714718589 0.19 0  0.347865909012931 0.19 0  0.342922103307292 0.19 0  0.3379782976016536 0.19 0  0.3330344918960152 0.19 0  0.3280906861903751 0.19 0  0.3231468804847171 0.19 0  0.3182030747790592 0.19 0  0.3132592690734012 0.19 0  0.3083154633677581 0.19 0  0.3033716576621197 0.19 0  0.2984278519564813 0.19 0  0.2934840462508429 0.19 0  0.2885402405451874 0.19 0  0.2835964348395295 0.19 0  0.2786526291338716 0.19 0  0.2737088234282243 0.19 0  0.268765017722586 0.19 0  0.2638212120169476 0.19 0  0.2588774063113093 0.19 0  0.2539336006056579 0.19 0  0.6 0.1949999999999783 0  0.6 0.2049999999999729 0  0.2589734265316493 0.2005523893428403 0  0.5431462343853077 0.199999999999969 0  0.5682397894768162 0.1999704585808987 0  0.2774513927118024 0.2007941919421926 0  0.513849583376897 0.1999023426490919 0  0.5286810004937381 0.1999023426490969 0  0.2945108952057646 0.1992911908405386 0  0.5827780831384927 0.1995429801003349 0  0.3104128396569256 0.1999704585808978 0  0.3370001755418551 0.2008294612433967 0  0.4990181662600459 0.1999023426490902 0  0.3552816175709044 0.2000000000000608 0  0.4841867491431925 0.1999023426490849 0  0.3707373713905551 0.2000142376953689 0  0.3898882575102495 0.2000000000000828 0  0.4689857550492734 0.1995416724256694 0  0.4541577316841967 0.1999999999999098 0  0.4043534914018331 0.2000976573509244 0  0.4195510917439569 0.2000000000001057 0  0.4387019778644512 0.1999857623046772 0  0.3202472750256703 0.2000088842146399 0  0.5584053541080851 0.1999911157853577 0  0.4280667146887134 0.1998489048208241 0  0.3467659946265474 0.2001510951794375 0  0.3813726345658908 0.200151095179452 0  0.2860683376922098 0.2000415445706182 0  0.5911223811781194 0.1982449159348744 0  0.2679893161458627 0.201675125646729 0  0.4615734402426278 0.2022503633288003 0  0.4912362744763454 0.2022503633288091 0  0.5060676915931983 0.2022503633288118 0  0.3973039660686774 0.1977496366711965 0  0.4764048573594896 0.2022503633288051 0  0.5208991087100455 0.2022503633288184 0  0.4467420231257656 0.2022503633288 0  0.5357305258268849 0.2022503633288198 0  0.4121353831855317 0.1977496366711976 0  0.3626973261293352 0.1977496366711919 0  0.3033716576618961 0.1977496366711869 0  0.5752809714718229 0.1977496366711503 0  0.550459855919056 0.1971284784737667 0  0.3281927732146841 0.2028715215262406 0  0.5484179020497461 0.2038403215694763 0  0.3302347270839988 0.1961596784305491 0  0.5379210852238114 0.196125181664411 0  0.5230896681069652 0.1961251816644058 0  0.5082582509901222 0.1961251816644098 0  0.5774715308687094 0.2038748183355887 0  0.3011810982649548 0.2038748183355937 0  0.4785954167564111 0.196125181664404 0  0.4934268338732671 0.1961251816644063 0  0.395113406671763 0.2038748183355966 0  0.3605067667324117 0.2038748183355951 0  0.4593828808457146 0.1961251816643993 0  0.4489325825226805 0.1961251816644007 0  0.4099448237886219 0.2038748183355991 0  0.2557862999801971 0.1960858370257295 0  0.2550147360309399 0.2034426429991114 0  0.4348031476464689 0.2037737577641554 0  0.37463620160841 0.1962262422358553 0  0.3406258365864304 0.196046792193989 0  0.2813001681189834 0.1960467921940502 0  0.2912686387439893 0.1960816328649282 0  0.4246705335819892 0.2039532078059544 0  0.350162175732913 0.1960467921941878 0  0.3847688156722694 0.1960467921942359 0  0.316632368538356 0.19615945856337 0  0.5621550011053409 0.2037816492598991 0  0.5624413877019769 0.1960761923611377 0  0.3162395035833128 0.2038679557424692 0  0.2710887134207622 0.1959696443325838 0  0.5873014376403604 0.2047227881030823 0  0.4346679566442709 0.1954651459552513 0  0.4243296504077986 0.1958756980939062 0  0.3402559510833523 0.2047940500290923 0  0.2808684926760933 0.2047742417812656 0  0.2914077033138723 0.2047809517070955 0  0.3747713926104932 0.2045348540448554 0  0.3499216488898867 0.2051753413186305 0  0.3845282888292298 0.205175341318636 0  0.2648144865455052 0.1962089742986374 0  0.5943247643662894 0.2040415423589182 0  0.5320972610456145 0.1956445099050872 0  0.5172658439287727 0.1956445099050854 0  0.3069923255602658 0.2043468033872551 0  0.5024344268119265 0.1956445099050864 0  0.5716603035734351 0.2043468033872761 0  0.4876030096950741 0.1956445099050831 0  0.4728151975296263 0.1956402468909894 0  0.3663301776527538 0.20436745486386 0  0.4651631000724991 0.1956402468909893 0  0.4009372308499527 0.2043554900949198 0  0.4431091716023345 0.1956325451361429 0  0.4157593408842466 0.2043565497109067 0  0.5865057328865416 0.1956918868509067 0  0.5541600609760193 0.2044335994013721 0  0.3244925681577497 0.1955664005986376 0  0.272008018888917 0.2049327968152409 0  0.2633407725863902 0.2042483236346266 0  0.4567948413982566 0.2046536472831198 0  0.4167680012832803 0.1955060004091903 0  0.4716262585151221 0.2046536472831242 0  0.5161054367030595 0.2045563706470633 0  0.4864426024693469 0.2045563706470604 0  0.5012740195862044 0.2045563706470634 0  0.4022810343427545 0.1961423961483001 0  0.4420739040821668 0.2044853411424516 0  0.3673807293464664 0.1955677741328205 0  0.3925253672243162 0.195346352716901 0  0.5405091246712254 0.2046536472831267 0  0.357918727284983 0.1953463527168901 0  0.5307534575528717 0.2038576038516682 0  0.3079697655029555 0.1955637092892754 0  0.2985930588175599 0.1953463527168728 0  0.579671714346879 0.1955441268455555 0  0.5705023726275059 0.1953463527168462 0  0.5112451461103119 0.2035640580783926 0  0.4964137289934448 0.2035640580783915 0  0.4665727251511405 0.2038238154617746 0  0.5259274680675793 0.2038006696000127 0  0.4815823118765752 0.2035640580783898 0  0.4517504165552094 0.2039070625502732 0  0.4071070238280551 0.1961993303999926 0  0.3234846806957546 0.2047001437739977 0  0.5551679484379799 0.1952998562260008 0  0.5457754356464107 0.1954447171286166 0  0.3329307555206357 0.2046017509710421 0  0.4541577316841968 0.1960357661898101 0  0.3358300776141575 0.1950765652117375 0  0.2539718587514912 0.200011552766824 0  0.5826472073721517 0.2039971170156656 0  0.2761021761080182 0.1946948236183283 0  0.3898581462796225 0.2041572776584344 0  0.3552515063402743 0.2041572776584256 0  0.2965028074750666 0.2046578268138723 0  0.4299158836614793 0.1951782397873778 0  0.379426563923736 0.2049969334481307 0  0.2860882692072842 0.2042624797643994 0  0.3449948044168807 0.2051793676155613 0  0.2603922435707652 0.1950997711614917 0  0.5949856943860
[...]
<PointData  Vectors="f_18-1"> 
<DataArray  type="Float64"  Name="f_18-1"  NumberOfComponents="3" format="ascii">-1.4649361705388391e-02 -8.1904376671489074e-02 0.0000000000000000e+00  -8.2188702141013127e-03 -8.2967050187504998e-02 0.0000000000000000e+00  0.0000000000000000e+00 0.0000000000000000e+00 0.0000000000000000e+00  0.0000000000000000e+00 0.0000000000000000e+00 0.0000000000000000e+00  -1.1433948020140415e-02 -8.2435785426752256e-02 0.0000000000000000e+00  0.0000000000000000e+00 0.0000000000000000e+00 0.0000000000000000e+00  0.0000000000000000e+00 0.0000000000000000e+00 0.0000000000000000e+00  0.0000000000000000e+00 0.0000000000000000e+00 0.0000000000000000e+00  0.0000000000000000e+00 0.0000000000000000e+00 0.0000000000000000e+00  1.0709636922817708e-04 -9.3684530179189091e-05 0.0000000000000000e+00  2.2422948737951256e-04 -1.9616125316190592e-04 0.0000000000000000e+00  3.3961125359844294e-04 -3.2683075671192686e-04 0.0000000000000000e+00  4.4692911773419424e-04 -5.4389579686272324e-04 0.0000000000000000e+00  5.4671274328295394e-04 -8.0759433007211755e-04 0.0000000000000000e+00  6.4809267232680790e-04 -1.1373760832179686e-03 0.0000000000000000e+00  7.3650481262551074e-04 -1.5013240916399815e-03 0.0000000000000000e+00  8.1153784634425909e-04 -1.9256618431744621e-03 0.0000000000000000e+00  8.8431363242862592e-04 -2.3977773868133581e-03 0.0000000000000000e+00  9.4688837501746967e-04 -2.9176777554056656e-03 0.0000000000000000e+00  1.0092362999783574e-03 -3.5021867307551747e-03 0.0000000000000000e+00  1.0698100828489311e-03 -4.0972016808281777e-03 0.0000000000000000e+00  1.1085681457424982e-03 -4.7641055340196430e-03 0.0000000000000000e+00  1.1578189575396976e-03 -5.4706319427233014e-03 0.0000000000000000e+00  1.1824417845099134e-03 -6.2117903179633753e-03 0.0000000000000000e+00  1.2037482163280001e-03 -7.0052298802012001e-03 0.0000000000000000e+00  1.2154455815918139e-03 -7.8282973570206488e-03 0.0000000000000000e+00  1.2157713752451618e-03 -8.7016856137282078e-03 0.0000000000000000e+00  1.2050143823834852e-03 -9.5954912902303947e-03 0.0000000000000000e+00  1.1863460899891249e-03 -1.0532370624830522e-02 0.0000000000000000e+00  1.1574566480417857e-03 -1.1498825327464154e-02 0.0000000000000000e+00  1.1176728916533840e-03 -1.2494781649852450e-02 0.0000000000000000e+00  1.0744685069212026e-03 -1.3540065285327396e-02 0.0000000000000000e+00  1.0300170792872862e-03 -1.4592821296642187e-02 0.0000000000000000e+00  9.6946371956480428e-04 -1.5689632688004652e-02 0.0000000000000000e+00  8.9984202810729642e-04 -1.6805136796151719e-02 0.0000000000000000e+00  8.2214467607226633e-04 -1.7954419910369845e-02 0.0000000000000000e+00  7.3547351273016968e-04 -1.9128087622586984e-02 0.0000000000000000e+00  6.3818674580498993e-04 -2.0324942042360742e-02 0.0000000000000000e+00  5.3590815001784307e-04 -2.1560436142350023e-02 0.0000000000000000e+00  4.3229428522570011e-04 -2.2799694888496803e-02 0.0000000000000000e+00  3.1054161823814081e-04 -2.4071722095958540e-02 0.0000000000000000e+00  1.8374811888895179e-04 -2.5370517876208965e-02 0.0000000000000000e+00  5.4769936027913575e-05 -2.6675491039796179e-02 0.0000000000000000e+00  -8.9513269919560412e-05 -2.8009631180057653e-02 0.0000000000000000e+00  -2.3251347075401287e-04 -2.9359131410124344e-02 0.0000000000000000e+00  -3.8884365844199585e-04 -3.0726000350592520e-02 0.0000000000000000e+00  -5.4591409578281320e-04 -3.2113942108324363e-02 0.0000000000000000e+00  -7.1353110783036009e-04 -3.3513508465232197e-02 0.0000000000000000e+00  -8.8810801289229734e-04 -3.4931684698093650e-02 0.0000000000000000e+00  -1.0658183169046330e-03 -3.6363564782593803e-02 0.0000000000000000e+00  -1.2486170323010015e-03 -3.7811126025699825e-02 0.0000000000000000e+00  -1.4404784653406369e-03 -3.9272436363361696e-02 0.0000000000000000e+00  -1.6352041148294742e-03 -4.0745962887070331e-02 0.0000000000000000e+00  -1.8353379610626119e-03 -4.2233167818970886e-02 0.0000000000000000e+00  -2.0435537345095929e-03 -4.3731719638488591e-02 0.0000000000000000e+00  -2.2551860199145003e-03 -4.5239748186739488e-02 0.0000000000000000e+00  -2.4716341243821004e-03 -4.6758509998505025e-02 0.0000000000000000e+00  -2.6943717329264969e-03 -4.8285061440373103e-02 0.0000000000000000e+00  -2.9199213185379103e-03 -4.9818649548742953e-02 0.0000000000000000e+00  -3.1491226162242382e-03 -5.1360257170559247e-02 0.0000000000000000e+00  -3.3830602166303818e-03 -5.2907693531554438e-02 0.0000000000000000e+00  -3.6190194779721291e-03 -5.4460718722858396e-02 0.0000000000000000e+00  -3.8576466091132808e-03 -5.6020221969357333e-02 0.0000000000000000e+00  -4.1000111808118366e-03 -5.7584595677545224e-02 0.0000000000000000e+00  -4.3438025361549927e-03 -5.9154022697930145e-02 0.0000000000000000e+00  -4.5899489561214615e-03 -6.0728734007084055e-02 0.0000000000000000e+00  -4.8389400474589265e-03 -6.2307680304729496e-02 0.0000000000000000e+00  -5.0906139687549191e-03 -6.3889797640994714e-02 0.0000000000000000e+00  -5.3451683602550246e-03 -6.5475671490295623e-02 0.0000000000000000e+00  -5.6016520736346534e-03 -6.7064485830381701e-02 0.0000000000000000e+00  -5.8589719813943236e-03 -6.8653504786435893e-02 0.0000000000000000e+00  -6.1189655277607271e-03 -7.0244634991022348e-02 0.0000000000000000e+00  -6.3797542157294348e-03 -7.1836015445356602e-02 0.0000000000000000e+00  -6.6416934704279056e-03 -7.3427238847202855e-02 0.0000000000000000e+00  -6.9044292870095699e-03 -7.5018026840568103e-02 0.0000000000000000e+00  -7.1674056334345799e-03 -7.6608573085989062e-02 0.0000000000000000e+00  -7.4303703878233060e-03 -7.8198458013130412e-02 0.0000000000000000e+00  -7.6933095574817940e-03 -7.9787929000774402e-02 0.0000000000000000e+00  -7.9562069253414549e-03 -8.1377492493201309e-02 0.0000000000000000e+00  -1.4386791303133832e-02 -8.0314824139501764e-02 0.0000000000000000e+00  -1.4124210898559400e-02 -7.8725300383037503e-02 0.0000000000000000e+00  -1.3861584594221718e-02 -7.7135629556125601e-02 0.0000000000000000e+00  -1.3598903388127439e-02 -7.5545637895049658e-02 0.0000000000000000e+00  -1.3336067621838579e-02 -7.3955354477216087e-02 0.0000000000000000e+00  -1.3072829102217862e-02 -7.2364702781720705e-02 0.0000000000000000e+00  -1.2808973815958550e-02 -7.0774179078902238e-02 0.0000000000000000e+00  -1.2544350024801103e-02 -6.9184170345723217e-02 0.0000000000000000e+00  -1.2279267513125516e-02 -6.7594760270704934e-02 0.0000000000000000e+00  -1.2013474742044405e-02 -6.6007743050299481e-02 0.0000000000000000e+00  -1.1747008066997695e-02 -6.4422409937051256e-02 0.0000000000000000e+00  -1.1481086873960298e-02 -6.2840856199112907e-02 0.0000000000000000e+00  -1.1214898569626564e-02 -6.1264618534814186e-02 0.0000000000000000e+00  -1.0947908083854150e-02 -5.9689934278449451e-02 0.0000000000000000e+00  -1.0683024211940253e-02 -5.8121801937374082e-02 0.0000000000000000e+00  -1.0418354481871932e-02 -5.6560922896821013e-02 0.0000000000000000e+00  -1.0153179948125150e-02 -5.5001893923116593e-02 0.0000000000000000e+00  -9.8914339871003110e-03 -5.3450780165604020e-02 0.0000000000000000e+00  -9.6298896492479497e-03 -5.1907841208286884e-02 0.0000000000000000e+00  -9.3677142593846085e-03 -5.0366998754753818e-02 0.0000000000000000e+00  -9.1095472088662307e-03 -4.8835663818225239e-02 0.0000000000000000e+00  -8.8513820235338048e-03 -4.7314687842849756e-02 0.0000000000000000e+00  -8.5922845364202142e-03 -4.5796534240573332e-02 0.0000000000000000e+00  -8.3381674564533288e-03 -4.4290854725937835e-02 0.0000000000000000e+00  -8.0840573190594650e-03 -4.2799292045452735e-02 0.0000000000000000e+00  -7.8294210305083524e-03 -4.1313004334197621e-02 0.0000000000000000e+00  -7.5792045101057276e-03 -3.9840967406204561e-02 0.0000000000000000e+00  -7.3304744269543885e-03 -3.8387494485373992e-02 0.0000000000000000e+00  -7.0820990914729999e-03 -3.6937709251533814e-02 0.0000000000000000e+00  -6.8429348409428615e-03 -3.5507197064965905e-02 0.0000000000000000e+00  -6.6031246334547584e-03 -3.4099680762767891e-02 0.0000000000000000e+00  -6.3627492910371458e-03 -3.2697312171512963e-02 0.0000000000000000e+00  -6.1300820133204769e-03 -3.1318085453196511e-02 0.0000000000000000e+00  -5.9015776348819013e-03 -2.9949997226892202e-02 0.0000000000000000e+00  -5.6764611701897675e-03 -2.8601219437924378e-02 0.0000000000000000e+00  -5.4578826894458657e-03 -2.7275525912185114e-02 0.0000000000000000e+00  -5.2367055686408275e-03 -2.5963149568607426e-02 0.0000000000000000e+00  -5.0232802766238763e-03 -2.4673811898616897e-02 0.0000000000000000e+00  -4.8099597765916520e-03 -2.3404583705157786e-02 0.0000000000000000e+00  -4.5990937487670452e-03 -2.2158910205767848e-02 0.0000000000000000e+00  -4.3941895321916004e-03 -2.0937839832425267e-02 0.0000000000000000e+00  -4.1977285363337677e-03 -1.9734867622592793e-02 0.0000000000000000e+00  -4.0069209172136095e-03 -1.8559955020088722e-02 0.0000000000000000e+00  -3.8077031524769620e-03 -1.7407191061554948e-02 0.0000000000000000e+00  -3.6242304317431924e-03 -1.6284519770612255e-02 0.0000000000000000e+00  -3.4351885372246637e-03 -1.5194818467313256e-02 0.0000000000000000e+00  -3.2593671499947336e-03 -1.4126912488169701e-02 0.0000000000000000e+00  -3.0852616326327168e-03 -1.3096076489550119e-02 0.0000000000000000e+00  -2.9203310137382562e-03 -1.2086985298399267e-02 0.0000000000000000e+00  -2.7617841411272173e-03 -1.1113547996970634e-02 0.0000000000000000e+00  -2.5919994435360419e-03 -1.0166389902787126e-02 0.0000000000000000e+00  -2.4403988162511230e-03 -9.2550935926533004e-03 0.0000000000000000e+00  -2.2790809277232391e-03 -8.3848410072512175e-03 0.0000000000000000e+00  -2.1374605679489347e-03 -7.5440251410508604e-03 0.0000000000000000e+00  -1.9956436562811914e-03 -6.7560349278355247e-03 0.0000000000000000e+00  -1.8504649987496381e-03 -5.9800941580161124e-03 0.0000000000000000e+00  -1.7175444737337821e-03 -5.2612390654582274e-03 0.0000000000000000e+00  -1.5685867673792533e-03 -4.5814315688268758e-03 0.0000000000000000e+00  -1.4408593142697951e-03 -3.9397728829775490e-03 0.0000000000000000e+00  -1.3118327623955677e-03 -3.3553180281515609e-03 0.0000000000000000e+00  -1.1898713430770231e-03 -2.8025776469374577e-03 0.0000000000000000e+00  -1.0726663441971876e-03 -2.3049330258643583e-03 0.0000000000000000e+00  -9.4032751601389321e-04 -1.8449190636893637e-03 0.0000000000000000e+00  -8.3018044299495617e-04 -1.4355501832619163e-03 0.0000000000000000e+00  -7.0164168204488620e-04 -1.0766850887943978e-03 0.0000000000000000e+00  -5.8980735281289720e-04 -7.7796471736722890e-04 0.0000000000000000e+00  -4.6195451863355997e-04 -5.3065093235398755e-04 0.0000000000000000e+00  -3.4602790093945103e-04 -3.2197847599793378e-04 0.0000000000000000e+00  -2.3140155847440358e-04 -1.7555515286335664e-04 0.0000000000000000e+00  -1.1516732835687141e-04 -9.9760959826241931e-05 0.0000000000000000e+00  -1.3041615941176823e-02 -8.2170040773263148e-02 0.0000000000000000e+00  -9.8264245295334087e-03 -8.2701469379101611e-02 0.0000000000000000e+00  1.1929717413620996e-05 -9.7205572991279331e-05 0.0000000000000000e+00  -8.4148596364629364e-03 -6.4152786912648613e-02 0.0000000000000000e+00  -9.7549717143552029e-03 -7.2218845579147303e-02 0.0000000000000000e+00  2.1945314700732634e-05 -9.4958710055371293e-04 0.0000000000000000e+00  -6.9269738389635769e-03 -5.4834966889612043e-02 0.0000000000000000e+00  -7.6889734129753995e-03 -5.9528075245668263e-02 0.0000000000000000e+00  -1.5689351521640970e-04 -2.3798011842132883e-03 0.0000000000000000e+00  -1.0665867657357124e-02 -7.6874037817323770e-02 0.0000000000000000e+00  -1.9689255919253226e-04 -4.2303376342619353e-03 0.0000000000000000e+00  -3.7266878361044920e-04 -8.3296765221495140e-03 0.0000000000000000e+00  -6.1816842730736433e-03 -5.0193526478924125e-02 0.0000000000000000e+00  -8.3841741759634102e-04 -1.1755098933829672e-02 0.0000000000000000e+00  -5.4573988252373555e-03 -4.5614738863914005e-02 0.0000000000000000e+00  -1.1786792247803501e-03 -1.4988609257756672e-02 0.0000000000000000e+00  -1.6951482569115990e-03 -1.9403497773322148e-02 0.0000000000000000e+00  -4.8508462022133362e-03 -4.0992125443319732e-02 0.0000000000000000e+00  -4.0539221945466650e-03 -3.6635625535204643e-02 0.0000000000000000e+00  -2.1204922381693413e-03 -2.2985065561315098e-02 0.0000000000000000e+00  -2.6720811251324454e-03 -2.6950444035305464e-02 0.0000000000000000e+00  -3.4109478958445623e-03 -3.2206684329509329e-02 0.0000000000000000e+00  -2.8847298251023974e-04 -5.6016739885989984e-03 0.0000000000000000e+00  -9.2250931556986694e-03 -6.9054269382227723e-02 0.0000000000000000e+00  -3.0295936468356576e-03 -2.9251105254385790e-02 0.0000000000000000e+00  -6.5100710383161117e-04 -1.0097386405255504e-02 0.0000000000000000e+00  -1.4213187653265822e-03 -1.7393404134278811e-02 0.0000000000000000e+00  -5.2945412757717378e-05 -1.6176029184938579e-03 0.0000000000000000e+00  -1.1526745512338404e-02 -7.9488182949204123e-02 0.0000000000000000e+00  6.0010412969907263e-05 -4.2373236438559284e-04 0.0000000000000000e+00  -3.7172669934069967e-03 -3.8910386947936908e-02 0.0000000000000000e+00  -5.0767473717506055e-03 -4.7897278387413901e-02 0.0000000000000000e+00  -5.8009066041400260e-03 -5.2511097882448822e-02 0.0000000000000000e+00  -2.4750398797209381e-03 -2.1145514211568201e-02 0.0000000000000000e+00  -4.3795744290658365e-03 -4.3355053466888442e-02 0.0000000000000000e+00  -6.5460862414502960e-03 -5.7180581115492943e-02 0.0000000000000000e+00  -3.0968232555239161e-03 -3.4587520646461888e-02 0.0000000000000000e+00  -7.3085880108837865e-03 -6.1897878008553064e-02 0.0000000000000000e+00  -2.9944816843890539e-03 -2.4916344904725683e-02 0.0000000000000000e+00  -1.4649235515765157e-03 -1.3224403632882537e-02 0.0000000000000000e+00  -4.0037129077985224e-04 -3.3489955399030871e-03 0.0000000000000000e+00  -1.0843670746600568e-02 -7.4366968017020210e-02 0.0000000000000000e+00  -9.7211069223279486e-03 -6.6348668581214118e-02 0.0000000000000000e+00  6.7225206714208773e-05 -6.8776436553884763e-03 0.0000000000000000e+00  -7.4631999145504434e-03 -6.6047220510154450e-02 0.0000000000000000e+00  -1.0419389975126704e-03 -7.1298291994986978e-03 0.0000000000000000e+00  -9.3759631808854032e-03 -6.2278422463330901e-02 0.0000000000000000e+00  -8.5942238226598203e-03 -5.7560358005227047e-02 0.0000000000000000e+00  -7.8248270095968801e-03 -5.2890645979896664e-02 0.0000000000000000e+00  -8.9908714920263859e-03 -7.5397237588360644e-02 0.0000000000000000e+00  3.1305009220831850e-04 -3.1406619025245732e-03 0.0000000000000000e+00  -6.3338421975149290e-03 -4.3734200861826340e-02 0.0000000000000000e+00  -7.0701314614830891e-03 -4.8276803187506392e-02 0.0000000000000000e+00  -9.0442784563083854e-04 -2.0795212964710465e-02 0.0000000000000000e+00  -1.5075004401873834e-04 -1.2905294560311422e-02 0.0000000000000000e+00  -5.4206979999927929e-03 -3.7995922016743296e-02 0.0000000000000000e+00  -4.9404613771811849e-03 -3.4961727314699903e-02 0.0000000000000000e+00  -1.3314536084567674e-03 -2.4557382845966206e-02 0.0000000000000000e+00  -5.0407900709012515e-05 -4.2078871679508765e-05 0.0000000000000000e+00  3.6948583427135629e-05 -3.2495082976907490e-05 0.0000000000000000e+00  -2.2061999730786726e-03 -3.1268225066500670e-02 0.0000000000000000e+00  -2.1219724449811276e-03 -1.5764463908031410e-02 0.0000000000000000e+00  -1.2802124529685166e-03 -8.9046703932180848e-03 0.0000000000000000e+00  -3.2500224567690603e-04 -1.2242008586148857e-03 0.0000000000000000e+00  -4.3037704381422044e-04 -2.0629767734517391e-03 0.0000000000000000e+00  -1.7956348675703950e-03 -2.8484385990924094e-02 0.0000000000000000e+00  -1.4952583391921784e-03 -1.0675351409384576e-02 0.0000000000000000e+00  -2.4726123548981845e-03 -1.8076655936576435e-02 0.0000000000000000e+00  -7.8942127428797341e-04 -5.0510406747236733e-03 0.0000000000000000e+00  -8.2068050646735315e-03 -7.0462319250858677e-02 0.0000000000000000e+00  -1.0697693326727549e-02 -7.0145967661179032e-02 0.0000000000000000e+00  2.8549188169292946e-04 -5.0710998370926338e-03 0.0000000000000000e+00  -2.2779540314164725e-04 -5.8570151692699827e-04 0.0000000000000000e+00  -9.2408379443066971e-03 -7.8603910444735095e-02 0.0000000000000000e+00  -4.5063512394013386e-03 -3.0906395819077531e-02 0.0000000000000000e+00  -3.9624177959403442e-03 -2.8088713149496760e-02 0.0000000000000000e+00  2.8642789376977294e-04 -8.9844705076122192e-03 0.0000000000000000e+00  3.0663213373585484e-04 -1.2215690708237280e-03 0.0000000000000000e+00  3.7316786263406584e-04 -2.1211453193793381e-03 0.0000000000000000e+00  -2.7386343928621304e-04 -1.6007472948714904e-02 0.0000000000000000e+00  2.5271618480508454e-04 -1.0809810049743305e-02 0.0000000000000000e+00  -3.3665035173992139e-04 -1.8281245569328329e-02 0.0000000000000000e+00  -1.4276793180884398e-04 -3.0700484054372532e-04 0.0000000000000000e+00  -9.8331439129151193e-03 -8.0825849684364862e-02 0.0000000000000000e+00  -9.2215477034544632e-03 -6.0395956981162222e-02 0.0000000000000000e+00  -8.4432612609234674e-03 -5.5696562340861767e-02 0.0000000000000000e+00  3.6367682601644205e-04 -3.8440133972783529e-03 0.0000000000000000e+00  -7.6778255143847389e-03 -5.1048382461877748e-02 0.0000000000000000e+00  -8.5301741312553449e-03 -7.3552306053964678e-02 0.0000000000000000e+00  -6.9279294558864200e-03 -4.6460984192459899e-02 0.0000000000000000e+00  -6.2010044726013985e-03 -4.1966617764287222e-02 0.0000000000000000e+00  -1.5430941605026576e-04 -1.4146570827318931e-02 0.0000000000000000e+00  -5.8325101576386087e-03 -3.9681202033891659e-02 0.0000000000000000e+00  -9.4977730065773467e-04 -2.2263526443667844e-02 0.0000000000000000e+00  -4.8267348376747430e-03 -3.3280795703785095e-02 0.0000000000000000e+00  -1.3914984683583392e-03 -2.6104155087441464e-02 0.0000000000000000e+00  -1.2102334487222107e-02 -7.7868069273500359e-02 0.0000000000000000e+00  -7.5750209644552795e-03 -6.7923981315433035e-02 0.0000000000000000e+00  -1.0240651103023751e-03 -6.2087357111268345e-03 0.0000000000000000e+00  2.4303827424762214e-04 -6.4143765798467403e-04 0.0000000000000000e+00  1.2983812138456517e-04 -2.4605830710657054e-04 0.0000000000000000e+00  -2.8129607067365388e-03 -3.7610499610343226e-02 0.0000000000000000e+00  -3.7591835213790933e-03 -2.6058111557495756e-02 0.0000000000000000e+00  -3.4427824408740097e-03 -4.2023562759854693e-02 0.0000000000000000e+00  -5.5776290291920947e-03 -5.5784135726896757e-02 0.0000000000000000e+00  -4.1430364704509812e-03 -4.6532645988188341e-02 0.0000000000000000e+00  -4.8477591657937564e-03 -5.1128886249396654e-02 0.0000000000000000e+00  -3.0492984876518987e-03 -2.2337669082857385e-02 0.0000000000000000e+00  -2.2789910207692333e-03 -3.3349176144576949e-02 0.0000000000000000e+00  -2.0525973029107969e-03 -1.4169242260960748e-02 0.0000000000000000e+00  -2.8990025774033989e-03 -1.9909917910011874e-02 0.0000000000000000e+00  -6.7903779984888534e-03 -6.3552860783567144e-02 0.0000000000000000e+00  -1.8324149094863552e-03 -1.2199733023806742e-02 0.0000000000000000e+00  -6.5402211534776652e-03 -6.0393665853832837e-02 0.0000000000000000e+00  -7.3057019343015291e-04 -3.8986784168179504e-03 0.0000000000000000e+00  -6.1029551506218774e-04 -2.8021979833544081e-03 0.0000000000000000e+00  -1.1786544897227080e-02 -7.5662369835204898e-02 0.0000000000000000e+00  -1.1361915021316423e-02 -7.2701704686575594e-02 0.0000000000000000e+00  -5.6465807418988219e-03 -5.4201880336769113e-02 0.0000000000000000e+00  -4.9198943882663992e-03 -4.9565640759007143e-02 0.0000000000000000e+00  -3.4679819016939966e-03 -4.0468309346670860e-02 0.0000000000000000e+00  -6.3113270616452239e-03 -5.8855124638461973e-02 0.0000000000000000e+00  -4.2194547021290182e-03 -4.4993811539180084e-02 0.0000000000000000e+00  -2.8220039466729644e-03 -3.6105387796830785e-02 0.0000000000000000e+00  -3.2095758909467835e-03 -2.3563985525302332e-02 0.0000000000000000e+00  3.8189436988340182e-04 -6.1610458828845228e-03 0.0000000000000000e+00  -1.0558664577011411e-02 -6.7765420400675652e-02 0.0000000000000000e+00  -1.0011264676924359e-02 -6.4757096352087429e-02 0.0000000000000000e+00  3.104