<?xml version="1.0"?>
<VTKFile type="UnstructuredGrid"  version="0.1"  >
<UnstructuredGrid>
<Piece  NumberOfPoints="439" NumberOfCells="725">
<Points>
<DataArray  type="Float64"  NumberOfComponents="3"  format="ascii">0.6 0.19 0  0.6 0.21 0  0.2489897949 0.21 0  0.2489897949 0.19 0  0.6 0.2 0  0.2496355385699469 0.2060260530378829 0  0.249959460510575 0.2020130349814059 0  0.2499594605105767 0.1979869650186357 0  0.24963553856995 0.1939739469621422 0  0.2539336006056293 0.21 0  0.2588774063112542 0.21 0  0.2638212120168921 0.21 0  0.26876501772253 0.21 0  0.2737088234281569 0.21 0  0.2786526291337753 0.21 0  0.2835964348393937 0.21 0  0.2885402405450166 0.21 0  0.2934840462506522 0.21 0  0.2984278519562708 0.21 0  0.3033716576618997 0.21 0  0.3083154633675181 0.21 0  0.3132592690731365 0.21 0  0.3182030747787549 0.21 0  0.3231468804843732 0.21 0  0.3280906861899917 0.21 0  0.3330344918956208 0.21 0  0.3379782976012284 0.21 0  0.3429221033068576 0.21 0  0.347865909012476 0.21 0  0.3528097147180944 0.21 0  0.3577535204237128 0.21 0  0.3626973261293311 0.21 0  0.3676411318349495 0.21 0  0.3725849375405788 0.21 0  0.3775287432461877 0.21 0  0.382472548951812 0.21 0  0.3874163546574338 0.21 0  0.3923601603630631 0.21 0  0.3973039660686706 0.21 0  0.4022477717742986 0.21 0  0.4071915774799107 0.21 0  0.4121353831855311 0.21 0  0.4170791888911518 0.21 0  0.4220229945967636 0.21 0  0.4269668003023918 0.21 0  0.4319106060080253 0.21 0  0.4368544117136773 0.21 0  0.4417982174193329 0.21 0  0.4467420231249967 0.21 0  0.4516858288306445 0.21 0  0.4566296345362864 0.21 0  0.461573440241916 0.21 0  0.4665172459475665 0.21 0  0.4714610516531998 0.21 0  0.4764048573588668 0.21 0  0.4813486630645134 0.21 0  0.486292468770176 0.21 0  0.4912362744758066 0.21 0  0.4961800801814611 0.21 0  0.5011238858870897 0.21 0  0.5060676915927493 0.21 0  0.5110114972983872 0.21 0  0.5159553030040036 0.21 0  0.5208991087096415 0.21 0  0.5258429144153002 0.21 0  0.5307867201209391 0.21 0  0.5357305258265987 0.21 0  0.5406743315322367 0.21 0  0.5456181372378529 0.21 0  0.5505619429434908 0.21 0  0.5555057486491456 0.21 0  0.5604495543547885 0.21 0  0.565393360060448 0.21 0  0.5703371657661116 0.21 0  0.5752809714717458 0.21 0  0.5802247771773834 0.21 0  0.5851685828830341 0.21 0  0.5901123885886809 0.21 0  0.5950561942943404 0.21 0  0.5950561942943833 0.19 0  0.590112388588758 0.19 0  0.5851685828831193 0.19 0  0.5802247771774727 0.19 0  0.5752809714718514 0.19 0  0.5703371657662308 0.19 0  0.565393360060618 0.19 0  0.5604495543549889 0.19 0  0.5555057486493581 0.19 0  0.5505619429437035 0.19 0  0.5456181372381043 0.19 0  0.540674331532505 0.19 0  0.5357305258268962 0.19 0  0.530786720121263 0.19 0  0.5258429144156628 0.19 0  0.5208991087100244 0.19 0  0.5159553030044218 0.19 0  0.5110114972988226 0.19 0  0.5060676915932177 0.19 0  0.5011238858875806 0.19 0  0.496180080181972 0.19 0  0.4912362744763531 0.19 0  0.4862924687707343 0.19 0  0.4813486630651046 0.19 0  0.4764048573594966 0.19 0  0.4714610516538683 0.19 0  0.4665172459482555 0.19 0  0.4615734402426349 0.19 0  0.4566296345370104 0.19 0  0.4516858288313808 0.19 0  0.4467420231257716 0.19 0  0.4417982174201465 0.19 0  0.4368544117145297 0.19 0  0.4319106060089131 0.19 0  0.4269668003032866 0.19 0  0.4220229945976482 0.19 0  0.4170791888920056 0.19 0  0.4121353831863594 0.19 0  0.4071915774806995 0.19 0  0.4022477717750478 0.19 0  0.3973039660693901 0.19 0  0.3923601603637548 0.19 0  0.3874163546581082 0.19 0  0.3824725489524824 0.19 0  0.3775287432468258 0.19 0  0.3725849375411773 0.19 0  0.3676411318355085 0.19 0  0.3626973261298614 0.19 0  0.3577535204242108 0.19 0  0.352809714718589 0.19 0  0.347865909012931 0.19 0  0.342922103307292 0.19 0  0.3379782976016536 0.19 0  0.3330344918960152 0.19 0  0.3280906861903751 0.19 0  0.3231468804847171 0.19 0  0.3182030747790592 0.19 0  0.3132592690734012 0.19 0  0.3083154633677581 0.19 0  0.3033716576621197 0.19 0  0.2984278519564813 0.19 0  0.2934840462508429 0.19 0  0.2885402405451874 0.19 0  0.2835964348395295 0.19 0  0.2786526291338716 0.19 0  0.2737088234282243 0.19 0  0.268765017722586 0.19 0  0.2638212120169476 0.19 0  0.2588774063113093 0.19 0  0.2539336006056579 0.19 0  0.6 0.1949999999999783 0  0.6 0.2049999999999729 0  0.2589734265316493 0.2005523893428403 0  0.5431462343853077 0.199999999999969 0  0.5682397894768162 0.1999704585808987 0  0.2774513927118024 0.2007941919421926 0  0.513849583376897 0.1999023426490919 0  0.5286810004937381 0.1999023426490969 0  0.2945108952057646 0.1992911908405386 0  0.5827780831384927 0.1995429801003349 0  0.3104128396569256 0.1999704585808978 0  0.3370001755418551 0.2008294612433967 0  0.4990181662600459 0.1999023426490902 0  0.3552816175709044 0.2000000000000608 0  0.4841867491431925 0.1999023426490849 0  0.3707373713905551 0.2000142376953689 0  0.3898882575102495 0.2000000000000828 0  0.4689857550492734 0.1995416724256694 0  0.4541577316841967 0.1999999999999098 0  0.4043534914018331 0.2000976573509244 0  0.4195510917439569 0.2000000000001057 0  0.4387019778644512 0.1999857623046772 0  0.3202472750256703 0.2000088842146399 0  0.5584053541080851 0.1999911157853577 0  0.4280667146887134 0.1998489048208241 0  0.3467659946265474 0.2001510951794375 0  0.3813726345658908 0.200151095179452 0  0.2860683376922098 0.2000415445706182 0  0.5911223811781194 0.1982449159348744 0  0.2679893161458627 0.201675125646729 0  0.4615734402426278 0.2022503633288003 0  0.4912362744763454 0.2022503633288091 0  0.5060676915931983 0.2022503633288118 0  0.3973039660686774 0.1977496366711965 0  0.4764048573594896 0.2022503633288051 0  0.5208991087100455 0.2022503633288184 0  0.4467420231257656 0.2022503633288 0  0.5357305258268849 0.2022503633288198 0  0.4121353831855317 0.1977496366711976 0  0.3626973261293352 0.1977496366711919 0  0.3033716576618961 0.1977496366711869 0  0.5752809714718229 0.1977496366711503 0  0.550459855919056 0.1971284784737667 0  0.3281927732146841 0.2028715215262406 0  0.5484179020497461 0.2038403215694763 0  0.3302347270839988 0.1961596784305491 0  0.5379210852238114 0.196125181664411 0  0.5230896681069652 0.1961251816644058 0  0.5082582509901222 0.1961251816644098 0  0.5774715308687094 0.2038748183355887 0  0.3011810982649548 0.2038748183355937 0  0.4785954167564111 0.196125181664404 0  0.4934268338732671 0.1961251816644063 0  0.395113406671763 0.2038748183355966 0  0.3605067667324117 0.2038748183355951 0  0.4593828808457146 0.1961251816643993 0  0.4489325825226805 0.1961251816644007 0  0.4099448237886219 0.2038748183355991 0  0.2557862999801971 0.1960858370257295 0  0.2550147360309399 0.2034426429991114 0  0.4348031476464689 0.2037737577641554 0  0.37463620160841 0.1962262422358553 0  0.3406258365864304 0.196046792193989 0  0.2813001681189834 0.1960467921940502 0  0.2912686387439893 0.1960816328649282 0  0.4246705335819892 0.2039532078059544 0  0.350162175732913 0.1960467921941878 0  0.3847688156722694 0.1960467921942359 0  0.316632368538356 0.19615945856337 0  0.5621550011053409 0.2037816492598991 0  0.5624413877019769 0.1960761923611377 0  0.3162395035833128 0.2038679557424692 0  0.2710887134207622 0.1959696443325838 0  0.5873014376403604 0.2047227881030823 0  0.4346679566442709 0.1954651459552513 0  0.4243296504077986 0.1958756980939062 0  0.3402559510833523 0.2047940500290923 0  0.2808684926760933 0.2047742417812656 0  0.2914077033138723 0.2047809517070955 0  0.3747713926104932 0.2045348540448554 0  0.3499216488898867 0.2051753413186305 0  0.3845282888292298 0.205175341318636 0  0.2648144865455052 0.1962089742986374 0  0.5943247643662894 0.2040415423589182 0  0.5320972610456145 0.1956445099050872 0  0.5172658439287727 0.1956445099050854 0  0.3069923255602658 0.2043468033872551 0  0.5024344268119265 0.1956445099050864 0  0.5716603035734351 0.2043468033872761 0  0.4876030096950741 0.1956445099050831 0  0.4728151975296263 0.1956402468909894 0  0.3663301776527538 0.20436745486386 0  0.4651631000724991 0.1956402468909893 0  0.4009372308499527 0.2043554900949198 0  0.4431091716023345 0.1956325451361429 0  0.4157593408842466 0.2043565497109067 0  0.5865057328865416 0.1956918868509067 0  0.5541600609760193 0.2044335994013721 0  0.3244925681577497 0.1955664005986376 0  0.272008018888917 0.2049327968152409 0  0.2633407725863902 0.2042483236346266 0  0.4567948413982566 0.2046536472831198 0  0.4167680012832803 0.1955060004091903 0  0.4716262585151221 0.2046536472831242 0  0.5161054367030595 0.2045563706470633 0  0.4864426024693469 0.2045563706470604 0  0.5012740195862044 0.2045563706470634 0  0.4022810343427545 0.1961423961483001 0  0.4420739040821668 0.2044853411424516 0  0.3673807293464664 0.1955677741328205 0  0.3925253672243162 0.195346352716901 0  0.5405091246712254 0.2046536472831267 0  0.357918727284983 0.1953463527168901 0  0.5307534575528717 0.2038576038516682 0  0.3079697655029555 0.1955637092892754 0  0.2985930588175599 0.1953463527168728 0  0.579671714346879 0.1955441268455555 0  0.5705023726275059 0.1953463527168462 0  0.5112451461103119 0.2035640580783926 0  0.4964137289934448 0.2035640580783915 0  0.4665727251511405 0.2038238154617746 0  0.5259274680675793 0.2038006696000127 0  0.4815823118765752 0.2035640580783898 0  0.4517504165552094 0.2039070625502732 0  0.4071070238280551 0.1961993303999926 0  0.3234846806957546 0.2047001437739977 0  0.5551679484379799 0.1952998562260008 0  0.5457754356464107 0.1954447171286166 0  0.3329307555206357 0.2046017509710421 0  0.4541577316841968 0.1960357661898101 0  0.3358300776141575 0.1950765652117375 0  0.2539718587514912 0.200011552766824 0  0.5826472073721517 0.2039971170156656 0  0.2761021761080182 0.1946948236183283 0  0.3898581462796225 0.2041572776584344 0  0.3552515063402743 0.2041572776584256 0  0.2965028074750666 0.2046578268138723 0  0.4299158836614793 0.1951782397873778 0  0.379426563923736 0.2049969334481307 0  0.2860882692072842 0.2042624797643994 0  0.3449948044168807 0.2051793676155613 0  0.2603922435707652 0.1950997711614917 0  0.5949856943860
[...]
<PointData  Vectors="f_18-1"> 
<DataArray  type="Float64"  Name="f_18-1"  NumberOfComponents="3" format="ascii">-2.7883975248241072e-02 -1.1587257560622885e-01 0.0000000000000000e+00  -1.8903322017761362e-02 -1.1800105351998601e-01 0.0000000000000000e+00  0.0000000000000000e+00 0.0000000000000000e+00 0.0000000000000000e+00  0.0000000000000000e+00 0.0000000000000000e+00 0.0000000000000000e+00  -2.3393606178953124e-02 -1.1693661727494188e-01 0.0000000000000000e+00  0.0000000000000000e+00 0.0000000000000000e+00 0.0000000000000000e+00  0.0000000000000000e+00 0.0000000000000000e+00 0.0000000000000000e+00  0.0000000000000000e+00 0.0000000000000000e+00 0.0000000000000000e+00  0.0000000000000000e+00 0.0000000000000000e+00 0.0000000000000000e+00  1.5102745156021406e-04 -1.3126423538969327e-04 0.0000000000000000e+00  3.1802139320949723e-04 -2.7646888690888003e-04 0.0000000000000000e+00  4.8291648309084522e-04 -4.6297509223001737e-04 0.0000000000000000e+00  6.3564499830047656e-04 -7.7621980709437492e-04 0.0000000000000000e+00  7.7669998472826860e-04 -1.1591685886817396e-03 0.0000000000000000e+00  9.1792912151975980e-04 -1.6402404345053393e-03 0.0000000000000000e+00  1.0385929999972346e-03 -2.1727529055723684e-03 0.0000000000000000e+00  1.1363898513316328e-03 -2.7939910774636167e-03 0.0000000000000000e+00  1.2275359932659240e-03 -3.4858442378280633e-03 0.0000000000000000e+00  1.3003063114331861e-03 -4.2472353333879963e-03 0.0000000000000000e+00  1.3676109202970894e-03 -5.1025852474873463e-03 0.0000000000000000e+00  1.4314107417858770e-03 -5.9733715437272428e-03 0.0000000000000000e+00  1.4578965650648135e-03 -6.9467438113030655e-03 0.0000000000000000e+00  1.4962454322719014e-03 -7.9789456509962355e-03 0.0000000000000000e+00  1.4962173630453984e-03 -9.0599637702378031e-03 0.0000000000000000e+00  1.4865217101895443e-03 -1.0218422337488643e-02 0.0000000000000000e+00  1.4600252287645331e-03 -1.1420649748032892e-02 0.0000000000000000e+00  1.4112801277469627e-03 -1.2697716813846594e-02 0.0000000000000000e+00  1.3433763311865160e-03 -1.4005607352871804e-02 0.0000000000000000e+00  1.2578931397896976e-03 -1.5377925136870469e-02 0.0000000000000000e+00  1.1525488473815388e-03 -1.6794240322645530e-02 0.0000000000000000e+00  1.0260151892289608e-03 -1.8253326510984866e-02 0.0000000000000000e+00  8.8612634328436978e-04 -1.9784235685298638e-02 0.0000000000000000e+00  7.4248520077671641e-04 -2.1325434035950747e-02 0.0000000000000000e+00  5.6797939293544777e-04 -2.2927055139054596e-02 0.0000000000000000e+00  3.7740440758310097e-04 -2.4552777834895359e-02 0.0000000000000000e+00  1.6986564906320637e-04 -2.6223918539644439e-02 0.0000000000000000e+00  -5.3991288703018359e-05 -2.7926965164450149e-02 0.0000000000000000e+00  -2.9597881422410959e-04 -2.9660110527573204e-02 0.0000000000000000e+00  -5.5066870794531569e-04 -3.1445970403215860e-02 0.0000000000000000e+00  -8.0761911858157358e-04 -3.3237276590854077e-02 0.0000000000000000e+00  -1.0949230938110761e-03 -3.5072041298413584e-02 0.0000000000000000e+00  -1.3939183078600318e-03 -3.6944666546284442e-02 0.0000000000000000e+00  -1.6971597972507281e-03 -3.8826094140452905e-02 0.0000000000000000e+00  -2.0276207292832739e-03 -4.0746717513386807e-02 0.0000000000000000e+00  -2.3597329438224931e-03 -4.2689459759673351e-02 0.0000000000000000e+00  -2.7141971254356508e-03 -4.4653150161241523e-02 0.0000000000000000e+00  -3.0746920552888707e-03 -4.6644584432741200e-02 0.0000000000000000e+00  -3.4517307138452482e-03 -4.8648360468126588e-02 0.0000000000000000e+00  -3.8414935382490864e-03 -5.0673363898027436e-02 0.0000000000000000e+00  -4.2380236623579867e-03 -5.2713288776122649e-02 0.0000000000000000e+00  -4.6437792922234943e-03 -5.4770245145076717e-02 0.0000000000000000e+00  -5.0622484013039268e-03 -5.6840778942139181e-02 0.0000000000000000e+00  -5.4857297047291344e-03 -5.8924582749123967e-02 0.0000000000000000e+00  -5.9171334626984540e-03 -6.1023639724400537e-02 0.0000000000000000e+00  -6.3593450044323666e-03 -6.3134995265806529e-02 0.0000000000000000e+00  -6.8066831697409305e-03 -6.5258401572981836e-02 0.0000000000000000e+00  -7.2610822790105589e-03 -6.7395474548487169e-02 0.0000000000000000e+00  -7.7248708608214376e-03 -6.9542933957535621e-02 0.0000000000000000e+00  -8.1936663324051889e-03 -7.1700389297735256e-02 0.0000000000000000e+00  -8.6690748257463746e-03 -7.3868495089031719e-02 0.0000000000000000e+00  -9.1525698056196571e-03 -7.6044295148157193e-02 0.0000000000000000e+00  -9.6404505390210501e-03 -7.8226439052636335e-02 0.0000000000000000e+00  -1.0133936658714862e-02 -8.0415242959740951e-02 0.0000000000000000e+00  -1.0633103963720572e-02 -8.2607923548749948e-02 0.0000000000000000e+00  -1.1135073275360329e-02 -8.4803909072754202e-02 0.0000000000000000e+00  -1.1640585922124762e-02 -8.7003106650928114e-02 0.0000000000000000e+00  -1.2149118838623617e-02 -8.9204307299720190e-02 0.0000000000000000e+00  -1.2659790079301821e-02 -9.1406926005599048e-02 0.0000000000000000e+00  -1.3172656168377213e-02 -9.3611927683063853e-02 0.0000000000000000e+00  -1.3686930285937060e-02 -9.5819909972825495e-02 0.0000000000000000e+00  -1.4201463648125873e-02 -9.8028797044570681e-02 0.0000000000000000e+00  -1.4718496503716998e-02 -1.0024146518962369e-01 0.0000000000000000e+00  -1.5235969871000090e-02 -1.0245708007563896e-01 0.0000000000000000e+00  -1.5755946679338235e-02 -1.0467448770961663e-01 0.0000000000000000e+00  -1.6277946318037341e-02 -1.0689507508503766e-01 0.0000000000000000e+00  -1.6800754522032280e-02 -1.0911583196672482e-01 0.0000000000000000e+00  -1.7325590453346175e-02 -1.1133772814795685e-01 0.0000000000000000e+00  -1.7851325893921917e-02 -1.1355997401371477e-01 0.0000000000000000e+00  -1.8377096957363719e-02 -1.1578079816411145e-01 0.0000000000000000e+00  -2.7357529849370302e-02 -1.1365227405363823e-01 0.0000000000000000e+00  -2.6830754737540315e-02 -1.1143138807772003e-01 0.0000000000000000e+00  -2.6303394239027923e-02 -1.0921021648311836e-01 0.0000000000000000e+00  -2.5775253814531073e-02 -1.0698974991944775e-01 0.0000000000000000e+00  -2.5246907985206325e-02 -1.0477109098760648e-01 0.0000000000000000e+00  -2.4718320573535135e-02 -1.0255405155083332e-01 0.0000000000000000e+00  -2.4190344815166614e-02 -1.0034042016061127e-01 0.0000000000000000e+00  -2.3662177960645858e-02 -9.8130025630591852e-02 0.0000000000000000e+00  -2.3135596597295884e-02 -9.5921818936993669e-02 0.0000000000000000e+00  -2.2610006712345143e-02 -9.3717423342717376e-02 0.0000000000000000e+00  -2.2085194454889889e-02 -9.1514770611901691e-02 0.0000000000000000e+00  -2.1562334368703348e-02 -8.9315144899629773e-02 0.0000000000000000e+00  -2.1040026901519401e-02 -8.7118923120000330e-02 0.0000000000000000e+00  -2.0517216523090073e-02 -8.4923383241448505e-02 0.0000000000000000e+00  -1.9996368581694873e-02 -8.2732025894135114e-02 0.0000000000000000e+00  -1.9475719903681136e-02 -8.0546491594812877e-02 0.0000000000000000e+00  -1.8954180066296674e-02 -7.8362844344063598e-02 0.0000000000000000e+00  -1.8435909545230608e-02 -7.6186822463816903e-02 0.0000000000000000e+00  -1.7918355676713297e-02 -7.4021215893959089e-02 0.0000000000000000e+00  -1.7399819628400898e-02 -7.1859093592045634e-02 0.0000000000000000e+00  -1.6887517309378774e-02 -6.9709592016256497e-02 0.0000000000000000e+00  -1.6377265169423207e-02 -6.7575255045758467e-02 0.0000000000000000e+00  -1.5866423329279081e-02 -6.5445360289157081e-02 0.0000000000000000e+00  -1.5365154677930761e-02 -6.3331908422708319e-02 0.0000000000000000e+00  -1.4867016331869676e-02 -6.1236601668755899e-02 0.0000000000000000e+00  -1.4369534336769780e-02 -5.9147553857857277e-02 0.0000000000000000e+00  -1.3880636700626474e-02 -5.7074933801335430e-02 0.0000000000000000e+00  -1.3396574760551651e-02 -5.5022982008187435e-02 0.0000000000000000e+00  -1.2913469871440843e-02 -5.2974768869768478e-02 0.0000000000000000e+00  -1.2443784371112649e-02 -5.0946809917987314e-02 0.0000000000000000e+00  -1.1976039570595535e-02 -4.8945767413883443e-02 0.0000000000000000e+00  -1.1507784373557010e-02 -4.6951191161091768e-02 0.0000000000000000e+00  -1.1051217002556388e-02 -4.4983602576977359e-02 0.0000000000000000e+00  -1.0600922326442729e-02 -4.3030318678404726e-02 0.0000000000000000e+00  -1.0156983309253428e-02 -4.1102251478841369e-02 0.0000000000000000e+00  -9.7249597601094390e-03 -3.9205414180354684e-02 0.0000000000000000e+00  -9.2908733989187677e-03 -3.7328231467537581e-02 0.0000000000000000e+00  -8.8713221306119770e-03 -3.5483006097315951e-02 0.0000000000000000e+00  -8.4551663333248296e-03 -3.3666779885576335e-02 0.0000000000000000e+00  -8.0465319573720384e-03 -3.1883680841289182e-02 0.0000000000000000e+00  -7.6507217722826806e-03 -3.0134180087683728e-02 0.0000000000000000e+00  -7.2700138001619390e-03 -2.8408369026222256e-02 0.0000000000000000e+00  -6.9017334302519306e-03 -2.6720151192969058e-02 0.0000000000000000e+00  -6.5249507860739063e-03 -2.5063035699622167e-02 0.0000000000000000e+00  -6.1742717443898495e-03 -2.3444758920027880e-02 0.0000000000000000e+00  -5.8197056605243311e-03 -2.1872694414639602e-02 0.0000000000000000e+00  -5.4860978155086646e-03 -2.0328923722209451e-02 0.0000000000000000e+00  -5.1591672367062311e-03 -1.8837774775381004e-02 0.0000000000000000e+00  -4.8473116676285687e-03 -1.7376608287506361e-02 0.0000000000000000e+00  -4.5487417492307575e-03 -1.5967069748833572e-02 0.0000000000000000e+00  -4.2359655969080295e-03 -1.4598484756976957e-02 0.0000000000000000e+00  -3.9546783995585040e-03 -1.3281678025926474e-02 0.0000000000000000e+00  -3.6637236112586923e-03 -1.2028113312356745e-02 0.0000000000000000e+00  -3.4063782208469213e-03 -1.0816456895339780e-02 0.0000000000000000e+00  -3.1554280026761723e-03 -9.6836284025120026e-03 0.0000000000000000e+00  -2.9011763100947005e-03 -8.5684970765882197e-03 0.0000000000000000e+00  -2.6720675541470791e-03 -7.5359201353349739e-03 0.0000000000000000e+00  -2.4234415011622147e-03 -6.5609980165470694e-03 0.0000000000000000e+00  -2.2098370656520026e-03 -5.6388099754041627e-03 0.0000000000000000e+00  -1.9993099472659552e-03 -4.7986658067256686e-03 0.0000000000000000e+00  -1.8013221887934641e-03 -4.0029484115048971e-03 0.0000000000000000e+00  -1.6137507868544329e-03 -3.2861838712589428e-03 0.0000000000000000e+00  -1.4057599524986547e-03 -2.6245886961819764e-03 0.0000000000000000e+00  -1.2330110884816909e-03 -2.0354402602049586e-03 0.0000000000000000e+00  -1.0352491759413416e-03 -1.5209860528926744e-03 0.0000000000000000e+00  -8.6487895923263107e-04 -1.0939532136552089e-03 0.0000000000000000e+00  -6.7323033557601850e-04 -7.4271353684190555e-04 0.0000000000000000e+00  -5.0103446341824586e-04 -4.4736022825406756e-04 0.0000000000000000e+00  -3.3304456048754858e-04 -2.4210640532196489e-04 0.0000000000000000e+00  -1.6489819181720808e-04 -1.3898882855539475e-04 0.0000000000000000e+00  -2.5638709758371431e-02 -1.1640474728585892e-01 0.0000000000000000e+00  -2.1148473847541718e-02 -1.1746869064941684e-01 0.0000000000000000e+00  1.5884530887831128e-05 -1.3155091440878166e-04 0.0000000000000000e+00  -1.7368289063361575e-02 -9.1458245158672902e-02 0.0000000000000000e+00  -2.0026801198096529e-02 -1.0266825694049063e-01 0.0000000000000000e+00  1.7167446222429012e-05 -1.3522634931021368e-03 0.0000000000000000e+00  -1.4367463173592559e-02 -7.8440180782471128e-02 0.0000000000000000e+00  -1.5900885756681308e-02 -8.5012271133943107e-02 0.0000000000000000e+00  -2.8256841255443351e-04 -3.4254934967060079e-03 0.0000000000000000e+00  -2.1764456716246241e-02 -1.0915024050308453e-01 0.0000000000000000e+00  -4.1229507450823397e-04 -6.1133465490353306e-03 0.0000000000000000e+00  -8.7838358548529116e-04 -1.2059009844769533e-02 0.0000000000000000e+00  -1.2860511459371213e-02 -7.1920869007685129e-02 0.0000000000000000e+00  -1.7783930769176321e-03 -1.7035678892155983e-02 0.0000000000000000e+00  -1.1394300111120791e-02 -6.5488259022747117e-02 0.0000000000000000e+00  -2.5091926690776079e-03 -2.1743789668643550e-02 0.0000000000000000e+00  -3.6077196271019282e-03 -2.8134387160656853e-02 0.0000000000000000e+00  -1.0096144999057815e-02 -5.8976309418046040e-02 0.0000000000000000e+00  -8.5496664448918153e-03 -5.2829321815236516e-02 0.0000000000000000e+00  -4.5214723022203385e-03 -3.3291928171589519e-02 0.0000000000000000e+00  -5.6655455683607579e-03 -3.8985904358552897e-02 0.0000000000000000e+00  -7.2124407018690764e-03 -4.6520217798718871e-02 0.0000000000000000e+00  -6.0840258084390864e-04 -8.0986626729414850e-03 0.0000000000000000e+00  -1.8976493097973186e-02 -9.8266939886646767e-02 0.0000000000000000e+00  -6.3902576434908464e-03 -4.2283764606366452e-02 0.0000000000000000e+00  -1.3935566269564264e-03 -1.4622144644391984e-02 0.0000000000000000e+00  -3.0486272680605385e-03 -2.5233533181180288e-02 0.0000000000000000e+00  -1.0856058223799819e-04 -2.3199118964215221e-03 0.0000000000000000e+00  -2.3236182492251897e-02 -1.1276223599180130e-01 0.0000000000000000e+00  8.1454620517014815e-05 -5.9584672292620341e-04 0.0000000000000000e+00  -8.2820783350554417e-03 -5.6114699965051681e-02 0.0000000000000000e+00  -1.1070960994777357e-02 -6.8765430651934412e-02 0.0000000000000000e+00  -1.2544720453610856e-02 -7.5248990512386413e-02 0.0000000000000000e+00  -4.8820447943729792e-03 -3.0596925543293064e-02 0.0000000000000000e+00  -9.6473199984492969e-03 -6.2381312256985011e-02 0.0000000000000000e+00  -1.4056686297046470e-02 -8.1801829369132162e-02 0.0000000000000000e+00  -6.9834343661064873e-03 -4.9977928139060900e-02 0.0000000000000000e+00  -1.5592488717618985e-02 -8.8391691938671163e-02 0.0000000000000000e+00  -5.9534630374978078e-03 -3.6012703029643003e-02 0.0000000000000000e+00  -2.7973942625639796e-03 -1.9142616663080505e-02 0.0000000000000000e+00  -6.7210063525932390e-04 -4.8254704476138818e-03 0.0000000000000000e+00  -2.1770314848703957e-02 -1.0559212900964332e-01 0.0000000000000000e+00  -1.9416935307983177e-02 -9.4417599199742311e-02 0.0000000000000000e+00  -1.5674496433108404e-04 -9.9703841434075260e-03 0.0000000000000000e+00  -1.6208975578138968e-02 -9.4212287273496481e-02 0.0000000000000000e+00  -1.7854840184012312e-03 -1.0276460135215762e-02 0.0000000000000000e+00  -1.8544482822671782e-02 -8.8727720202744081e-02 0.0000000000000000e+00  -1.6991135876295652e-02 -8.2141805490496558e-02 0.0000000000000000e+00  -1.5452032390402933e-02 -7.5593185885449568e-02 0.0000000000000000e+00  -1.9257014386394333e-02 -1.0722595293118622e-01 0.0000000000000000e+00  3.7252941444654688e-04 -4.5499314494720795e-03 0.0000000000000000e+00  -1.2464276177057546e-02 -6.2733861957796608e-02 0.0000000000000000e+00  -1.3938539282693145e-02 -6.9113316608713116e-02 0.0000000000000000e+00  -2.5741722962902311e-03 -3.0218996528437573e-02 0.0000000000000000e+00  -8.5539111996750202e-04 -1.8768277352716706e-02 0.0000000000000000e+00  -1.0631700087493546e-02 -5.4647775982465438e-02 0.0000000000000000e+00  -9.6665635879550054e-03 -5.0344693900357958e-02 0.0000000000000000e+00  -3.5145058080647443e-03 -3.5636930239061851e-02 0.0000000000000000e+00  -7.3099061665974057e-05 -5.5012271433206086e-05 0.0000000000000000e+00  5.2240203755123249e-05 -4.2419323703250865e-05 0.0000000000000000e+00  -5.3881219149657161e-03 -4.5274339804768020e-02 0.0000000000000000e+00  -3.9438740872000805e-03 -2.2804925745102522e-02 0.0000000000000000e+00  -2.2368849326709754e-03 -1.2842522696830923e-02 0.0000000000000000e+00  -4.9251718654155232e-04 -1.7419085558331344e-03 0.0000000000000000e+00  -6.6993319211769626e-04 -2.9562235542932415e-03 0.0000000000000000e+00  -4.5375456708690916e-03 -4.1283979049343993e-02 0.0000000000000000e+00  -2.6647015588761661e-03 -1.5412513698433807e-02 0.0000000000000000e+00  -4.6322323552305724e-03 -2.6144393719647423e-02 0.0000000000000000e+00  -1.3107179199277142e-03 -7.2763343765930404e-03 0.0000000000000000e+00  -1.7677325930407169e-02 -1.0034559080599591e-01 0.0000000000000000e+00  -2.1154995754333661e-02 -9.9659569636784059e-02 0.0000000000000000e+00  2.5055449706768150e-04 -7.3558876212982509e-03 0.0000000000000000e+00  -3.3712817665565095e-04 -8.2334833658747665e-04 0.0000000000000000e+00  -1.9921507674631425e-02 -1.1173426586512322e-01 0.0000000000000000e+00  -8.6721416185453655e-03 -4.4541990955107691e-02 0.0000000000000000e+00  -7.6332026021917196e-03 -4.0518086092476424e-02 0.0000000000000000e+00  4.2774387947187024e-05 -1.3054319692359661e-02 0.0000000000000000e+00  4.2311040740943440e-04 -1.7537056980929889e-03 0.0000000000000000e+00  4.9526237169300244e-04 -3.0659169286221728e-03 0.0000000000000000e+00  -1.2685180776588151e-03 -2.3299917910206396e-02 0.0000000000000000e+00  -1.2158362603793425e-04 -1.5723428703969155e-02 0.0000000000000000e+00  -1.5420288516055417e-03 -2.6610716050155844e-02 0.0000000000000000e+00  -2.0934005479246795e-04 -4.2701445901192610e-04 0.0000000000000000e+00  -2.0974659661453319e-02 -1.1481776746331490e-01 0.0000000000000000e+00  -1.8147563968151877e-02 -8.6088826467822038e-02 0.0000000000000000e+00  -1.6598217677991942e-02 -7.9515564530716384e-02 0.0000000000000000e+00  4.1800214846042679e-04 -5.5754860773762419e-03 0.0000000000000000e+00  -1.5066112938159848e-02 -7.2990876157233112e-02 0.0000000000000000e+00  -1.8429006320037331e-02 -1.0466696825570965e-01 0.0000000000000000e+00  -1.3564256056531065e-02 -6.6548644359328335e-02 0.0000000000000000e+00  -1.2110728934358377e-02 -6.0233911731236239e-02 0.0000000000000000e+00  -9.5154770932696236e-04 -2.0586149354148535e-02 0.0000000000000000e+00  -1.1375241071225286e-02 -5.7014781729074079e-02 0.0000000000000000e+00  -2.7634243589801833e-03 -3.2344639455628772e-02 0.0000000000000000e+00  -9.3489248844682640e-03 -4.7937062330194527e-02 0.0000000000000000e+00  -3.7379943860490414e-03 -3.7872317783475239e-02 0.0000000000000000e+00  -2.3890263289748821e-02 -1.1041624145554532e-01 0.0000000000000000e+00  -1.6545667119957311e-02 -9.6838432514358530e-02 0.0000000000000000e+00  -1.7096999651162862e-03 -8.9415176688575557e-03 0.0000000000000000e+00  3.4217855340337066e-04 -9.1198550081905900e-04 0.0000000000000000e+00  1.8381621069676337e-04 -3.4374008357776850e-04 0.0000000000000000e+00  -6.8642837967233805e-03 -5.4340746126196465e-02 0.0000000000000000e+00  -7.1600057029926204e-03 -3.7597878782824480e-02 0.0000000000000000e+00  -8.1865356197441518e-03 -6.0576598447709455e-02 0.0000000000000000e+00  -1.2548497732097300e-02 -7.9916039129030933e-02 0.0000000000000000e+00  -9.6136550000633751e-03 -6.6916645350992163e-02 0.0000000000000000e+00  -1.1057752507947020e-02 -7.3377151052280473e-02 0.0000000000000000e+00  -5.8134597045930861e-03 -3.2275170770040544e-02 0.0000000000000000e+00  -5.6899540985235432e-03 -4.8270152313669462e-02 0.0000000000000000e+00  -3.7245834945849052e-03 -2.0481358293143317e-02 0.0000000000000000e+00  -5.3974743880087746e-03 -2.8770655386190426e-02 0.0000000000000000e+00  -1.5021535925712251e-02 -9.0771151602701078e-02 0.0000000000000000e+00  -3.2621670420716286e-03 -1.7618077969211901e-02 0.0000000000000000e+00  -1.4362170987368760e-02 -8.6344951148985508e-02 0.0000000000000000e+00  -1.1745186584521978e-03 -5.6093454409028255e-03 0.0000000000000000e+00  -9.5687795160877710e-04 -4.0235417828438612e-03 0.0000000000000000e+00  -2.3227721593502840e-02 -1.0732985538139826e-01 0.0000000000000000e+00  -2.2338846307393152e-02 -1.0319359495069508e-01 0.0000000000000000e+00  -1.2490972096366102e-02 -7.7664733504910696e-02 0.0000000000000000e+00  -1.1008741303413803e-02 -7.1149884709198530e-02 0.0000000000000000e+00  -8.0743716756479181e-03 -5.8360199858120514e-02 0.0000000000000000e+00  -1.3888474909087548e-02 -8.4193988648328194e-02 0.0000000000000000e+00  -9.5753989727269551e-03 -6.4724377915351086e-02 0.0000000000000000e+00  -6.7335211786918843e-03 -5.2183503687204078e-02 0.0000000000000000e+00  -6.1488989326119285e-03 -3.4036706872466571e-02 0.0000000000000000e+00  3.3763668169408198e-04 -8.9450078788327544e-03 0.0000000000000000e+00  -2.0730906784773472e-02 -9.6326902761437100e-02 0.0000000000000000e+00  -1.9674198617584571e-02 -9.2153067705383590e-02 0.0000000000000000e+