<?xml version="1.0"?>
<VTKFile type="UnstructuredGrid"  version="0.1"  >
<UnstructuredGrid>
<Piece  NumberOfPoints="439" NumberOfCells="725">
<Points>
<DataArray  type="Float64"  NumberOfComponents="3"  format="ascii">0.6 0.19 0  0.6 0.21 0  0.2489897949 0.21 0  0.2489897949 0.19 0  0.6 0.2 0  0.2496355385699469 0.2060260530378829 0  0.249959460510575 0.2020130349814059 0  0.2499594605105767 0.1979869650186357 0  0.24963553856995 0.1939739469621422 0  0.2539336006056293 0.21 0  0.2588774063112542 0.21 0  0.2638212120168921 0.21 0  0.26876501772253 0.21 0  0.2737088234281569 0.21 0  0.2786526291337753 0.21 0  0.2835964348393937 0.21 0  0.2885402405450166 0.21 0  0.2934840462506522 0.21 0  0.2984278519562708 0.21 0  0.3033716576618997 0.21 0  0.3083154633675181 0.21 0  0.3132592690731365 0.21 0  0.3182030747787549 0.21 0  0.3231468804843732 0.21 0  0.3280906861899917 0.21 0  0.3330344918956208 0.21 0  0.3379782976012284 0.21 0  0.3429221033068576 0.21 0  0.347865909012476 0.21 0  0.3528097147180944 0.21 0  0.3577535204237128 0.21 0  0.3626973261293311 0.21 0  0.3676411318349495 0.21 0  0.3725849375405788 0.21 0  0.3775287432461877 0.21 0  0.382472548951812 0.21 0  0.3874163546574338 0.21 0  0.3923601603630631 0.21 0  0.3973039660686706 0.21 0  0.4022477717742986 0.21 0  0.4071915774799107 0.21 0  0.4121353831855311 0.21 0  0.4170791888911518 0.21 0  0.4220229945967636 0.21 0  0.4269668003023918 0.21 0  0.4319106060080253 0.21 0  0.4368544117136773 0.21 0  0.4417982174193329 0.21 0  0.4467420231249967 0.21 0  0.4516858288306445 0.21 0  0.4566296345362864 0.21 0  0.461573440241916 0.21 0  0.4665172459475665 0.21 0  0.4714610516531998 0.21 0  0.4764048573588668 0.21 0  0.4813486630645134 0.21 0  0.486292468770176 0.21 0  0.4912362744758066 0.21 0  0.4961800801814611 0.21 0  0.5011238858870897 0.21 0  0.5060676915927493 0.21 0  0.5110114972983872 0.21 0  0.5159553030040036 0.21 0  0.5208991087096415 0.21 0  0.5258429144153002 0.21 0  0.5307867201209391 0.21 0  0.5357305258265987 0.21 0  0.5406743315322367 0.21 0  0.5456181372378529 0.21 0  0.5505619429434908 0.21 0  0.5555057486491456 0.21 0  0.5604495543547885 0.21 0  0.565393360060448 0.21 0  0.5703371657661116 0.21 0  0.5752809714717458 0.21 0  0.5802247771773834 0.21 0  0.5851685828830341 0.21 0  0.5901123885886809 0.21 0  0.5950561942943404 0.21 0  0.5950561942943833 0.19 0  0.590112388588758 0.19 0  0.5851685828831193 0.19 0  0.5802247771774727 0.19 0  0.5752809714718514 0.19 0  0.5703371657662308 0.19 0  0.565393360060618 0.19 0  0.5604495543549889 0.19 0  0.5555057486493581 0.19 0  0.5505619429437035 0.19 0  0.5456181372381043 0.19 0  0.540674331532505 0.19 0  0.5357305258268962 0.19 0  0.530786720121263 0.19 0  0.5258429144156628 0.19 0  0.5208991087100244 0.19 0  0.5159553030044218 0.19 0  0.5110114972988226 0.19 0  0.5060676915932177 0.19 0  0.5011238858875806 0.19 0  0.496180080181972 0.19 0  0.4912362744763531 0.19 0  0.4862924687707343 0.19 0  0.4813486630651046 0.19 0  0.4764048573594966 0.19 0  0.4714610516538683 0.19 0  0.4665172459482555 0.19 0  0.4615734402426349 0.19 0  0.4566296345370104 0.19 0  0.4516858288313808 0.19 0  0.4467420231257716 0.19 0  0.4417982174201465 0.19 0  0.4368544117145297 0.19 0  0.4319106060089131 0.19 0  0.4269668003032866 0.19 0  0.4220229945976482 0.19 0  0.4170791888920056 0.19 0  0.4121353831863594 0.19 0  0.4071915774806995 0.19 0  0.4022477717750478 0.19 0  0.3973039660693901 0.19 0  0.3923601603637548 0.19 0  0.3874163546581082 0.19 0  0.3824725489524824 0.19 0  0.3775287432468258 0.19 0  0.3725849375411773 0.19 0  0.3676411318355085 0.19 0  0.3626973261298614 0.19 0  0.3577535204242108 0.19 0  0.352809714718589 0.19 0  0.347865909012931 0.19 0  0.342922103307292 0.19 0  0.3379782976016536 0.19 0  0.3330344918960152 0.19 0  0.3280906861903751 0.19 0  0.3231468804847171 0.19 0  0.3182030747790592 0.19 0  0.3132592690734012 0.19 0  0.3083154633677581 0.19 0  0.3033716576621197 0.19 0  0.2984278519564813 0.19 0  0.2934840462508429 0.19 0  0.2885402405451874 0.19 0  0.2835964348395295 0.19 0  0.2786526291338716 0.19 0  0.2737088234282243 0.19 0  0.268765017722586 0.19 0  0.2638212120169476 0.19 0  0.2588774063113093 0.19 0  0.2539336006056579 0.19 0  0.6 0.1949999999999783 0  0.6 0.2049999999999729 0  0.2589734265316493 0.2005523893428403 0  0.5431462343853077 0.199999999999969 0  0.5682397894768162 0.1999704585808987 0  0.2774513927118024 0.2007941919421926 0  0.513849583376897 0.1999023426490919 0  0.5286810004937381 0.1999023426490969 0  0.2945108952057646 0.1992911908405386 0  0.5827780831384927 0.1995429801003349 0  0.3104128396569256 0.1999704585808978 0  0.3370001755418551 0.2008294612433967 0  0.4990181662600459 0.1999023426490902 0  0.3552816175709044 0.2000000000000608 0  0.4841867491431925 0.1999023426490849 0  0.3707373713905551 0.2000142376953689 0  0.3898882575102495 0.2000000000000828 0  0.4689857550492734 0.1995416724256694 0  0.4541577316841967 0.1999999999999098 0  0.4043534914018331 0.2000976573509244 0  0.4195510917439569 0.2000000000001057 0  0.4387019778644512 0.1999857623046772 0  0.3202472750256703 0.2000088842146399 0  0.5584053541080851 0.1999911157853577 0  0.4280667146887134 0.1998489048208241 0  0.3467659946265474 0.2001510951794375 0  0.3813726345658908 0.200151095179452 0  0.2860683376922098 0.2000415445706182 0  0.5911223811781194 0.1982449159348744 0  0.2679893161458627 0.201675125646729 0  0.4615734402426278 0.2022503633288003 0  0.4912362744763454 0.2022503633288091 0  0.5060676915931983 0.2022503633288118 0  0.3973039660686774 0.1977496366711965 0  0.4764048573594896 0.2022503633288051 0  0.5208991087100455 0.2022503633288184 0  0.4467420231257656 0.2022503633288 0  0.5357305258268849 0.2022503633288198 0  0.4121353831855317 0.1977496366711976 0  0.3626973261293352 0.1977496366711919 0  0.3033716576618961 0.1977496366711869 0  0.5752809714718229 0.1977496366711503 0  0.550459855919056 0.1971284784737667 0  0.3281927732146841 0.2028715215262406 0  0.5484179020497461 0.2038403215694763 0  0.3302347270839988 0.1961596784305491 0  0.5379210852238114 0.196125181664411 0  0.5230896681069652 0.1961251816644058 0  0.5082582509901222 0.1961251816644098 0  0.5774715308687094 0.2038748183355887 0  0.3011810982649548 0.2038748183355937 0  0.4785954167564111 0.196125181664404 0  0.4934268338732671 0.1961251816644063 0  0.395113406671763 0.2038748183355966 0  0.3605067667324117 0.2038748183355951 0  0.4593828808457146 0.1961251816643993 0  0.4489325825226805 0.1961251816644007 0  0.4099448237886219 0.2038748183355991 0  0.2557862999801971 0.1960858370257295 0  0.2550147360309399 0.2034426429991114 0  0.4348031476464689 0.2037737577641554 0  0.37463620160841 0.1962262422358553 0  0.3406258365864304 0.196046792193989 0  0.2813001681189834 0.1960467921940502 0  0.2912686387439893 0.1960816328649282 0  0.4246705335819892 0.2039532078059544 0  0.350162175732913 0.1960467921941878 0  0.3847688156722694 0.1960467921942359 0  0.316632368538356 0.19615945856337 0  0.5621550011053409 0.2037816492598991 0  0.5624413877019769 0.1960761923611377 0  0.3162395035833128 0.2038679557424692 0  0.2710887134207622 0.1959696443325838 0  0.5873014376403604 0.2047227881030823 0  0.4346679566442709 0.1954651459552513 0  0.4243296504077986 0.1958756980939062 0  0.3402559510833523 0.2047940500290923 0  0.2808684926760933 0.2047742417812656 0  0.2914077033138723 0.2047809517070955 0  0.3747713926104932 0.2045348540448554 0  0.3499216488898867 0.2051753413186305 0  0.3845282888292298 0.205175341318636 0  0.2648144865455052 0.1962089742986374 0  0.5943247643662894 0.2040415423589182 0  0.5320972610456145 0.1956445099050872 0  0.5172658439287727 0.1956445099050854 0  0.3069923255602658 0.2043468033872551 0  0.5024344268119265 0.1956445099050864 0  0.5716603035734351 0.2043468033872761 0  0.4876030096950741 0.1956445099050831 0  0.4728151975296263 0.1956402468909894 0  0.3663301776527538 0.20436745486386 0  0.4651631000724991 0.1956402468909893 0  0.4009372308499527 0.2043554900949198 0  0.4431091716023345 0.1956325451361429 0  0.4157593408842466 0.2043565497109067 0  0.5865057328865416 0.1956918868509067 0  0.5541600609760193 0.2044335994013721 0  0.3244925681577497 0.1955664005986376 0  0.272008018888917 0.2049327968152409 0  0.2633407725863902 0.2042483236346266 0  0.4567948413982566 0.2046536472831198 0  0.4167680012832803 0.1955060004091903 0  0.4716262585151221 0.2046536472831242 0  0.5161054367030595 0.2045563706470633 0  0.4864426024693469 0.2045563706470604 0  0.5012740195862044 0.2045563706470634 0  0.4022810343427545 0.1961423961483001 0  0.4420739040821668 0.2044853411424516 0  0.3673807293464664 0.1955677741328205 0  0.3925253672243162 0.195346352716901 0  0.5405091246712254 0.2046536472831267 0  0.357918727284983 0.1953463527168901 0  0.5307534575528717 0.2038576038516682 0  0.3079697655029555 0.1955637092892754 0  0.2985930588175599 0.1953463527168728 0  0.579671714346879 0.1955441268455555 0  0.5705023726275059 0.1953463527168462 0  0.5112451461103119 0.2035640580783926 0  0.4964137289934448 0.2035640580783915 0  0.4665727251511405 0.2038238154617746 0  0.5259274680675793 0.2038006696000127 0  0.4815823118765752 0.2035640580783898 0  0.4517504165552094 0.2039070625502732 0  0.4071070238280551 0.1961993303999926 0  0.3234846806957546 0.2047001437739977 0  0.5551679484379799 0.1952998562260008 0  0.5457754356464107 0.1954447171286166 0  0.3329307555206357 0.2046017509710421 0  0.4541577316841968 0.1960357661898101 0  0.3358300776141575 0.1950765652117375 0  0.2539718587514912 0.200011552766824 0  0.5826472073721517 0.2039971170156656 0  0.2761021761080182 0.1946948236183283 0  0.3898581462796225 0.2041572776584344 0  0.3552515063402743 0.2041572776584256 0  0.2965028074750666 0.2046578268138723 0  0.4299158836614793 0.1951782397873778 0  0.379426563923736 0.2049969334481307 0  0.2860882692072842 0.2042624797643994 0  0.3449948044168807 0.2051793676155613 0  0.2603922435707652 0.1950997711614917 0  0.5949856943860
[...]
<PointData  Vectors="f_18-1"> 
<DataArray  type="Float64"  Name="f_18-1"  NumberOfComponents="3" format="ascii">-5.0213949223092613e-03 -4.5886499967307308e-02 0.0000000000000000e+00  -1.7273228058647071e-03 -4.6159632669505839e-02 0.0000000000000000e+00  0.0000000000000000e+00 0.0000000000000000e+00 0.0000000000000000e+00  0.0000000000000000e+00 0.0000000000000000e+00 0.0000000000000000e+00  -3.3743510221596641e-03 -4.6023071596814638e-02 0.0000000000000000e+00  0.0000000000000000e+00 0.0000000000000000e+00 0.0000000000000000e+00  0.0000000000000000e+00 0.0000000000000000e+00 0.0000000000000000e+00  0.0000000000000000e+00 0.0000000000000000e+00 0.0000000000000000e+00  0.0000000000000000e+00 0.0000000000000000e+00 0.0000000000000000e+00  7.4268948362614745e-05 -6.5376422813802693e-05 0.0000000000000000e+00  1.5472469413027029e-04 -1.3619627240155704e-04 0.0000000000000000e+00  2.3373758231343096e-04 -2.2610640562355258e-04 0.0000000000000000e+00  3.0727185250303471e-04 -3.7416546627073625e-04 0.0000000000000000e+00  3.7550226183190061e-04 -5.5301520202475328e-04 0.0000000000000000e+00  4.4487958918769767e-04 -7.7571414905949158e-04 0.0000000000000000e+00  5.0554693519991680e-04 -1.0204876412764994e-03 0.0000000000000000e+00  5.5760191146571358e-04 -1.3045072056860343e-03 0.0000000000000000e+00  6.0826932614137285e-04 -1.6188215170627128e-03 0.0000000000000000e+00  6.5263580249594864e-04 -1.9630116981220009e-03 0.0000000000000000e+00  6.9742612088228694e-04 -2.3466104181417364e-03 0.0000000000000000e+00  7.4072233953226458e-04 -2.7361738972422750e-03 0.0000000000000000e+00  7.7159473267224016e-04 -3.1691203423480324e-03 0.0000000000000000e+00  8.0914409959256665e-04 -3.6245793718528000e-03 0.0000000000000000e+00  8.3251244006079541e-04 -4.1005012736014188e-03 0.0000000000000000e+00  8.5494674445091496e-04 -4.6058419062404588e-03 0.0000000000000000e+00  8.7218730376153141e-04 -5.1278742579539622e-03 0.0000000000000000e+00  8.8409641990511189e-04 -5.6779472423116985e-03 0.0000000000000000e+00  8.9008517773795206e-04 -6.2389197379690460e-03 0.0000000000000000e+00  8.9259203092276846e-04 -6.8230192664356570e-03 0.0000000000000000e+00  8.9008879318550537e-04 -7.4227019814710506e-03 0.0000000000000000e+00  8.8242464045510348e-04 -8.0372954471009863e-03 0.0000000000000000e+00  8.7400226089966681e-04 -8.6758477390285315e-03 0.0000000000000000e+00  8.6461474279260952e-04 -9.3175245579122552e-03 0.0000000000000000e+00  8.4839603697753026e-04 -9.9802099122744438e-03 0.0000000000000000e+00  8.2827355998165515e-04 -1.0650923378691182e-02 0.0000000000000000e+00  8.0518479054778513e-04 -1.1336546327476157e-02 0.0000000000000000e+00  7.7865990046525912e-04 -1.2032559079829818e-02 0.0000000000000000e+00  7.4821548038489570e-04 -1.2738081838273121e-02 0.0000000000000000e+00  7.1682703960363912e-04 -1.3458919072775783e-02 0.0000000000000000e+00  6.8472789741374682e-04 -1.4181011502422394e-02 0.0000000000000000e+00  6.4650573570141723e-04 -1.4916221551883652e-02 0.0000000000000000e+00  6.0715696415892465e-04 -1.5661214039342661e-02 0.0000000000000000e+00  5.6700274288101532e-04 -1.6408362488512199e-02 0.0000000000000000e+00  5.2210276652597972e-04 -1.7166374335575118e-02 0.0000000000000000e+00  4.7793779702682909e-04 -1.7929490051189628e-02 0.0000000000000000e+00  4.2955779889602286e-04 -1.8698603949690897e-02 0.0000000000000000e+00  3.8125938795242485e-04 -1.9474424336248464e-02 0.0000000000000000e+00  3.2978767581858822e-04 -2.0253957610759158e-02 0.0000000000000000e+00  2.7656593926646332e-04 -2.1039012393793789e-02 0.0000000000000000e+00  2.2254456169823120e-04 -2.1827759454500391e-02 0.0000000000000000e+00  1.6718788523013121e-04 -2.2620648435815793e-02 0.0000000000000000e+00  1.0969932559442602e-04 -2.3417101915136625e-02 0.0000000000000000e+00  5.1609988697552512e-05 -2.4216241013708475e-02 0.0000000000000000e+00  -7.6641457801512594e-06 -2.5018479332047136e-02 0.0000000000000000e+00  -6.8532602935472640e-05 -2.5823216887858273e-02 0.0000000000000000e+00  -1.3005500829165031e-04 -2.6629742831121499e-02 0.0000000000000000e+00  -1.9249857458526580e-04 -2.7438339211946404e-02 0.0000000000000000e+00  -2.5601795899454066e-04 -2.8248370867547421e-02 0.0000000000000000e+00  -3.2004058625940301e-04 -2.9059456843785438e-02 0.0000000000000000e+00  -3.8472065068060837e-04 -2.9871746208176068e-02 0.0000000000000000e+00  -4.5009154759761998e-04 -3.0684816942888202e-02 0.0000000000000000e+00  -5.1581512838042324e-04 -3.1498394404821856e-02 0.0000000000000000e+00  -5.8198064226616241e-04 -3.2312565618371356e-02 0.0000000000000000e+00  -6.4853848519050002e-04 -3.3127051500610433e-02 0.0000000000000000e+00  -7.1529990248540094e-04 -3.3941714063139700e-02 0.0000000000000000e+00  -7.8231907962396624e-04 -3.4756559665808803e-02 0.0000000000000000e+00  -8.4954977495194008e-04 -3.5571443712233544e-02 0.0000000000000000e+00  -9.1691186834517958e-04 -3.6386336816225932e-02 0.0000000000000000e+00  -9.8436706071637148e-04 -3.7201176623973882e-02 0.0000000000000000e+00  -1.0518853615957403e-03 -3.8015918849110202e-02 0.0000000000000000e+00  -1.1194380023444893e-03 -3.8830617076578526e-02 0.0000000000000000e+00  -1.1870145449996022e-03 -3.9645197775198864e-02 0.0000000000000000e+00  -1.2546165125432195e-03 -4.0459682764457557e-02 0.0000000000000000e+00  -1.3221817501961330e-03 -4.1274095169297434e-02 0.0000000000000000e+00  -1.3897397629112119e-03 -4.2088407657463134e-02 0.0000000000000000e+00  -1.4572836265960858e-03 -4.2902704185783763e-02 0.0000000000000000e+00  -1.5247994048949510e-03 -4.3716946368670961e-02 0.0000000000000000e+00  -1.5923103061844853e-03 -4.4531165302471372e-02 0.0000000000000000e+00  -1.6598158832557867e-03 -4.5345398229894619e-02 0.0000000000000000e+00  -4.9538893467630171e-03 -4.5072225796640532e-02 0.0000000000000000e+00  -4.8864188206946208e-03 -4.4257950748943356e-02 0.0000000000000000e+00  -4.8189680786950347e-03 -4.3443687025348260e-02 0.0000000000000000e+00  -4.7515556591301682e-03 -4.2629390802791531e-02 0.0000000000000000e+00  -4.6841731927533756e-03 -4.1815044898364385e-02 0.0000000000000000e+00  -4.6168103255969633e-03 -4.1000661439350751e-02 0.0000000000000000e+00  -4.5494608132806771e-03 -4.0186180818744421e-02 0.0000000000000000e+00  -4.4821374447053964e-03 -3.9371613575287463e-02 0.0000000000000000e+00  -4.4147794606594574e-03 -3.8556964525867730e-02 0.0000000000000000e+00  -4.3474005127036603e-03 -3.7742214841533436e-02 0.0000000000000000e+00  -4.2799749373928176e-03 -3.6927408035846140e-02 0.0000000000000000e+00  -4.2124778386942764e-03 -3.6112538583878348e-02 0.0000000000000000e+00  -4.1448871997049738e-03 -3.5297671465414904e-02 0.0000000000000000e+00  -4.0772029966119616e-03 -3.4482811521599238e-02 0.0000000000000000e+00  -4.0093973610010464e-03 -3.3668068450528152e-02 0.0000000000000000e+00  -3.9413901253429898e-03 -3.2853633588531939e-02 0.0000000000000000e+00  -3.8732068570175430e-03 -3.2039296771729842e-02 0.0000000000000000e+00  -3.8049289281898236e-03 -3.1225494177479649e-02 0.0000000000000000e+00  -3.7363124125258610e-03 -3.0412503519222908e-02 0.0000000000000000e+00  -3.6674131989932151e-03 -2.9599756050672943e-02 0.0000000000000000e+00  -3.5985170005646346e-03 -2.8788230735084821e-02 0.0000000000000000e+00  -3.5291328066145728e-03 -2.7978291759484207e-02 0.0000000000000000e+00  -3.4593472408737990e-03 -2.7168807431848012e-02 0.0000000000000000e+00  -3.3897720490240965e-03 -2.6361526485993929e-02 0.0000000000000000e+00  -3.3195335294051369e-03 -2.5556945519964923e-02 0.0000000000000000e+00  -3.2488435095401474e-03 -2.4753449610693441e-02 0.0000000000000000e+00  -3.1782870531149926e-03 -2.3952850832543598e-02 0.0000000000000000e+00  -3.1071232400728221e-03 -2.3156561758995685e-02 0.0000000000000000e+00  -3.0356226765320903e-03 -2.2361035748506990e-02 0.0000000000000000e+00  -2.9653121895755054e-03 -2.1570504629255565e-02 0.0000000000000000e+00  -2.8935518995384145e-03 -2.0786050197870654e-02 0.0000000000000000e+00  -2.8211218140136141e-03 -2.0003154271509789e-02 0.0000000000000000e+00  -2.7494729498240751e-03 -1.9227081637315527e-02 0.0000000000000000e+00  -2.6783064510099378e-03 -1.8454773051963132e-02 0.0000000000000000e+00  -2.6069678151989040e-03 -1.7688635659456223e-02 0.0000000000000000e+00  -2.5364404167048699e-03 -1.6930561330401772e-02 0.0000000000000000e+00  -2.4640854303924018e-03 -1.6176936260022035e-02 0.0000000000000000e+00  -2.3931612322021390e-03 -1.5431788285339162e-02 0.0000000000000000e+00  -2.3210258061345285e-03 -1.4694028578835779e-02 0.0000000000000000e+00  -2.2483263468938580e-03 -1.3965115775148817e-02 0.0000000000000000e+00  -2.1763528753949196e-03 -1.3245935834698677e-02 0.0000000000000000e+00  -2.1064619492657945e-03 -1.2534109989910870e-02 0.0000000000000000e+00  -2.0372275504639912e-03 -1.1833704144089687e-02 0.0000000000000000e+00  -1.9631095435633837e-03 -1.1141848781982128e-02 0.0000000000000000e+00  -1.8936361058210927e-03 -1.0463559318357475e-02 0.0000000000000000e+00  -1.8195759879934246e-03 -9.7992173074584847e-03 0.0000000000000000e+00  -1.7498227440628849e-03 -9.1453055890578921e-03 0.0000000000000000e+00  -1.6786880323434302e-03 -8.5088177247309108e-03 0.0000000000000000e+00  -1.6101195026429654e-03 -7.8830099170470215e-03 0.0000000000000000e+00  -1.5424978778812153e-03 -7.2750289330274212e-03 0.0000000000000000e+00  -1.4674577701921346e-03 -6.6798661421659002e-03 0.0000000000000000e+00  -1.3994538529537299e-03 -6.1043683379497140e-03 0.0000000000000000e+00  -1.3239044098536290e-03 -5.5502287723357214e-03 0.0000000000000000e+00  -1.2572128937829591e-03 -5.0131219642791979e-03 0.0000000000000000e+00  -1.1878588856569555e-03 -4.5054952539451592e-03 0.0000000000000000e+00  -1.1157550172483661e-03 -4.0047962879532564e-03 0.0000000000000000e+00  -1.0479279877659831e-03 -3.5368762566178997e-03 0.0000000000000000e+00  -9.6900060543496575e-04 -3.0913781638522717e-03 0.0000000000000000e+00  -9.0064838356891479e-04 -2.6689726056524665e-03 0.0000000000000000e+00  -8.2917045015869488e-04 -2.2809055237626870e-03 0.0000000000000000e+00  -7.6027356174099964e-04 -1.9124219818056505e-03 0.0000000000000000e+00  -6.9214435638973891e-04 -1.5781708008269521e-03 0.0000000000000000e+00  -6.1299942953891792e-04 -1.2674326696767350e-03 0.0000000000000000e+00  -5.4590664673499344e-04 -9.8995091304974721e-04 0.0000000000000000e+00  -4.6526389396939010e-04 -7.4474980555057737e-04 0.0000000000000000e+00  -3.9375294645835113e-04 -5.3994476431603352e-04 0.0000000000000000e+00  -3.1023347729321334e-04 -3.6927891247119963e-04 0.0000000000000000e+00  -2.3370192405450937e-04 -2.2507052834908067e-04 0.0000000000000000e+00  -1.5708906782189481e-04 -1.2320964737959887e-04 0.0000000000000000e+00  -7.8515387930191540e-05 -6.9397903419125817e-05 0.0000000000000000e+00  -4.1978705651222817e-03 -4.5954786669626185e-02 0.0000000000000000e+00  -2.5508272953205990e-03 -4.6091353245446096e-02 0.0000000000000000e+00  8.9106169293308864e-06 -6.9529005281850225e-05 0.0000000000000000e+00  -2.5984175590696040e-03 -3.6656841254019017e-02 0.0000000000000000e+00  -2.9457386618068327e-03 -4.0791535950139131e-02 0.0000000000000000e+00  2.1066236777886819e-05 -6.5479758066292382e-04 0.0000000000000000e+00  -2.2149150953517213e-03 -3.1827120880283492e-02 0.0000000000000000e+00  -2.4170851836076875e-03 -3.4271018517854225e-02 0.0000000000000000e+00  -8.4165641808416408e-05 -1.6210002495619692e-03 0.0000000000000000e+00  -3.2145307516935964e-03 -4.3180385426304577e-02 0.0000000000000000e+00  -8.5422084025795432e-05 -2.8446652479376536e-03 0.0000000000000000e+00  -1.2487829542848911e-04 -5.4808154795715153e-03 0.0000000000000000e+00  -2.0134261968387502e-03 -2.9387062472385792e-02 0.0000000000000000e+00  -3.3993884820525503e-04 -7.6323512353293384e-03 0.0000000000000000e+00  -1.8133865262401762e-03 -2.6955518632233694e-02 0.0000000000000000e+00  -4.6635235374277949e-04 -9.6210889958275852e-03 0.0000000000000000e+00  -6.5038987113251706e-04 -1.2270519298393900e-02 0.0000000000000000e+00  -1.6692644347110379e-03 -2.4474307544335567e-02 0.0000000000000000e+00  -1.4019480370802827e-03 -2.2089855649557524e-02 0.0000000000000000e+00  -7.8903544615671671e-04 -1.4372881355163162e-02 0.0000000000000000e+00  -9.7557695607289731e-04 -1.6659540472637221e-02 0.0000000000000000e+00  -1.2087077220863816e-03 -1.9632664521719047e-02 0.0000000000000000e+00  -1.2260098052249525e-04 -3.7374194025844077e-03 0.0000000000000000e+00  -2.8081389839972998e-03 -3.9171542505827071e-02 0.0000000000000000e+00  -1.0993942209282519e-03 -1.7969324673749204e-02 0.0000000000000000e+00  -2.6182918781172867e-04 -6.5978930971282409e-03 0.0000000000000000e+00  -5.4608898225760036e-04 -1.1072216026651318e-02 0.0000000000000000e+00  -2.3106661249331551e-05 -1.1075391934861792e-03 0.0000000000000000e+00  -3.5422099706955024e-03 -4.4536955267874906e-02 0.0000000000000000e+00  4.3231727091693372e-05 -2.9486782639928086e-04 0.0000000000000000e+00  -1.1362591218207160e-03 -2.3311376177689573e-02 0.0000000000000000e+00  -1.5241772292720521e-03 -2.8141691796980766e-02 0.0000000000000000e+00  -1.7234177947593179e-03 -3.0578162027728357e-02 0.0000000000000000e+00  -1.0529509933933003e-03 -1.3314989055172715e-02 0.0000000000000000e+00  -1.3279227743336172e-03 -2.5716792403097273e-02 0.0000000000000000e+00  -1.9244713869072767e-03 -3.3020588591242024e-02 0.0000000000000000e+00  -9.5124585493425607e-04 -2.0934683681691792e-02 0.0000000000000000e+00  -2.1264619083795136e-03 -3.5465235840988631e-02 0.0000000000000000e+00  -1.2275014605473708e-03 -1.5510366198637906e-02 0.0000000000000000e+00  -6.8664745067291996e-04 -8.5523693152871495e-03 0.0000000000000000e+00  -2.3125809694165794e-04 -2.2676473066061353e-03 0.0000000000000000e+00  -3.4076407149547377e-03 -4.1921034529376448e-02 0.0000000000000000e+00  -3.1713681148048405e-03 -3.7822992820394051e-02 0.0000000000000000e+00  1.2699420996941654e-04 -4.5494748905897360e-03 0.0000000000000000e+00  -2.0376028304184349e-03 -3.7578306136267468e-02 0.0000000000000000e+00  -5.7316675103346595e-04 -4.7306621332447226e-03 0.0000000000000000e+00  -3.1654897129200226e-03 -3.5742505488511218e-02 0.0000000000000000e+00  -2.9626574733525343e-03 -3.3297863311989466e-02 0.0000000000000000e+00  -2.7594488253943551e-03 -3.0855245780439026e-02 0.0000000000000000e+00  -2.4285734941968751e-03 -4.2365564175474449e-02 0.0000000000000000e+00  2.3425434743967174e-04 -2.1203444105314692e-03 0.0000000000000000e+00  -2.3527249465568265e-03 -2.5992387432209680e-02 0.0000000000000000e+00  -2.5559988259715527e-03 -2.8418245022887402e-02 0.0000000000000000e+00  -1.4711892700170888e-04 -1.3062644566242735e-02 0.0000000000000000e+00  1.0852592662166317e-04 -8.3234687838736228e-03 0.0000000000000000e+00  -2.0917600098246925e-03 -2.2879195145515601e-02 0.0000000000000000e+00  -1.9498196246886014e-03 -2.1205952722313237e-02 0.0000000000000000e+00  -2.8700970203050390e-04 -1.5251018044967002e-02 0.0000000000000000e+00  -3.3871202909487919e-05 -3.0700598497200835e-05 0.0000000000000000e+00  2.5657108000371635e-05 -2.3894467419005691e-05 0.0000000000000000e+00  -5.7037957299386588e-04 -1.9068174156125751e-02 0.0000000000000000e+00  -1.0118032710912162e-03 -1.0114159290499839e-02 0.0000000000000000e+00  -6.8248767190639084e-04 -5.8620574309339512e-03 0.0000000000000000e+00  -2.0940101109183064e-04 -8.4377312119648083e-04 0.0000000000000000e+00  -2.6970899721099419e-04 -1.4110609421556252e-03 0.0000000000000000e+00  -4.2974558778649823e-04 -1.7495220144425162e-02 0.0000000000000000e+00  -7.7292427496667608e-04 -6.9771174256344388e-03 0.0000000000000000e+00  -1.1499286874301292e-03 -1.1507901520616304e-02 0.0000000000000000e+00  -4.5514253518250239e-04 -3.3883432501345687e-03 0.0000000000000000e+00  -2.2348197670716118e-03 -3.9841192237182597e-02 0.0000000000000000e+00  -3.5081950779137340e-03 -3.9782988664287276e-02 0.0000000000000000e+00  2.3970265226758465e-04 -3.3840760917354172e-03 0.0000000000000000e+00  -1.5018798651004290e-04 -4.0725536379631163e-04 0.0000000000000000e+00  -2.4231017356738712e-03 -4.3996138918953966e-02 0.0000000000000000e+00  -1.8642494715164033e-03 -1.8945823444676883e-02 0.0000000000000000e+00  -1.6646302654658278e-03 -1.7345695186296532e-02 0.0000000000000000e+00  3.0223850264359474e-04 -5.8787374530515695e-03 0.0000000000000000e+00  2.1446954610352309e-04 -8.3666915936053340e-04 0.0000000000000000e+00  2.6514853240336341e-04 -1.4414281949738307e-03 0.0000000000000000e+00  1.0460545974738349e-04 -1.0209843071809126e-02 0.0000000000000000e+00  3.1527162352900880e-04 -7.0196771292026176e-03 0.0000000000000000e+00  1.2241274155796593e-04 -1.1567023766028393e-02 0.0000000000000000e+00  -9.4963820321564967e-05 -2.1496090170842436e-04 0.0000000000000000e+00  -2.6311948901550429e-03 -4.5143556996931768e-02 0.0000000000000000e+00  -3.1651077558862502e-03 -3.4775948930380551e-02 0.0000000000000000e+00  -2.9621105546562389e-03 -3.2331841620982432e-02 0.0000000000000000e+00  2.7531515070007074e-04 -2.5826175831003295e-03 0.0000000000000000e+00  -2.7586826521778587e-03 -2.9890997044549873e-02 0.0000000000000000e+00  -2.2714972090343982e-03 -4.1414807654876359e-02 0.0000000000000000e+00  -2.5550090814139186e-03 -2.7457737272285128e-02 0.0000000000000000e+00  -2.3528077153588487e-03 -2.5045372482644334e-02 0.0000000000000000e+00  1.3461495277348394e-04 -9.0816091496382107e-03 0.0000000000000000e+00  -2.2477817356526589e-03 -2.3805130332184288e-02 0.0000000000000000e+00  -1.3189035619451349e-04 -1.3917892216756272e-02 0.0000000000000000e+00  -1.9509298792432267e-03 -2.0275867083047339e-02 0.0000000000000000e+00  -2.7436551448610134e-04 -1.6135251415025250e-02 0.0000000000000000e+00  -3.8997115653549926e-03 -4.3741707888136694e-02 0.0000000000000000e+00  -2.0182413375536986e-03 -3.8532743391864681e-02 0.0000000000000000e+00  -5.8181941016458081e-04 -4.1403550803446069e-03 0.0000000000000000e+00  1.6845377347361845e-04 -4.4285198781614330e-04 0.0000000000000000e+00  8.9903017082976672e-05 -1.7207483603040669e-04 0.0000000000000000e+00  -6.9133629665945142e-04 -2.2573815638102818e-02 0.0000000000000000e+00  -1.6232098845176258e-03 -1.6186433391001998e-02 0.0000000000000000e+00  -8.7633909096692883e-04 -2.4971548629865208e-02 0.0000000000000000e+00  -1.4799389738983943e-03 -3.2262390552281028e-02 0.0000000000000000e+00  -1.0838170402874346e-03 -2.7387721193407051e-02 0.0000000000000000e+00  -1.2803724535787515e-03 -2.9821326533230174e-02 0.0000000000000000e+00  -1.3465706063192798e-03 -1.4026066220152511e-02 0.0000000000000000e+00  -5.4239996964513756e-04 -2.0223094918773082e-02 0.0000000000000000e+00  -1.0174830906737654e-03 -9.1444240005998188e-03 0.0000000000000000e+00  -1.3412204269789422e-03 -1.2602775305183465e-02 0.0000000000000000e+00  -1.7956688759482450e-03 -3.6285854936820211e-02 0.0000000000000000e+00  -9.3978027403831133e-04 -7.9299467792882748e-03 0.0000000000000000e+00  -1.7938553959602368e-03 -3.4666799375363239e-02 0.0000000000000000e+00  -4.3797701302264084e-04 -2.6341987250065968e-03 0.0000000000000000e+00  -3.7762899549304192e-04 -1.9073250908822499e-03 0.0000000000000000e+00  -3.8308187526614498e-03 -4.2614096912562266e-02 0.0000000000000000e+00  -3.7383551397550219e-03 -4.1101019598550850e-02 0.0000000000000000e+00  -1.5773883391022425e-03 -3.1448291997175623e-02 0.0000000000000000e+00  -1.3780661361794838e-03 -2.9009107277497847e-02 0.0000000000000000e+00  -9.4600296581438218e-04 -2.4140426382774190e-02 0.0000000000000000e+00  -1.7375454394056124e-03 -3.3870527233452616e-02 0.0000000000000000e+00  -1.1818220421644088e-03 -2.6579244523348294e-02 0.0000000000000000e+00  -7.4854792493560046e-04 -2.1755248211526676e-02 0.0000000000000000e+00  -1.3972299776608306e-03 -1.4740361659202748e-02 0.0000000000000000e+00  3.1694867062599056e-04 -4.0846796630783231e-03 0.0000000000000000e+00  -3.5369049661140963e-03 -3.8573866443728413e-02 0.0000000000000000e+00  -3.3848764693017925e-03 -3.7027871163412863e-02 0.0000000000000000e+00  2.9544895008912214e