<?xml version="1.0"?>
<VTKFile type="UnstructuredGrid"  version="0.1"  >
<UnstructuredGrid>
<Piece  NumberOfPoints="439" NumberOfCells="725">
<Points>
<DataArray  type="Float64"  NumberOfComponents="3"  format="ascii">0.6 0.19 0  0.6 0.21 0  0.2489897949 0.21 0  0.2489897949 0.19 0  0.6 0.2 0  0.2496355385699469 0.2060260530378829 0  0.249959460510575 0.2020130349814059 0  0.2499594605105767 0.1979869650186357 0  0.24963553856995 0.1939739469621422 0  0.2539336006056293 0.21 0  0.2588774063112542 0.21 0  0.2638212120168921 0.21 0  0.26876501772253 0.21 0  0.2737088234281569 0.21 0  0.2786526291337753 0.21 0  0.2835964348393937 0.21 0  0.2885402405450166 0.21 0  0.2934840462506522 0.21 0  0.2984278519562708 0.21 0  0.3033716576618997 0.21 0  0.3083154633675181 0.21 0  0.3132592690731365 0.21 0  0.3182030747787549 0.21 0  0.3231468804843732 0.21 0  0.3280906861899917 0.21 0  0.3330344918956208 0.21 0  0.3379782976012284 0.21 0  0.3429221033068576 0.21 0  0.347865909012476 0.21 0  0.3528097147180944 0.21 0  0.3577535204237128 0.21 0  0.3626973261293311 0.21 0  0.3676411318349495 0.21 0  0.3725849375405788 0.21 0  0.3775287432461877 0.21 0  0.382472548951812 0.21 0  0.3874163546574338 0.21 0  0.3923601603630631 0.21 0  0.3973039660686706 0.21 0  0.4022477717742986 0.21 0  0.4071915774799107 0.21 0  0.4121353831855311 0.21 0  0.4170791888911518 0.21 0  0.4220229945967636 0.21 0  0.4269668003023918 0.21 0  0.4319106060080253 0.21 0  0.4368544117136773 0.21 0  0.4417982174193329 0.21 0  0.4467420231249967 0.21 0  0.4516858288306445 0.21 0  0.4566296345362864 0.21 0  0.461573440241916 0.21 0  0.4665172459475665 0.21 0  0.4714610516531998 0.21 0  0.4764048573588668 0.21 0  0.4813486630645134 0.21 0  0.486292468770176 0.21 0  0.4912362744758066 0.21 0  0.4961800801814611 0.21 0  0.5011238858870897 0.21 0  0.5060676915927493 0.21 0  0.5110114972983872 0.21 0  0.5159553030040036 0.21 0  0.5208991087096415 0.21 0  0.5258429144153002 0.21 0  0.5307867201209391 0.21 0  0.5357305258265987 0.21 0  0.5406743315322367 0.21 0  0.5456181372378529 0.21 0  0.5505619429434908 0.21 0  0.5555057486491456 0.21 0  0.5604495543547885 0.21 0  0.565393360060448 0.21 0  0.5703371657661116 0.21 0  0.5752809714717458 0.21 0  0.5802247771773834 0.21 0  0.5851685828830341 0.21 0  0.5901123885886809 0.21 0  0.5950561942943404 0.21 0  0.5950561942943833 0.19 0  0.590112388588758 0.19 0  0.5851685828831193 0.19 0  0.5802247771774727 0.19 0  0.5752809714718514 0.19 0  0.5703371657662308 0.19 0  0.565393360060618 0.19 0  0.5604495543549889 0.19 0  0.5555057486493581 0.19 0  0.5505619429437035 0.19 0  0.5456181372381043 0.19 0  0.540674331532505 0.19 0  0.5357305258268962 0.19 0  0.530786720121263 0.19 0  0.5258429144156628 0.19 0  0.5208991087100244 0.19 0  0.5159553030044218 0.19 0  0.5110114972988226 0.19 0  0.5060676915932177 0.19 0  0.5011238858875806 0.19 0  0.496180080181972 0.19 0  0.4912362744763531 0.19 0  0.4862924687707343 0.19 0  0.4813486630651046 0.19 0  0.4764048573594966 0.19 0  0.4714610516538683 0.19 0  0.4665172459482555 0.19 0  0.4615734402426349 0.19 0  0.4566296345370104 0.19 0  0.4516858288313808 0.19 0  0.4467420231257716 0.19 0  0.4417982174201465 0.19 0  0.4368544117145297 0.19 0  0.4319106060089131 0.19 0  0.4269668003032866 0.19 0  0.4220229945976482 0.19 0  0.4170791888920056 0.19 0  0.4121353831863594 0.19 0  0.4071915774806995 0.19 0  0.4022477717750478 0.19 0  0.3973039660693901 0.19 0  0.3923601603637548 0.19 0  0.3874163546581082 0.19 0  0.3824725489524824 0.19 0  0.3775287432468258 0.19 0  0.3725849375411773 0.19 0  0.3676411318355085 0.19 0  0.3626973261298614 0.19 0  0.3577535204242108 0.19 0  0.352809714718589 0.19 0  0.347865909012931 0.19 0  0.342922103307292 0.19 0  0.3379782976016536 0.19 0  0.3330344918960152 0.19 0  0.3280906861903751 0.19 0  0.3231468804847171 0.19 0  0.3182030747790592 0.19 0  0.3132592690734012 0.19 0  0.3083154633677581 0.19 0  0.3033716576621197 0.19 0  0.2984278519564813 0.19 0  0.2934840462508429 0.19 0  0.2885402405451874 0.19 0  0.2835964348395295 0.19 0  0.2786526291338716 0.19 0  0.2737088234282243 0.19 0  0.268765017722586 0.19 0  0.2638212120169476 0.19 0  0.2588774063113093 0.19 0  0.2539336006056579 0.19 0  0.6 0.1949999999999783 0  0.6 0.2049999999999729 0  0.2589734265316493 0.2005523893428403 0  0.5431462343853077 0.199999999999969 0  0.5682397894768162 0.1999704585808987 0  0.2774513927118024 0.2007941919421926 0  0.513849583376897 0.1999023426490919 0  0.5286810004937381 0.1999023426490969 0  0.2945108952057646 0.1992911908405386 0  0.5827780831384927 0.1995429801003349 0  0.3104128396569256 0.1999704585808978 0  0.3370001755418551 0.2008294612433967 0  0.4990181662600459 0.1999023426490902 0  0.3552816175709044 0.2000000000000608 0  0.4841867491431925 0.1999023426490849 0  0.3707373713905551 0.2000142376953689 0  0.3898882575102495 0.2000000000000828 0  0.4689857550492734 0.1995416724256694 0  0.4541577316841967 0.1999999999999098 0  0.4043534914018331 0.2000976573509244 0  0.4195510917439569 0.2000000000001057 0  0.4387019778644512 0.1999857623046772 0  0.3202472750256703 0.2000088842146399 0  0.5584053541080851 0.1999911157853577 0  0.4280667146887134 0.1998489048208241 0  0.3467659946265474 0.2001510951794375 0  0.3813726345658908 0.200151095179452 0  0.2860683376922098 0.2000415445706182 0  0.5911223811781194 0.1982449159348744 0  0.2679893161458627 0.201675125646729 0  0.4615734402426278 0.2022503633288003 0  0.4912362744763454 0.2022503633288091 0  0.5060676915931983 0.2022503633288118 0  0.3973039660686774 0.1977496366711965 0  0.4764048573594896 0.2022503633288051 0  0.5208991087100455 0.2022503633288184 0  0.4467420231257656 0.2022503633288 0  0.5357305258268849 0.2022503633288198 0  0.4121353831855317 0.1977496366711976 0  0.3626973261293352 0.1977496366711919 0  0.3033716576618961 0.1977496366711869 0  0.5752809714718229 0.1977496366711503 0  0.550459855919056 0.1971284784737667 0  0.3281927732146841 0.2028715215262406 0  0.5484179020497461 0.2038403215694763 0  0.3302347270839988 0.1961596784305491 0  0.5379210852238114 0.196125181664411 0  0.5230896681069652 0.1961251816644058 0  0.5082582509901222 0.1961251816644098 0  0.5774715308687094 0.2038748183355887 0  0.3011810982649548 0.2038748183355937 0  0.4785954167564111 0.196125181664404 0  0.4934268338732671 0.1961251816644063 0  0.395113406671763 0.2038748183355966 0  0.3605067667324117 0.2038748183355951 0  0.4593828808457146 0.1961251816643993 0  0.4489325825226805 0.1961251816644007 0  0.4099448237886219 0.2038748183355991 0  0.2557862999801971 0.1960858370257295 0  0.2550147360309399 0.2034426429991114 0  0.4348031476464689 0.2037737577641554 0  0.37463620160841 0.1962262422358553 0  0.3406258365864304 0.196046792193989 0  0.2813001681189834 0.1960467921940502 0  0.2912686387439893 0.1960816328649282 0  0.4246705335819892 0.2039532078059544 0  0.350162175732913 0.1960467921941878 0  0.3847688156722694 0.1960467921942359 0  0.316632368538356 0.19615945856337 0  0.5621550011053409 0.2037816492598991 0  0.5624413877019769 0.1960761923611377 0  0.3162395035833128 0.2038679557424692 0  0.2710887134207622 0.1959696443325838 0  0.5873014376403604 0.2047227881030823 0  0.4346679566442709 0.1954651459552513 0  0.4243296504077986 0.1958756980939062 0  0.3402559510833523 0.2047940500290923 0  0.2808684926760933 0.2047742417812656 0  0.2914077033138723 0.2047809517070955 0  0.3747713926104932 0.2045348540448554 0  0.3499216488898867 0.2051753413186305 0  0.3845282888292298 0.205175341318636 0  0.2648144865455052 0.1962089742986374 0  0.5943247643662894 0.2040415423589182 0  0.5320972610456145 0.1956445099050872 0  0.5172658439287727 0.1956445099050854 0  0.3069923255602658 0.2043468033872551 0  0.5024344268119265 0.1956445099050864 0  0.5716603035734351 0.2043468033872761 0  0.4876030096950741 0.1956445099050831 0  0.4728151975296263 0.1956402468909894 0  0.3663301776527538 0.20436745486386 0  0.4651631000724991 0.1956402468909893 0  0.4009372308499527 0.2043554900949198 0  0.4431091716023345 0.1956325451361429 0  0.4157593408842466 0.2043565497109067 0  0.5865057328865416 0.1956918868509067 0  0.5541600609760193 0.2044335994013721 0  0.3244925681577497 0.1955664005986376 0  0.272008018888917 0.2049327968152409 0  0.2633407725863902 0.2042483236346266 0  0.4567948413982566 0.2046536472831198 0  0.4167680012832803 0.1955060004091903 0  0.4716262585151221 0.2046536472831242 0  0.5161054367030595 0.2045563706470633 0  0.4864426024693469 0.2045563706470604 0  0.5012740195862044 0.2045563706470634 0  0.4022810343427545 0.1961423961483001 0  0.4420739040821668 0.2044853411424516 0  0.3673807293464664 0.1955677741328205 0  0.3925253672243162 0.195346352716901 0  0.5405091246712254 0.2046536472831267 0  0.357918727284983 0.1953463527168901 0  0.5307534575528717 0.2038576038516682 0  0.3079697655029555 0.1955637092892754 0  0.2985930588175599 0.1953463527168728 0  0.579671714346879 0.1955441268455555 0  0.5705023726275059 0.1953463527168462 0  0.5112451461103119 0.2035640580783926 0  0.4964137289934448 0.2035640580783915 0  0.4665727251511405 0.2038238154617746 0  0.5259274680675793 0.2038006696000127 0  0.4815823118765752 0.2035640580783898 0  0.4517504165552094 0.2039070625502732 0  0.4071070238280551 0.1961993303999926 0  0.3234846806957546 0.2047001437739977 0  0.5551679484379799 0.1952998562260008 0  0.5457754356464107 0.1954447171286166 0  0.3329307555206357 0.2046017509710421 0  0.4541577316841968 0.1960357661898101 0  0.3358300776141575 0.1950765652117375 0  0.2539718587514912 0.200011552766824 0  0.5826472073721517 0.2039971170156656 0  0.2761021761080182 0.1946948236183283 0  0.3898581462796225 0.2041572776584344 0  0.3552515063402743 0.2041572776584256 0  0.2965028074750666 0.2046578268138723 0  0.4299158836614793 0.1951782397873778 0  0.379426563923736 0.2049969334481307 0  0.2860882692072842 0.2042624797643994 0  0.3449948044168807 0.2051793676155613 0  0.2603922435707652 0.1950997711614917 0  0.5949856943860
[...]
<PointData  Vectors="f_18-1"> 
<DataArray  type="Float64"  Name="f_18-1"  NumberOfComponents="3" format="ascii">-1.3548708715189392e-02 -7.9194658864073342e-02 0.0000000000000000e+00  -7.5132957646411617e-03 -8.0127125092619322e-02 0.0000000000000000e+00  0.0000000000000000e+00 0.0000000000000000e+00 0.0000000000000000e+00  0.0000000000000000e+00 0.0000000000000000e+00 0.0000000000000000e+00  -1.0530954611215003e-02 -7.9660890452388708e-02 0.0000000000000000e+00  0.0000000000000000e+00 0.0000000000000000e+00 0.0000000000000000e+00  0.0000000000000000e+00 0.0000000000000000e+00 0.0000000000000000e+00  0.0000000000000000e+00 0.0000000000000000e+00 0.0000000000000000e+00  0.0000000000000000e+00 0.0000000000000000e+00 0.0000000000000000e+00  1.0747223364391753e-04 -9.3647107630968150e-05 0.0000000000000000e+00  2.2540192998509899e-04 -1.9592257290634073e-04 0.0000000000000000e+00  3.4175615080457751e-04 -3.2652424722158621e-04 0.0000000000000000e+00  4.5024229333211191e-04 -5.4434753678401409e-04 0.0000000000000000e+00  5.5122694130141012e-04 -8.0942873862718822e-04 0.0000000000000000e+00  6.5379742101068759e-04 -1.1414468238398403e-03 0.0000000000000000e+00  7.4315844590739375e-04 -1.5081371483125689e-03 0.0000000000000000e+00  8.1879974955133261e-04 -1.9357569056856669e-03 0.0000000000000000e+00  8.9189573825373622e-04 -2.4114223632779735e-03 0.0000000000000000e+00  9.5449452753250082e-04 -2.9349179073228202e-03 0.0000000000000000e+00  1.0165616361784194e-03 -3.5228080300378200e-03 0.0000000000000000e+00  1.0766918800325163e-03 -4.1210585801355649e-03 0.0000000000000000e+00  1.1148624315934269e-03 -4.7906658849875905e-03 0.0000000000000000e+00  1.1633507897137519e-03 -5.4994830871715203e-03 0.0000000000000000e+00  1.1873393811049346e-03 -6.2425807573684954e-03 0.0000000000000000e+00  1.2080057443680662e-03 -7.0374903258636915e-03 0.0000000000000000e+00  1.2191070210329992e-03 -7.8617985570111244e-03 0.0000000000000000e+00  1.2188775542256195e-03 -8.7361147711163423e-03 0.0000000000000000e+00  1.2075432877163398e-03 -9.6307554764537961e-03 0.0000000000000000e+00  1.1881471661514935e-03 -1.0568102163263125e-02 0.0000000000000000e+00  1.1583583453024908e-03 -1.1534713043878986e-02 0.0000000000000000e+00  1.1175032215601695e-03 -1.2530148360607471e-02 0.0000000000000000e+00  1.0727604611982990e-03 -1.3573366623400548e-02 0.0000000000000000e+00  1.0264341543387825e-03 -1.4623527980869543e-02 0.0000000000000000e+00  9.6406117403310487e-04 -1.5715741970516763e-02 0.0000000000000000e+00  8.9278163852358236e-04 -1.6825210592352476e-02 0.0000000000000000e+00  8.1348348694980355e-04 -1.7966228190037865e-02 0.0000000000000000e+00  7.2552056978975857e-04 -1.9129743578687481e-02 0.0000000000000000e+00  6.2754414290067627e-04 -2.0314422348086485e-02 0.0000000000000000e+00  5.2480350924034120e-04 -2.1534392913030893e-02 0.0000000000000000e+00  4.2067405848396084e-04 -2.2757699095786031e-02 0.0000000000000000e+00  2.9983247505999643e-04 -2.4010809235331700e-02 0.0000000000000000e+00  1.7425301037052725e-04 -2.5287929631802802e-02 0.0000000000000000e+00  4.6513613346811308e-05 -2.6570483298370830e-02 0.0000000000000000e+00  -9.5233187564144298e-05 -2.7878950194313388e-02 0.0000000000000000e+00  -2.3620060196647707e-04 -2.9200775366275078e-02 0.0000000000000000e+00  -3.8914633181365391e-04 -3.0537205051136603e-02 0.0000000000000000e+00  -5.4331494834373322e-04 -3.1891268129067139e-02 0.0000000000000000e+00  -7.0661059465232400e-04 -3.3254572687539619e-02 0.0000000000000000e+00  -8.7592887416101234e-04 -3.4632539258426132e-02 0.0000000000000000e+00  -1.0481488790104456e-03 -3.6020824366270250e-02 0.0000000000000000e+00  -1.2247974862914573e-03 -3.7420780760038339e-02 0.0000000000000000e+00  -1.4084421916944862e-03 -3.8830685355206042e-02 0.0000000000000000e+00  -1.5943542926798340e-03 -4.0249107039433886e-02 0.0000000000000000e+00  -1.7843476919971930e-03 -4.1677204218135269e-02 0.0000000000000000e+00  -1.9800797344896276e-03 -4.3113200687544151e-02 0.0000000000000000e+00  -2.1782134650508837e-03 -4.4555759644063476e-02 0.0000000000000000e+00  -2.3797273170246096e-03 -4.6005836264526111e-02 0.0000000000000000e+00  -2.5855970341905998e-03 -4.7461417233977024e-02 0.0000000000000000e+00  -2.7934517386779571e-03 -4.8921861519105846e-02 0.0000000000000000e+00  -3.0039475557352242e-03 -5.0387777824970476e-02 0.0000000000000000e+00  -3.2177642263131238e-03 -5.1857675452641736e-02 0.0000000000000000e+00  -3.4331245082838773e-03 -5.3330984294731640e-02 0.0000000000000000e+00  -3.6505253502022565e-03 -5.4808149602816256e-02 0.0000000000000000e+00  -3.8703645348337917e-03 -5.6287995718555771e-02 0.0000000000000000e+00  -4.0912461628152012e-03 -5.7770258670683902e-02 0.0000000000000000e+00  -4.3136595327318500e-03 -5.9254996764192699e-02 0.0000000000000000e+00  -4.5376491861743775e-03 -6.0741495873807630e-02 0.0000000000000000e+00  -4.7629454566177490e-03 -6.2229264210970858e-02 0.0000000000000000e+00  -4.9894990878459429e-03 -6.3718507531119600e-02 0.0000000000000000e+00  -5.2168330950470472e-03 -6.5208929978467917e-02 0.0000000000000000e+00  -5.4444883038758237e-03 -6.6699464192598437e-02 0.0000000000000000e+00  -5.6732017321055733e-03 -6.8191000234184396e-02 0.0000000000000000e+00  -5.9021681902491864e-03 -6.9682844413643932e-02 0.0000000000000000e+00  -6.1316963113531983e-03 -7.1174829644951462e-02 0.0000000000000000e+00  -6.3616291783442531e-03 -7.2666998939535918e-02 0.0000000000000000e+00  -6.5917102886560424e-03 -7.4159127791782853e-02 0.0000000000000000e+00  -6.8219991244897783e-03 -7.5651218392145420e-02 0.0000000000000000e+00  -7.0524005714798924e-03 -7.7143263380928292e-02 0.0000000000000000e+00  -7.2828284236011662e-03 -7.8635207008098645e-02 0.0000000000000000e+00  -1.3318216094260539e-02 -7.7702696470119459e-02 0.0000000000000000e+00  -1.3087711778487861e-02 -7.6210690461103847e-02 0.0000000000000000e+00  -1.2857156564838141e-02 -7.4718626313770381e-02 0.0000000000000000e+00  -1.2626527449813093e-02 -7.3226545318813424e-02 0.0000000000000000e+00  -1.2395820632296838e-02 -7.1734546948898623e-02 0.0000000000000000e+00  -1.2164964660043983e-02 -7.0242587280833241e-02 0.0000000000000000e+00  -1.1933944123997866e-02 -6.8751002184897436e-02 0.0000000000000000e+00  -1.1702605777866210e-02 -6.7259865397374982e-02 0.0000000000000000e+00  -1.1471236623436331e-02 -6.5769104137047632e-02 0.0000000000000000e+00  -1.1239626188218433e-02 -6.4279465467819472e-02 0.0000000000000000e+00  -1.1007770428030127e-02 -6.2790504775235026e-02 0.0000000000000000e+00  -1.0776115131207518e-02 -6.1303088647213191e-02 0.0000000000000000e+00  -1.0544188272117228e-02 -5.9817843901005988e-02 0.0000000000000000e+00  -1.0311769825126871e-02 -5.8333215278553834e-02 0.0000000000000000e+00  -1.0079988369070704e-02 -5.6851513491562741e-02 0.0000000000000000e+00  -9.8479333483255105e-03 -5.5373470780327089e-02 0.0000000000000000e+00  -9.6153456360413489e-03 -5.3896459036574453e-02 0.0000000000000000e+00  -9.3841314260581597e-03 -5.2423919219386980e-02 0.0000000000000000e+00  -9.1526121779335560e-03 -5.0956590182797752e-02 0.0000000000000000e+00  -8.9204330953839926e-03 -4.9490738679658038e-02 0.0000000000000000e+00  -8.6904153025166211e-03 -4.8031298154197932e-02 0.0000000000000000e+00  -8.4601141929091239e-03 -4.6579123901005784e-02 0.0000000000000000e+00  -8.2290230551077849e-03 -4.5128980022038828e-02 0.0000000000000000e+00  -8.0011032136033059e-03 -4.3687611992997678e-02 0.0000000000000000e+00  -7.7729316085506980e-03 -4.2256167083446698e-02 0.0000000000000000e+00  -7.5442384760872443e-03 -4.0828453888242050e-02 0.0000000000000000e+00  -7.3183162369100810e-03 -3.9410701444768138e-02 0.0000000000000000e+00  -7.0929997068709420e-03 -3.8006345728743965e-02 0.0000000000000000e+00  -6.8675877859666916e-03 -3.6604546335690692e-02 0.0000000000000000e+00  -6.6483646237084091e-03 -3.5217014891709315e-02 0.0000000000000000e+00  -6.4278697086312528e-03 -3.3847091353555361e-02 0.0000000000000000e+00  -6.2064855164421740e-03 -3.2481406089213946e-02 0.0000000000000000e+00  -5.9902596777355556e-03 -3.1134082121721935e-02 0.0000000000000000e+00  -5.7769091806070035e-03 -2.9796262836225478e-02 0.0000000000000000e+00  -5.5656021950448754e-03 -2.8474621239526737e-02 0.0000000000000000e+00  -5.3592391777304302e-03 -2.7173098423310223e-02 0.0000000000000000e+00  -5.1500595274428232e-03 -2.5883297587444475e-02 0.0000000000000000e+00  -4.9472475330830205e-03 -2.4614092982793753e-02 0.0000000000000000e+00  -4.7440538759192163e-03 -2.3363095080386934e-02 0.0000000000000000e+00  -4.5425825076324108e-03 -2.2133470171581692e-02 0.0000000000000000e+00  -4.3461227384360744e-03 -2.0926393599709048e-02 0.0000000000000000e+00  -4.1570835602522411e-03 -1.9735909913887805e-02 0.0000000000000000e+00  -3.9729435935440304e-03 -1.8571224745453526e-02 0.0000000000000000e+00  -3.7806844823906707e-03 -1.7426842862927706e-02 0.0000000000000000e+00  -3.6026150239704693e-03 -1.6310596316166416e-02 0.0000000000000000e+00  -3.4187676413907978e-03 -1.5225145175043085e-02 0.0000000000000000e+00  -3.2469731571788431e-03 -1.4160380730572988e-02 0.0000000000000000e+00  -3.0763695343015360e-03 -1.3131123908413799e-02 0.0000000000000000e+00  -2.9140379388703811e-03 -1.2122815500360571e-02 0.0000000000000000e+00  -2.7574582254077467e-03 -1.1149245453223794e-02 0.0000000000000000e+00  -2.5894958247761951e-03 -1.0201533897566586e-02 0.0000000000000000e+00  -2.4390401389972698e-03 -9.2894104445952787e-03 0.0000000000000000e+00  -2.2787329319354792e-03 -8.4179852133250167e-03 0.0000000000000000e+00  -2.1378376948743803e-03 -7.5759370547246793e-03 0.0000000000000000e+00  -1.9967266765206948e-03 -6.7864125767971165e-03 0.0000000000000000e+00  -1.8522659374487671e-03 -6.0088682757325250e-03 0.0000000000000000e+00  -1.7199830663535193e-03 -5.2879490478205532e-03 0.0000000000000000e+00  -1.5717555656612565e-03 -4.6057405991120244e-03 0.0000000000000000e+00  -1.4445494867232228e-03 -3.9613269240615350e-03 0.0000000000000000e+00  -1.3159496548023981e-03 -3.3737126334779173e-03 0.0000000000000000e+00  -1.1941867418642242e-03 -2.8176188884860612e-03 0.0000000000000000e+00  -1.0769495365595080e-03 -2.3165084037505587e-03 0.0000000000000000e+00  -9.4432671160764889e-04 -1.8531059610405241e-03 0.0000000000000000e+00  -8.3372285163880013e-04 -1.4406955646385372e-03 0.0000000000000000e+00  -7.0438393943225166e-04 -1.0791991327736305e-03 0.0000000000000000e+00  -5.9179613193781453e-04 -7.7859903749225500e-04 0.0000000000000000e+00  -4.6305757861419373e-04 -5.3008220324366482e-04 0.0000000000000000e+00  -3.4649690225992179e-04 -3.2077190607132661e-04 0.0000000000000000e+00  -2.3146081614959716e-04 -1.7432399640293297e-04 0.0000000000000000e+00  -1.1504773619467045e-04 -9.9136937227408388e-05 0.0000000000000000e+00  -1.2039799856660770e-02 -7.9427779003323498e-02 0.0000000000000000e+00  -9.0221307560813136e-03 -7.9894007957592425e-02 0.0000000000000000e+00  1.2457827395340768e-05 -9.6039127175936482e-05 0.0000000000000000e+00  -7.8836419356369623e-03 -6.2508336693876149e-02 0.0000000000000000e+00  -9.0593376684879878e-03 -7.0073943720387624e-02 0.0000000000000000e+00  2.3719392097460261e-05 -9.5170978175637753e-04 0.0000000000000000e+00  -6.5650358590516366e-03 -5.3714549027308711e-02 0.0000000000000000e+00  -7.2442524715445877e-03 -5.8154420570658096e-02 0.0000000000000000e+00  -1.5554686299910789e-04 -2.3929936403678876e-03 0.0000000000000000e+00  -9.8659578782096143e-03 -7.4442034332048421e-02 0.0000000000000000e+00  -1.9535169612355265e-04 -4.2545908097070886e-03 0.0000000000000000e+00  -3.7080157052541535e-04 -8.3638714900391084e-03 0.0000000000000000e+00  -5.8951852918714539e-03 -4.9304650731935629e-02 0.0000000000000000e+00  -8.3583398767177587e-04 -1.1791914063294485e-02 0.0000000000000000e+00  -5.2386969046353737e-03 -4.4937567918541671e-02 0.0000000000000000e+00  -1.1738998456602050e-03 -1.5020801773958590e-02 0.0000000000000000e+00  -1.6826623000304522e-03 -1.9406975686748745e-02 0.0000000000000000e+00  -4.6878971500936770e-03 -4.0507235822003586e-02 0.0000000000000000e+00  -3.9428707510953355e-03 -3.6301202316751130e-02 0.0000000000000000e+00  -2.0971594439780938e-03 -2.2946987305998281e-02 0.0000000000000000e+00  -2.6306675120695306e-03 -2.6849661885689005e-02 0.0000000000000000e+00  -3.3370747093765395e-03 -3.1995842985651689e-02 0.0000000000000000e+00  -2.8697966860309718e-04 -5.6308042229829139e-03 0.0000000000000000e+00  -8.5950470444057514e-03 -6.7107347474823609e-02 0.0000000000000000e+00  -2.9746131307092226e-03 -2.9106138425640457e-02 0.0000000000000000e+00  -6.4890935853709360e-04 -1.0133496762490811e-02 0.0000000000000000e+00  -1.4133490430263014e-03 -1.7413392459325543e-02 0.0000000000000000e+00  -5.1267426931821183e-05 -1.6248191059358246e-03 0.0000000000000000e+00  -1.0646693855596643e-02 -7.6899920072502376e-02 0.0000000000000000e+00  6.1412061510401428e-05 -4.2299486364486775e-04 0.0000000000000000e+00  -3.6073822199704287e-03 -3.8497093124674815e-02 0.0000000000000000e+00  -4.8597989476977235e-03 -4.7111365647364963e-02 0.0000000000000000e+00  -5.5159556372492277e-03 -5.1502560175863854e-02 0.0000000000000000e+00  -2.4505973964013398e-03 -2.1131324935989727e-02 0.0000000000000000e+00  -4.2217049012960046e-03 -4.2770186897525216e-02 0.0000000000000000e+00  -6.1855858456906819e-03 -5.5929512124971908e-02 0.0000000000000000e+00  -3.0231661346057795e-03 -3.4310979500183345e-02 0.0000000000000000e+00  -6.8647459176601998e-03 -6.0380950787955030e-02 0.0000000000000000e+00  -2.9527243221499043e-03 -2.4850761874318693e-02 0.0000000000000000e+00  -1.4601339625962160e-03 -1.3260447666404534e-02 0.0000000000000000e+00  -3.9992266935366644e-04 -3.3684756975009477e-03 0.0000000000000000e+00  -1.0057447613956586e-02 -7.2095584988033812e-02 0.0000000000000000e+00  -9.0875346691097914e-03 -6.4578580023551213e-02 0.0000000000000000e+00  6.9542149318187039e-05 -6.9097308026606656e-03 0.0000000000000000e+00  -6.9723225324870523e-03 -6.4275047969818269e-02 0.0000000000000000e+00  -1.0412304333810849e-03 -7.1618260099863907e-03 0.0000000000000000e+00  -8.8054642580267604e-03 -6.0756941585802429e-02 0.0000000000000000e+00  -8.1165803231564269e-03 -5.6305416331870674e-02 0.0000000000000000e+00  -7.4326091495156132e-03 -5.1878233210693570e-02 0.0000000000000000e+00  -8.3117071575314217e-03 -7.3042315219965043e-02 0.0000000000000000e+00  3.1686742724076867e-04 -3.1592759671962910e-03 0.0000000000000000e+00  -6.0909232746977331e-03 -4.3144655123305571e-02 0.0000000000000000e+00  -6.7562106011261561e-03 -4.7486527136546081e-02 0.0000000000000000e+00  -8.9947247662709490e-04 -2.0782759228371951e-02 0.0000000000000000e+00  -1.4968412452019708e-04 -1.2941248621194522e-02 0.0000000000000000e+00  -5.2552019750499359e-03 -3.7622902199903739e-02 0.0000000000000000e+00  -4.8106783260305451e-03 -3.4681799200802138e-02 0.0000000000000000e+00  -1.3180101169392321e-03 -2.4493807746475152e-02 0.0000000000000000e+00  -5.0289656994691221e-05 -4.1118423563128834e-05 0.0000000000000000e+00  3.7304197461785422e-05 -3.1857332952290674e-05 0.0000000000000000e+00  -2.1647041691063053e-03 -3.1075326387880173e-02 0.0000000000000000e+00  -2.1111970109339464e-03 -1.5793796246298491e-02 0.0000000000000000e+00  -1.2786442742332097e-03 -8.9393027232620628e-03 0.0000000000000000e+00  -3.2519627568135831e-04 -1.2281076535597120e-03 0.0000000000000000e+00  -4.3080550579764772e-04 -2.0734782423945859e-03 0.0000000000000000e+00  -1.7682540022744663e-03 -2.8350889782543243e-02 0.0000000000000000e+00  -1.4925734729240650e-03 -1.0711781824319908e-02 0.0000000000000000e+00  -2.4550424606501636e-03 -1.8092325636671586e-02 0.0000000000000000e+00  -7.8952157816645661e-04 -5.0780754498790052e-03 0.0000000000000000e+00  -7.6268789578352696e-03 -6.8415281663665575e-02 0.0000000000000000e+00  -9.9633849239856558e-03 -6.8142888433237153e-02 0.0000000000000000e+00  2.8865783648087556e-04 -5.0988078613303980e-03 0.0000000000000000e+00  -2.2776268218192272e-04 -5.8541523285286421e-04 0.0000000000000000e+00  -8.5138609320821908e-03 -7.6048814457199243e-02 0.0000000000000000e+00  -4.4100584534654983e-03 -3.0729496881148663e-02 0.0000000000000000e+00  -3.8913684758067348e-03 -2.7969564861350903e-02 0.0000000000000000e+00  2.8863781319645783e-04 -9.0194322249032739e-03 0.0000000000000000e+00  3.1031358601982863e-04 -1.2259130990544666e-03 0.0000000000000000e+00  3.7754928744456010e-04 -2.1326090182233149e-03 0.0000000000000000e+00  -2.7370561202551920e-04 -1.6034362490195266e-02 0.0000000000000000e+00  2.5436994657202183e-04 -1.0846078520904395e-02 0.0000000000000000e+00  -3.3702640958507867e-04 -1.8292844822779285e-02 0.0000000000000000e+00  -1.4255585302196642e-04 -3.0577110943326988e-04 0.0000000000000000e+00  -9.0467904977476945e-03 -7.8136655922986145e-02 0.0000000000000000e+00  -8.6791713465798163e-03 -5.8984756989031460e-02 0.0000000000000000e+00  -7.9914773508155349e-03 -5.4541971738846187e-02 0.0000000000000000e+00  3.6754486489161452e-04 -3.8665906858162996e-03 0.0000000000000000e+00  -7.3092921029950181e-03 -5.0127694223726385e-02 0.0000000000000000e+00  -7.8987037346567365e-03 -7.1310349703987905e-02 0.0000000000000000e+00  -6.6355860071685008e-03 -4.5754262992548582e-02 0.0000000000000000e+00  -5.9770410809540228e-03 -4.1449586777315355e-02 0.0000000000000000e+00  -1.5359049191146365e-04 -1.4180233335492450e-02 0.0000000000000000e+00  -5.6406933191592134e-03 -3.9250268668709204e-02 0.0000000000000000e+00  -9.4321765308907652e-04 -2.2232796782272267e-02 0.0000000000000000e+00  -4.7091860124141389e-03 -3.3046805328634479e-02 0.0000000000000000e+00  -1.3751112732524962e-03 -2.6014598059892608e-02 0.0000000000000000e+00  -1.1201838189432316e-02 -7.5387553787696751e-02 0.0000000000000000e+00  -7.0594922003987806e-03 -6.6033738754746982e-02 0.0000000000000000e+00  -1.0239142150060498e-03 -6.2388780038707672e-03 0.0000000000000000e+00  2.4570764664272869e-04 -6.4187007320338943e-04 0.0000000000000000e+00  1.3119353546400694e-04 -2.4508904677311103e-04 0.0000000000000000e+00  -2.7386573814362279e-03 -3.7237692317333281e-02 0.0000000000000000e+00  -3.7000855361989087e-03 -2.5974993867187435e-02 0.0000000000000000e+00  -3.3295415825392383e-03 -4.1488492565488935e-02 0.0000000000000000e+00  -5.2804606331124616e-03 -5.4601166755153197e-02 0.0000000000000000e+00  -3.9773717423123170e-03 -4.5804130468595397e-02 0.0000000000000000e+00  -4.6203769671541084e-03 -5.0182919524498618e-02 0.0000000000000000e+00  -3.0141045724302530e-03 -2.2309516499714434e-02 0.0000000000000000e+00  -2.2314754453868135e-03 -3.3103345441459951e-02 0.0000000000000000e+00  -2.0447439447129081e-03 -1.4203658689299634e-02 0.0000000000000000e+00  -2.8726868874040965e-03 -1.9909319024775298e-02 0.0000000000000000e+00  -6.3628602946806702e-03 -6.1930270488367849e-02 0.0000000000000000e+00  -1.8278386734545114e-03 -1.2236368418384588e-02 0.0000000000000000e+00  -6.1541053656258655e-03 -5.8959208074943800e-02 0.0000000000000000e+00  -7.3125072117811280e-04 -3.9209008806305777e-03 0.0000000000000000e+00  -6.1122557773947395e-04 -2.8179953001783130e-03 0.0000000000000000e+00  -1.0927714001894635e-02 -7.3318026097597411e-02 0.0000000000000000e+00  -1.0559557410350039e-02 -7.0541420694793619e-02 0.0000000000000000e+00  -5.3573553127682265e-03 -5.3104248712863969e-02 0.0000000000000000e+00  -4.6994725158719898e-03 -4.8698056063703414e-02 0.0000000000000000e+00  -3.3607317294736851e-03 -3.9995446818714357e-02 0.0000000000000000e+00  -5.9507136906818822e-03 -5.7507791470696193e-02 0.0000000000000000e+00  -4.0593266653260584e-03 -4.4336230237770176e-02 0.0000000000000000e+00  -2.7522346978706017e-03 -3.5781758308379263e-02 0.0000000000000000e+00  -3.1684340621933294e-03 -2.3519348772129887e-02 0.0000000000000000e+00  3.8495404526770350e-04 -6.1917513479320344e-03 0.0000000000000000e+00  -9.8579017475464020e-03 -6.5913076651057181e-02 0.0000000000000000e+00  -9.3761450581482022e-03 -6.3089344735795250e-02 0.0000000000000000e+00  3.130