<?xml version="1.0"?>
<VTKFile type="UnstructuredGrid"  version="0.1"  >
<UnstructuredGrid>
<Piece  NumberOfPoints="439" NumberOfCells="725">
<Points>
<DataArray  type="Float64"  NumberOfComponents="3"  format="ascii">0.6 0.19 0  0.6 0.21 0  0.2489897949 0.21 0  0.2489897949 0.19 0  0.6 0.2 0  0.2496355385699469 0.2060260530378829 0  0.249959460510575 0.2020130349814059 0  0.2499594605105767 0.1979869650186357 0  0.24963553856995 0.1939739469621422 0  0.2539336006056293 0.21 0  0.2588774063112542 0.21 0  0.2638212120168921 0.21 0  0.26876501772253 0.21 0  0.2737088234281569 0.21 0  0.2786526291337753 0.21 0  0.2835964348393937 0.21 0  0.2885402405450166 0.21 0  0.2934840462506522 0.21 0  0.2984278519562708 0.21 0  0.3033716576618997 0.21 0  0.3083154633675181 0.21 0  0.3132592690731365 0.21 0  0.3182030747787549 0.21 0  0.3231468804843732 0.21 0  0.3280906861899917 0.21 0  0.3330344918956208 0.21 0  0.3379782976012284 0.21 0  0.3429221033068576 0.21 0  0.347865909012476 0.21 0  0.3528097147180944 0.21 0  0.3577535204237128 0.21 0  0.3626973261293311 0.21 0  0.3676411318349495 0.21 0  0.3725849375405788 0.21 0  0.3775287432461877 0.21 0  0.382472548951812 0.21 0  0.3874163546574338 0.21 0  0.3923601603630631 0.21 0  0.3973039660686706 0.21 0  0.4022477717742986 0.21 0  0.4071915774799107 0.21 0  0.4121353831855311 0.21 0  0.4170791888911518 0.21 0  0.4220229945967636 0.21 0  0.4269668003023918 0.21 0  0.4319106060080253 0.21 0  0.4368544117136773 0.21 0  0.4417982174193329 0.21 0  0.4467420231249967 0.21 0  0.4516858288306445 0.21 0  0.4566296345362864 0.21 0  0.461573440241916 0.21 0  0.4665172459475665 0.21 0  0.4714610516531998 0.21 0  0.4764048573588668 0.21 0  0.4813486630645134 0.21 0  0.486292468770176 0.21 0  0.4912362744758066 0.21 0  0.4961800801814611 0.21 0  0.5011238858870897 0.21 0  0.5060676915927493 0.21 0  0.5110114972983872 0.21 0  0.5159553030040036 0.21 0  0.5208991087096415 0.21 0  0.5258429144153002 0.21 0  0.5307867201209391 0.21 0  0.5357305258265987 0.21 0  0.5406743315322367 0.21 0  0.5456181372378529 0.21 0  0.5505619429434908 0.21 0  0.5555057486491456 0.21 0  0.5604495543547885 0.21 0  0.565393360060448 0.21 0  0.5703371657661116 0.21 0  0.5752809714717458 0.21 0  0.5802247771773834 0.21 0  0.5851685828830341 0.21 0  0.5901123885886809 0.21 0  0.5950561942943404 0.21 0  0.5950561942943833 0.19 0  0.590112388588758 0.19 0  0.5851685828831193 0.19 0  0.5802247771774727 0.19 0  0.5752809714718514 0.19 0  0.5703371657662308 0.19 0  0.565393360060618 0.19 0  0.5604495543549889 0.19 0  0.5555057486493581 0.19 0  0.5505619429437035 0.19 0  0.5456181372381043 0.19 0  0.540674331532505 0.19 0  0.5357305258268962 0.19 0  0.530786720121263 0.19 0  0.5258429144156628 0.19 0  0.5208991087100244 0.19 0  0.5159553030044218 0.19 0  0.5110114972988226 0.19 0  0.5060676915932177 0.19 0  0.5011238858875806 0.19 0  0.496180080181972 0.19 0  0.4912362744763531 0.19 0  0.4862924687707343 0.19 0  0.4813486630651046 0.19 0  0.4764048573594966 0.19 0  0.4714610516538683 0.19 0  0.4665172459482555 0.19 0  0.4615734402426349 0.19 0  0.4566296345370104 0.19 0  0.4516858288313808 0.19 0  0.4467420231257716 0.19 0  0.4417982174201465 0.19 0  0.4368544117145297 0.19 0  0.4319106060089131 0.19 0  0.4269668003032866 0.19 0  0.4220229945976482 0.19 0  0.4170791888920056 0.19 0  0.4121353831863594 0.19 0  0.4071915774806995 0.19 0  0.4022477717750478 0.19 0  0.3973039660693901 0.19 0  0.3923601603637548 0.19 0  0.3874163546581082 0.19 0  0.3824725489524824 0.19 0  0.3775287432468258 0.19 0  0.3725849375411773 0.19 0  0.3676411318355085 0.19 0  0.3626973261298614 0.19 0  0.3577535204242108 0.19 0  0.352809714718589 0.19 0  0.347865909012931 0.19 0  0.342922103307292 0.19 0  0.3379782976016536 0.19 0  0.3330344918960152 0.19 0  0.3280906861903751 0.19 0  0.3231468804847171 0.19 0  0.3182030747790592 0.19 0  0.3132592690734012 0.19 0  0.3083154633677581 0.19 0  0.3033716576621197 0.19 0  0.2984278519564813 0.19 0  0.2934840462508429 0.19 0  0.2885402405451874 0.19 0  0.2835964348395295 0.19 0  0.2786526291338716 0.19 0  0.2737088234282243 0.19 0  0.268765017722586 0.19 0  0.2638212120169476 0.19 0  0.2588774063113093 0.19 0  0.2539336006056579 0.19 0  0.6 0.1949999999999783 0  0.6 0.2049999999999729 0  0.2589734265316493 0.2005523893428403 0  0.5431462343853077 0.199999999999969 0  0.5682397894768162 0.1999704585808987 0  0.2774513927118024 0.2007941919421926 0  0.513849583376897 0.1999023426490919 0  0.5286810004937381 0.1999023426490969 0  0.2945108952057646 0.1992911908405386 0  0.5827780831384927 0.1995429801003349 0  0.3104128396569256 0.1999704585808978 0  0.3370001755418551 0.2008294612433967 0  0.4990181662600459 0.1999023426490902 0  0.3552816175709044 0.2000000000000608 0  0.4841867491431925 0.1999023426490849 0  0.3707373713905551 0.2000142376953689 0  0.3898882575102495 0.2000000000000828 0  0.4689857550492734 0.1995416724256694 0  0.4541577316841967 0.1999999999999098 0  0.4043534914018331 0.2000976573509244 0  0.4195510917439569 0.2000000000001057 0  0.4387019778644512 0.1999857623046772 0  0.3202472750256703 0.2000088842146399 0  0.5584053541080851 0.1999911157853577 0  0.4280667146887134 0.1998489048208241 0  0.3467659946265474 0.2001510951794375 0  0.3813726345658908 0.200151095179452 0  0.2860683376922098 0.2000415445706182 0  0.5911223811781194 0.1982449159348744 0  0.2679893161458627 0.201675125646729 0  0.4615734402426278 0.2022503633288003 0  0.4912362744763454 0.2022503633288091 0  0.5060676915931983 0.2022503633288118 0  0.3973039660686774 0.1977496366711965 0  0.4764048573594896 0.2022503633288051 0  0.5208991087100455 0.2022503633288184 0  0.4467420231257656 0.2022503633288 0  0.5357305258268849 0.2022503633288198 0  0.4121353831855317 0.1977496366711976 0  0.3626973261293352 0.1977496366711919 0  0.3033716576618961 0.1977496366711869 0  0.5752809714718229 0.1977496366711503 0  0.550459855919056 0.1971284784737667 0  0.3281927732146841 0.2028715215262406 0  0.5484179020497461 0.2038403215694763 0  0.3302347270839988 0.1961596784305491 0  0.5379210852238114 0.196125181664411 0  0.5230896681069652 0.1961251816644058 0  0.5082582509901222 0.1961251816644098 0  0.5774715308687094 0.2038748183355887 0  0.3011810982649548 0.2038748183355937 0  0.4785954167564111 0.196125181664404 0  0.4934268338732671 0.1961251816644063 0  0.395113406671763 0.2038748183355966 0  0.3605067667324117 0.2038748183355951 0  0.4593828808457146 0.1961251816643993 0  0.4489325825226805 0.1961251816644007 0  0.4099448237886219 0.2038748183355991 0  0.2557862999801971 0.1960858370257295 0  0.2550147360309399 0.2034426429991114 0  0.4348031476464689 0.2037737577641554 0  0.37463620160841 0.1962262422358553 0  0.3406258365864304 0.196046792193989 0  0.2813001681189834 0.1960467921940502 0  0.2912686387439893 0.1960816328649282 0  0.4246705335819892 0.2039532078059544 0  0.350162175732913 0.1960467921941878 0  0.3847688156722694 0.1960467921942359 0  0.316632368538356 0.19615945856337 0  0.5621550011053409 0.2037816492598991 0  0.5624413877019769 0.1960761923611377 0  0.3162395035833128 0.2038679557424692 0  0.2710887134207622 0.1959696443325838 0  0.5873014376403604 0.2047227881030823 0  0.4346679566442709 0.1954651459552513 0  0.4243296504077986 0.1958756980939062 0  0.3402559510833523 0.2047940500290923 0  0.2808684926760933 0.2047742417812656 0  0.2914077033138723 0.2047809517070955 0  0.3747713926104932 0.2045348540448554 0  0.3499216488898867 0.2051753413186305 0  0.3845282888292298 0.205175341318636 0  0.2648144865455052 0.1962089742986374 0  0.5943247643662894 0.2040415423589182 0  0.5320972610456145 0.1956445099050872 0  0.5172658439287727 0.1956445099050854 0  0.3069923255602658 0.2043468033872551 0  0.5024344268119265 0.1956445099050864 0  0.5716603035734351 0.2043468033872761 0  0.4876030096950741 0.1956445099050831 0  0.4728151975296263 0.1956402468909894 0  0.3663301776527538 0.20436745486386 0  0.4651631000724991 0.1956402468909893 0  0.4009372308499527 0.2043554900949198 0  0.4431091716023345 0.1956325451361429 0  0.4157593408842466 0.2043565497109067 0  0.5865057328865416 0.1956918868509067 0  0.5541600609760193 0.2044335994013721 0  0.3244925681577497 0.1955664005986376 0  0.272008018888917 0.2049327968152409 0  0.2633407725863902 0.2042483236346266 0  0.4567948413982566 0.2046536472831198 0  0.4167680012832803 0.1955060004091903 0  0.4716262585151221 0.2046536472831242 0  0.5161054367030595 0.2045563706470633 0  0.4864426024693469 0.2045563706470604 0  0.5012740195862044 0.2045563706470634 0  0.4022810343427545 0.1961423961483001 0  0.4420739040821668 0.2044853411424516 0  0.3673807293464664 0.1955677741328205 0  0.3925253672243162 0.195346352716901 0  0.5405091246712254 0.2046536472831267 0  0.357918727284983 0.1953463527168901 0  0.5307534575528717 0.2038576038516682 0  0.3079697655029555 0.1955637092892754 0  0.2985930588175599 0.1953463527168728 0  0.579671714346879 0.1955441268455555 0  0.5705023726275059 0.1953463527168462 0  0.5112451461103119 0.2035640580783926 0  0.4964137289934448 0.2035640580783915 0  0.4665727251511405 0.2038238154617746 0  0.5259274680675793 0.2038006696000127 0  0.4815823118765752 0.2035640580783898 0  0.4517504165552094 0.2039070625502732 0  0.4071070238280551 0.1961993303999926 0  0.3234846806957546 0.2047001437739977 0  0.5551679484379799 0.1952998562260008 0  0.5457754356464107 0.1954447171286166 0  0.3329307555206357 0.2046017509710421 0  0.4541577316841968 0.1960357661898101 0  0.3358300776141575 0.1950765652117375 0  0.2539718587514912 0.200011552766824 0  0.5826472073721517 0.2039971170156656 0  0.2761021761080182 0.1946948236183283 0  0.3898581462796225 0.2041572776584344 0  0.3552515063402743 0.2041572776584256 0  0.2965028074750666 0.2046578268138723 0  0.4299158836614793 0.1951782397873778 0  0.379426563923736 0.2049969334481307 0  0.2860882692072842 0.2042624797643994 0  0.3449948044168807 0.2051793676155613 0  0.2603922435707652 0.1950997711614917 0  0.5949856943860
[...]
<PointData  Vectors="f_18-1"> 
<DataArray  type="Float64"  Name="f_18-1"  NumberOfComponents="3" format="ascii">-2.7551840464433087e-02 -1.1532172266597643e-01 0.0000000000000000e+00  -1.8671504043726535e-02 -1.1740140639516322e-01 0.0000000000000000e+00  0.0000000000000000e+00 0.0000000000000000e+00 0.0000000000000000e+00  0.0000000000000000e+00 0.0000000000000000e+00 0.0000000000000000e+00  -2.3111625234675404e-02 -1.1636152837512063e-01 0.0000000000000000e+00  0.0000000000000000e+00 0.0000000000000000e+00 0.0000000000000000e+00  0.0000000000000000e+00 0.0000000000000000e+00 0.0000000000000000e+00  0.0000000000000000e+00 0.0000000000000000e+00 0.0000000000000000e+00  0.0000000000000000e+00 0.0000000000000000e+00 0.0000000000000000e+00  1.5362413817369795e-04 -1.3480369657072443e-04 0.0000000000000000e+00  3.2236394821630554e-04 -2.8397723829274576e-04 0.0000000000000000e+00  4.8843468027788312e-04 -4.7499271710483735e-04 0.0000000000000000e+00  6.4145362632764020e-04 -7.9327498853285633e-04 0.0000000000000000e+00  7.8224421761636793e-04 -1.1811202187881427e-03 0.0000000000000000e+00  9.2287680551723884e-04 -1.6669650790659127e-03 0.0000000000000000e+00  1.0428555458536584e-03 -2.2038828222618071e-03 0.0000000000000000e+00  1.1399377864172839e-03 -2.8294217796506140e-03 0.0000000000000000e+00  1.2304636429338091e-03 -3.5256286398225364e-03 0.0000000000000000e+00  1.3026528530353863e-03 -4.2916470318802432e-03 0.0000000000000000e+00  1.3693281979239072e-03 -5.1523489743310101e-03 0.0000000000000000e+00  1.4324368922653740e-03 -6.0287464528701387e-03 0.0000000000000000e+00  1.4576537509121406e-03 -7.0083823415589934e-03 0.0000000000000000e+00  1.4942972759543207e-03 -8.0470837841720207e-03 0.0000000000000000e+00  1.4919909597801277e-03 -9.1345163234987821e-03 0.0000000000000000e+00  1.4793843790415499e-03 -1.0298473071839051e-02 0.0000000000000000e+00  1.4495550352582802e-03 -1.1505312341041036e-02 0.0000000000000000e+00  1.3973139981478518e-03 -1.2785063670378597e-02 0.0000000000000000e+00  1.3262032306295482e-03 -1.4094191588828115e-02 0.0000000000000000e+00  1.2378566799909519e-03 -1.5465693973335876e-02 0.0000000000000000e+00  1.1303434115523261e-03 -1.6879588663775692e-02 0.0000000000000000e+00  1.0025171420888089e-03 -1.8335044873071169e-02 0.0000000000000000e+00  8.6217011520512213e-04 -1.9861047594953902e-02 0.0000000000000000e+00  7.1847110773191132e-04 -2.1397504333557440e-02 0.0000000000000000e+00  5.4478162028537757e-04 -2.2994294305087551e-02 0.0000000000000000e+00  3.5515910265138069e-04 -2.4615787448867318e-02 0.0000000000000000e+00  1.4869119022802013e-04 -2.6283131949886563e-02 0.0000000000000000e+00  -7.4281641216352844e-05 -2.7982864127440860e-02 0.0000000000000000e+00  -3.1567168471183747e-04 -2.9712762574688655e-02 0.0000000000000000e+00  -5.7011744343449320e-04 -3.1494771718926416e-02 0.0000000000000000e+00  -8.2713301100317848e-04 -3.3281774609686419e-02 0.0000000000000000e+00  -1.1142815660080217e-03 -3.5110748292297746e-02 0.0000000000000000e+00  -1.4128277984345535e-03 -3.6975401718546887e-02 0.0000000000000000e+00  -1.7155247383723970e-03 -3.8848122925578869e-02 0.0000000000000000e+00  -2.0441156756802925e-03 -4.0757860289803410e-02 0.0000000000000000e+00  -2.3739509729581642e-03 -4.2688468883041224e-02 0.0000000000000000e+00  -2.7248858965185862e-03 -4.4639607545482074e-02 0.0000000000000000e+00  -3.0810509694520305e-03 -4.6618066059130700e-02 0.0000000000000000e+00  -3.4532201632351302e-03 -4.8609404978114543e-02 0.0000000000000000e+00  -3.8377964909930202e-03 -5.0622764004370428e-02 0.0000000000000000e+00  -4.2290314258130448e-03 -5.2652056778252881e-02 0.0000000000000000e+00  -4.6296377071504673e-03 -5.4699153548987321e-02 0.0000000000000000e+00  -5.0434978889221539e-03 -5.6760776842862556e-02 0.0000000000000000e+00  -5.4628054748692258e-03 -5.8835833956523906e-02 0.0000000000000000e+00  -5.8907012613574677e-03 -6.0925812849121463e-02 0.0000000000000000e+00  -6.3296327111501769e-03 -6.3027486317410147e-02 0.0000000000000000e+00  -6.7739017737473836e-03 -6.5139655793318055e-02 0.0000000000000000e+00  -7.2253149409807005e-03 -6.7263699205780667e-02 0.0000000000000000e+00  -7.6852296796646935e-03 -6.9396109917949866e-02 0.0000000000000000e+00  -8.1495671364682012e-03 -7.1536580754559889e-02 0.0000000000000000e+00  -8.6195771667706145e-03 -7.3685994851485984e-02 0.0000000000000000e+00  -9.0962872876700022e-03 -7.5841693569267066e-02 0.0000000000000000e+00  -9.5765010225376413e-03 -7.8003266314740541e-02 0.0000000000000000e+00  -1.0061205888392740e-02 -8.0171359419243721e-02 0.0000000000000000e+00  -1.0550997857432068e-02 -8.2343814653243100e-02 0.0000000000000000e+00  -1.1043287391692212e-02 -8.4520607839815590e-02 0.0000000000000000e+00  -1.1538988645456707e-02 -8.6701723737000524e-02 0.0000000000000000e+00  -1.2038068757224182e-02 -8.8885901472673237e-02 0.0000000000000000e+00  -1.2539939141375351e-02 -9.1072252949418023e-02 0.0000000000000000e+00  -1.3044655286338833e-02 -9.3261326780336370e-02 0.0000000000000000e+00  -1.3551228420930502e-02 -9.5452812460114056e-02 0.0000000000000000e+00  -1.4058419149342615e-02 -9.7644548943852938e-02 0.0000000000000000e+00  -1.4568101387264743e-02 -9.9838354180696059e-02 0.0000000000000000e+00  -1.5078370277774542e-02 -1.0203305643099347e-01 0.0000000000000000e+00  -1.5590024636543649e-02 -1.0422808334737932e-01 0.0000000000000000e+00  -1.6102713573684476e-02 -1.0642378446881305e-01 0.0000000000000000e+00  -1.6615757787251200e-02 -1.0861939451773964e-01 0.0000000000000000e+00  -1.7129439540554414e-02 -1.1081508287864984e-01 0.0000000000000000e+00  -1.7643407580265974e-02 -1.1301076352988983e-01 0.0000000000000000e+00  -1.8157403985456743e-02 -1.1520612518327908e-01 0.0000000000000000e+00  -2.7037701421910851e-02 -1.1312649886467095e-01 0.0000000000000000e+00  -2.6523405576860542e-02 -1.1093121717976576e-01 0.0000000000000000e+00  -2.6008910259439390e-02 -1.0873582954285319e-01 0.0000000000000000e+00  -2.5494151794738507e-02 -1.0654060618907052e-01 0.0000000000000000e+00  -2.4979228691369971e-02 -1.0434581336219896e-01 0.0000000000000000e+00  -2.4464016553202100e-02 -1.0215133414888222e-01 0.0000000000000000e+00  -2.3948688010310738e-02 -9.9958027179657044e-02 0.0000000000000000e+00  -2.3432896124457842e-02 -9.7766044863252646e-02 0.0000000000000000e+00  -2.2917384947455301e-02 -9.5575043693546594e-02 0.0000000000000000e+00  -2.2401906878684159e-02 -9.3386621566729944e-02 0.0000000000000000e+00  -2.1886323946718075e-02 -9.1199738316763493e-02 0.0000000000000000e+00  -2.1371839911301063e-02 -8.9015968910656440e-02 0.0000000000000000e+00  -2.0857644175809247e-02 -8.6836554207626759e-02 0.0000000000000000e+00  -2.0342785996542444e-02 -8.4658453142875179e-02 0.0000000000000000e+00  -1.9830225278302388e-02 -8.2485774245278615e-02 0.0000000000000000e+00  -1.9318352613612005e-02 -8.0319997484937927e-02 0.0000000000000000e+00  -1.8805896174182803e-02 -7.8156244636071737e-02 0.0000000000000000e+00  -1.8297435741207242e-02 -7.6000321138590163e-02 0.0000000000000000e+00  -1.7790023386099429e-02 -7.3853822775099595e-02 0.0000000000000000e+00  -1.7281973849877483e-02 -7.1710078223952076e-02 0.0000000000000000e+00  -1.6779702387601868e-02 -6.9577052347678484e-02 0.0000000000000000e+00  -1.6279012277344362e-02 -6.7456561925565484e-02 0.0000000000000000e+00  -1.5777645892653434e-02 -6.5339654899720892e-02 0.0000000000000000e+00  -1.5284128804436621e-02 -6.3236760849166185e-02 0.0000000000000000e+00  -1.4792791043279527e-02 -6.1150281546235578e-02 0.0000000000000000e+00  -1.4301617022928969e-02 -5.9069944170205807e-02 0.0000000000000000e+00  -1.3817613067848586e-02 -5.7005252012813291e-02 0.0000000000000000e+00  -1.3337834114383544e-02 -5.4961913685945302e-02 0.0000000000000000e+00  -1.2858651489726510e-02 -5.2922678891265701e-02 0.0000000000000000e+00  -1.2392809467898041e-02 -5.0904824537343296e-02 0.0000000000000000e+00  -1.1929009249200045e-02 -4.8915150422110955e-02 0.0000000000000000e+00  -1.1464850011735099e-02 -4.6932204300132167e-02 0.0000000000000000e+00  -1.1013055322272909e-02 -4.4977060714104171e-02 0.0000000000000000e+00  -1.0567916204783902e-02 -4.3035978082191131e-02 0.0000000000000000e+00  -1.0129575041957292e-02 -4.1119578274615258e-02 0.0000000000000000e+00  -9.7031524920528998e-03 -3.9233050402310406e-02 0.0000000000000000e+00  -9.2749432223712645e-03 -3.7364913684345621e-02 0.0000000000000000e+00  -8.8606413713688773e-03 -3.5526775324702393e-02 0.0000000000000000e+00  -8.4493721293905453e-03 -3.3716064567520791e-02 0.0000000000000000e+00  -8.0448573882411865e-03 -3.1937082729006548e-02 0.0000000000000000e+00  -7.6521203574136604e-03 -3.0190823896710222e-02 0.0000000000000000e+00  -7.2735575520192636e-03 -2.8467878638565938e-02 0.0000000000000000e+00  -6.9067939139727244e-03 -2.6782449181163487e-02 0.0000000000000000e+00  -6.5312069927389669e-03 -2.5128488546421596e-02 0.0000000000000000e+00  -6.1815036953467616e-03 -2.3513896416241378e-02 0.0000000000000000e+00  -5.8280330352078417e-03 -2.1945928343057572e-02 0.0000000000000000e+00  -5.4957852586402650e-03 -2.0406547647515264e-02 0.0000000000000000e+00  -5.1705826702990402e-03 -1.8919530487916107e-02 0.0000000000000000e+00  -4.8608250471008085e-03 -1.7462091123579351e-02 0.0000000000000000e+00  -4.5645281105708953e-03 -1.6055095621981444e-02 0.0000000000000000e+00  -4.2546515501219765e-03 -1.4687665177030851e-02 0.0000000000000000e+00  -3.9755742967210426e-03 -1.3370263643691481e-02 0.0000000000000000e+00  -3.6869211896211011e-03 -1.2114063683574707e-02 0.0000000000000000e+00  -3.4307167720801536e-03 -1.0898486705803841e-02 0.0000000000000000e+00  -3.1801928108082188e-03 -9.7600944306305178e-03 0.0000000000000000e+00  -2.9260137618131871e-03 -8.6392844268722291e-03 0.0000000000000000e+00  -2.6959606932514539e-03 -7.6002158171958210e-03 0.0000000000000000e+00  -2.4459639174144762e-03 -6.6190513135022493e-03 0.0000000000000000e+00  -2.2306867436416460e-03 -5.6909347610309934e-03 0.0000000000000000e+00  -2.0182932919040751e-03 -4.8455674694739131e-03 0.0000000000000000e+00  -1.8185150351077619e-03 -4.0450823580171474e-03 0.0000000000000000e+00  -1.6293946248120568e-03 -3.3241217423687400e-03 0.0000000000000000e+00  -1.4200052952507999e-03 -2.6585505550719632e-03 0.0000000000000000e+00  -1.2461923001569457e-03 -2.0653946233094166e-03 0.0000000000000000e+00  -1.0474833478683252e-03 -1.5467854213277194e-03 0.0000000000000000e+00  -8.7615931713920189e-04 -1.1154210079271126e-03 0.0000000000000000e+00  -6.8326567560243788e-04 -7.5963669478447296e-04 0.0000000000000000e+00  -5.0946912174978270e-04 -4.5957068825390468e-04 0.0000000000000000e+00  -3.3937230562366321e-04 -2.4994657990996458e-04 0.0000000000000000e+00  -1.6845368133310617e-04 -1.4315139832714498e-04 0.0000000000000000e+00  -2.5331682791055184e-02 -1.1584164900978816e-01 0.0000000000000000e+00  -2.0891609848641596e-02 -1.1688143701443239e-01 0.0000000000000000e+00  1.5465410646876070e-05 -1.3775079809823332e-04 0.0000000000000000e+00  -1.7209181419294010e-02 -9.1133411047420260e-02 0.0000000000000000e+00  -1.9821593554971016e-02 -1.0225449437570450e-01 0.0000000000000000e+00  1.4494133153319290e-05 -1.3772876237641031e-03 0.0000000000000000e+00  -1.4260648334425563e-02 -7.8224225392282506e-02 0.0000000000000000e+00  -1.5766204352515235e-02 -8.4736698393217388e-02 0.0000000000000000e+00  -2.8966835859295777e-04 -3.4648592268477583e-03 0.0000000000000000e+00  -2.1523179387235768e-02 -1.0866601104224534e-01 0.0000000000000000e+00  -4.2268608592970560e-04 -6.1695085444668984e-03 0.0000000000000000e+00  -8.9644380118738339e-04 -1.2146958398826114e-02 0.0000000000000000e+00  -1.2780541078955402e-02 -7.1764317141770478e-02 0.0000000000000000e+00  -1.7977890018976920e-03 -1.7122073477770554e-02 0.0000000000000000e+00  -1.1334958905913886e-02 -6.5376337263509859e-02 0.0000000000000000e+00  -2.5255611802121403e-03 -2.1816033445322121e-02 0.0000000000000000e+00  -3.6200175986473046e-03 -2.8192348575641818e-02 0.0000000000000000e+00  -1.0050494688336227e-02 -5.8893913827773668e-02 0.0000000000000000e+00  -8.5173183508300103e-03 -5.2772365243362637e-02 0.0000000000000000e+00  -4.5301877971150126e-03 -3.3340074691953665e-02 0.0000000000000000e+00  -5.6656958998743340e-03 -3.9011744476468685e-02 0.0000000000000000e+00  -7.1947562182783451e-03 -4.6499080621078805e-02 0.0000000000000000e+00  -6.2194537122180064e-04 -8.1681269071507794e-03 0.0000000000000000e+00  -1.8791184542362695e-02 -9.7892342880095448e-02 0.0000000000000000e+00  -6.3828312282700308e-03 -4.2290236200430015e-02 0.0000000000000000e+00  -1.4132282604166389e-03 -1.4712441716639013e-02 0.0000000000000000e+00  -3.0627127654178289e-03 -2.5296718723644633e-02 0.0000000000000000e+00  -1.1337626709325792e-04 -2.3524167662018307e-03 0.0000000000000000e+00  -2.2967575924559176e-02 -1.1223685419493241e-01 0.0000000000000000e+00  8.0713085907848961e-05 -6.1142094549947873e-04 0.0000000000000000e+00  -8.2480853362505869e-03 -5.6041827033810068e-02 0.0000000000000000e+00  -1.1009499307280247e-02 -6.8631215218140224e-02 0.0000000000000000e+00  -1.2460710413254769e-02 -7.5061318242065272e-02 0.0000000000000000e+00  -4.8905115544847786e-03 -3.0651491097027205e-02 0.0000000000000000e+00  -9.6013045303674164e-03 -6.2282859652404744e-02 0.0000000000000000e+00  -1.3945147059032510e-02 -8.1552345624781475e-02 0.0000000000000000e+00  -6.9627304452467148e-03 -4.9934829753745941e-02 0.0000000000000000e+00  -1.5453989798909377e-02 -8.8086787768335742e-02 0.0000000000000000e+00  -5.9550343629982761e-03 -3.6052843596278750e-02 0.0000000000000000e+00  -2.8142663755791118e-03 -1.9223170267057079e-02 0.0000000000000000e+00  -6.8285528353024042e-04 -4.8731429472706244e-03 0.0000000000000000e+00  -2.1539086840348998e-02 -1.0515026188175894e-01 0.0000000000000000e+00  -1.9234955292187238e-02 -9.4075048221543764e-02 0.0000000000000000e+00  -1.7052489226691348e-04 -1.0050377631534168e-02 0.0000000000000000e+00  -1.6055154198684442e-02 -9.3863704800497272e-02 0.0000000000000000e+00  -1.8050614103509760e-03 -1.0357598811664074e-02 0.0000000000000000e+00  -1.8380112155388283e-02 -8.8426730303963100e-02 0.0000000000000000e+00  -1.6852800698791439e-02 -8.1894746010286526e-02 0.0000000000000000e+00  -1.5342336834463708e-02 -7.5407021663133289e-02 0.0000000000000000e+00  -1.9048764892661805e-02 -1.0675932900142579e-01 0.0000000000000000e+00  3.6848816801415076e-04 -4.5961516561300632e-03 0.0000000000000000e+00  -1.2401832656125678e-02 -6.2638155915288735e-02 0.0000000000000000e+00  -1.3855806574622679e-02 -6.8981104400430537e-02 0.0000000000000000e+00  -2.5889753956545671e-03 -3.0272368756181427e-02 0.0000000000000000e+00  -8.7597992642077509e-04 -1.8849486537567260e-02 0.0000000000000000e+00  -1.0586914674839359e-02 -5.4584786514614916e-02 0.0000000000000000e+00  -9.6307024457889853e-03 -5.0302529556334803e-02 0.0000000000000000e+00  -3.5260878487476518e-03 -3.5676261879281128e-02 0.0000000000000000e+00  -7.4557917834703759e-05 -5.8639035938199511e-05 0.0000000000000000e+00  5.2749462731152867e-05 -4.5297377018598073e-05 0.0000000000000000e+00  -5.3825083047614646e-03 -4.5259805039826483e-02 0.0000000000000000e+00  -3.9564965539660860e-03 -2.2874652262886111e-02 0.0000000000000000e+00  -2.2571109359379661e-03 -1.2931792087410972e-02 0.0000000000000000e+00  -4.9989293873448667e-04 -1.7701820741702302e-03 0.0000000000000000e+00  -6.7930693281610405e-04 -2.9926604268024149e-03 0.0000000000000000e+00  -4.5409878093561045e-03 -4.1294990449248350e-02 0.0000000000000000e+00  -2.6838518709517418e-03 -1.5502060540303357e-02 0.0000000000000000e+00  -4.6425235966798080e-03 -2.6206623600635175e-02 0.0000000000000000e+00  -1.3271765764999366e-03 -7.3400874913449486e-03 0.0000000000000000e+00  -1.7500144125844542e-02 -9.9949059115654021e-02 0.0000000000000000e+00  -2.0945823499357107e-02 -9.9277467726590532e-02 0.0000000000000000e+00  2.4245997084572352e-04 -7.4204461667144745e-03 0.0000000000000000e+00  -3.4266376869445905e-04 -8.4217851689710472e-04 0.0000000000000000e+00  -1.9694207494535220e-02 -1.1121349075348080e-01 0.0000000000000000e+00  -8.6487155954296183e-03 -4.4535528882168933e-02 0.0000000000000000e+00  -7.6213338556337549e-03 -4.0536729304456419e-02 0.0000000000000000e+00  2.5310685429624361e-05 -1.3143623186133673e-02 0.0000000000000000e+00  4.2328542869062323e-04 -1.7820636964013348e-03 0.0000000000000000e+00  4.9379656175187431e-04 -3.1032417849030675e-03 0.0000000000000000e+00  -1.2872832339210546e-03 -2.3367039073357368e-02 0.0000000000000000e+00  -1.4192203937397321e-04 -1.5811967977861077e-02 0.0000000000000000e+00  -1.5593324195153190e-03 -2.6670050092051450e-02 0.0000000000000000e+00  -2.1319063237387883e-04 -4.3955228427973399e-04 0.0000000000000000e+00  -2.0726986424795927e-02 -1.1426168735080726e-01 0.0000000000000000e+00  -1.7991377732992395e-02 -8.5808712712939383e-02 0.0000000000000000e+00  -1.6469093348388846e-02 -7.9292976817517083e-02 0.0000000000000000e+00  4.1309315919174823e-04 -5.6281834920142897e-03 0.0000000000000000e+00  -1.4965669199727076e-02 -7.2828269708768170e-02 0.0000000000000000e+00  -1.8235666701024451e-02 -1.0422772559957010e-01 0.0000000000000000e+00  -1.3488818778368354e-02 -6.6433535537364002e-02 0.0000000000000000e+00  -1.2053113048112536e-02 -6.0149149099429276e-02 0.0000000000000000e+00  -9.7164985490012594e-04 -2.0661575071394319e-02 0.0000000000000000e+00  -1.1324620351910621e-02 -5.6942400652413003e-02 0.0000000000000000e+00  -2.7776273618391740e-03 -3.2393503606895906e-02 0.0000000000000000e+00  -9.3174515773880046e-03 -4.7909034128041345e-02 0.0000000000000000e+00  -3.7477030817955068e-03 -3.7901924777582668e-02 0.0000000000000000e+00  -2.3620755237866917e-02 -1.0992124927169576e-01 0.0000000000000000e+00  -1.6384695009826391e-02 -9.6469789586619670e-02 0.0000000000000000e+00  -1.7287367732274699e-03 -9.0157513123184808e-03 0.0000000000000000e+00  3.4360854182716302e-04 -9.3188337014785561e-04 0.0000000000000000e+00  1.8507195146327395e-04 -3.5446968783971861e-04 0.0000000000000000e+00  -6.8392680688072818e-03 -5.4274148713530826e-02 0.0000000000000000e+00  -7.1544456139504336e-03 -3.7631929622209695e-02 0.0000000000000000e+00  -8.1495683951031406e-03 -6.0484196787755073e-02 0.0000000000000000e+00  -1.2454608843385380e-02 -7.9682095703833472e-02 0.0000000000000000e+00  -9.5640012560397804e-03 -6.6792774664470339e-02 0.0000000000000000e+00  -1.0989545757084562e-02 -7.3204475476505493e-02 0.0000000000000000e+00  -5.8183972307777592e-03 -3.2326951002960416e-02 0.0000000000000000e+00  -5.6787108177450947e-03 -4.8236151169700897e-02 0.0000000000000000e+00  -3.7386663443101861e-03 -2.0557881627647483e-02 0.0000000000000000e+00  -5.4052109935641413e-03 -2.8828752414612743e-02 0.0000000000000000e+00  -1.4883518344698095e-02 -9.0446186697944880e-02 0.0000000000000000e+00  -3.2790605341021352e-03 -1.7703056623905665e-02 0.0000000000000000e+00  -1.4238222584378561e-02 -8.6054469112316095e-02 0.0000000000000000e+00  -1.1889038385705113e-03 -5.6618755027130858e-03 0.0000000000000000e+00  -9.6879672118078660e-04 -4.0661912786886783e-03 0.0000000000000000e+00  -2.2975096520094662e-02 -1.0687094334244256e-01 0.0000000000000000e+00  -2.2108245346675853e-02 -1.0277929105861522e-01 0.0000000000000000e+00  -1.2402515518265036e-02 -7.7453146896818301e-02 0.0000000000000000e+00  -1.0944476777337678e-02 -7.0996789031688295e-02 0.0000000000000000e+00  -8.0395687793376729e-03 -5.8277309269352123e-02 0.0000000000000000e+00  -1.3773235848780986e-02 -8.3921630246991369e-02 0.0000000000000000e+00  -9.5279097091048003e-03 -6.4613761791820490e-02 0.0000000000000000e+00  -6.7115745954734879e-03 -5.2127663022043351e-02 0.0000000000000000e+00  -6.1514384693485838e-03 -3.4084036396227209e-02 0.0000000000000000e+00  3.2751828518004321e-04 -9.0193925478971471e-03 0.0000000000000000e+00  -2.0533419355218189e-02 -9.5972290228527699e-02 0.0000000000000000e+00  -1.9494190766154374e-02 -9.1828308947033963e-02 0.0000000000000000e+