<?xml version="1.0"?>
<VTKFile type="UnstructuredGrid"  version="0.1"  >
<UnstructuredGrid>
<Piece  NumberOfPoints="439" NumberOfCells="725">
<Points>
<DataArray  type="Float64"  NumberOfComponents="3"  format="ascii">0.6 0.19 0  0.6 0.21 0  0.2489897949 0.21 0  0.2489897949 0.19 0  0.6 0.2 0  0.2496355385699469 0.2060260530378829 0  0.249959460510575 0.2020130349814059 0  0.2499594605105767 0.1979869650186357 0  0.24963553856995 0.1939739469621422 0  0.2539336006056293 0.21 0  0.2588774063112542 0.21 0  0.2638212120168921 0.21 0  0.26876501772253 0.21 0  0.2737088234281569 0.21 0  0.2786526291337753 0.21 0  0.2835964348393937 0.21 0  0.2885402405450166 0.21 0  0.2934840462506522 0.21 0  0.2984278519562708 0.21 0  0.3033716576618997 0.21 0  0.3083154633675181 0.21 0  0.3132592690731365 0.21 0  0.3182030747787549 0.21 0  0.3231468804843732 0.21 0  0.3280906861899917 0.21 0  0.3330344918956208 0.21 0  0.3379782976012284 0.21 0  0.3429221033068576 0.21 0  0.347865909012476 0.21 0  0.3528097147180944 0.21 0  0.3577535204237128 0.21 0  0.3626973261293311 0.21 0  0.3676411318349495 0.21 0  0.3725849375405788 0.21 0  0.3775287432461877 0.21 0  0.382472548951812 0.21 0  0.3874163546574338 0.21 0  0.3923601603630631 0.21 0  0.3973039660686706 0.21 0  0.4022477717742986 0.21 0  0.4071915774799107 0.21 0  0.4121353831855311 0.21 0  0.4170791888911518 0.21 0  0.4220229945967636 0.21 0  0.4269668003023918 0.21 0  0.4319106060080253 0.21 0  0.4368544117136773 0.21 0  0.4417982174193329 0.21 0  0.4467420231249967 0.21 0  0.4516858288306445 0.21 0  0.4566296345362864 0.21 0  0.461573440241916 0.21 0  0.4665172459475665 0.21 0  0.4714610516531998 0.21 0  0.4764048573588668 0.21 0  0.4813486630645134 0.21 0  0.486292468770176 0.21 0  0.4912362744758066 0.21 0  0.4961800801814611 0.21 0  0.5011238858870897 0.21 0  0.5060676915927493 0.21 0  0.5110114972983872 0.21 0  0.5159553030040036 0.21 0  0.5208991087096415 0.21 0  0.5258429144153002 0.21 0  0.5307867201209391 0.21 0  0.5357305258265987 0.21 0  0.5406743315322367 0.21 0  0.5456181372378529 0.21 0  0.5505619429434908 0.21 0  0.5555057486491456 0.21 0  0.5604495543547885 0.21 0  0.565393360060448 0.21 0  0.5703371657661116 0.21 0  0.5752809714717458 0.21 0  0.5802247771773834 0.21 0  0.5851685828830341 0.21 0  0.5901123885886809 0.21 0  0.5950561942943404 0.21 0  0.5950561942943833 0.19 0  0.590112388588758 0.19 0  0.5851685828831193 0.19 0  0.5802247771774727 0.19 0  0.5752809714718514 0.19 0  0.5703371657662308 0.19 0  0.565393360060618 0.19 0  0.5604495543549889 0.19 0  0.5555057486493581 0.19 0  0.5505619429437035 0.19 0  0.5456181372381043 0.19 0  0.540674331532505 0.19 0  0.5357305258268962 0.19 0  0.530786720121263 0.19 0  0.5258429144156628 0.19 0  0.5208991087100244 0.19 0  0.5159553030044218 0.19 0  0.5110114972988226 0.19 0  0.5060676915932177 0.19 0  0.5011238858875806 0.19 0  0.496180080181972 0.19 0  0.4912362744763531 0.19 0  0.4862924687707343 0.19 0  0.4813486630651046 0.19 0  0.4764048573594966 0.19 0  0.4714610516538683 0.19 0  0.4665172459482555 0.19 0  0.4615734402426349 0.19 0  0.4566296345370104 0.19 0  0.4516858288313808 0.19 0  0.4467420231257716 0.19 0  0.4417982174201465 0.19 0  0.4368544117145297 0.19 0  0.4319106060089131 0.19 0  0.4269668003032866 0.19 0  0.4220229945976482 0.19 0  0.4170791888920056 0.19 0  0.4121353831863594 0.19 0  0.4071915774806995 0.19 0  0.4022477717750478 0.19 0  0.3973039660693901 0.19 0  0.3923601603637548 0.19 0  0.3874163546581082 0.19 0  0.3824725489524824 0.19 0  0.3775287432468258 0.19 0  0.3725849375411773 0.19 0  0.3676411318355085 0.19 0  0.3626973261298614 0.19 0  0.3577535204242108 0.19 0  0.352809714718589 0.19 0  0.347865909012931 0.19 0  0.342922103307292 0.19 0  0.3379782976016536 0.19 0  0.3330344918960152 0.19 0  0.3280906861903751 0.19 0  0.3231468804847171 0.19 0  0.3182030747790592 0.19 0  0.3132592690734012 0.19 0  0.3083154633677581 0.19 0  0.3033716576621197 0.19 0  0.2984278519564813 0.19 0  0.2934840462508429 0.19 0  0.2885402405451874 0.19 0  0.2835964348395295 0.19 0  0.2786526291338716 0.19 0  0.2737088234282243 0.19 0  0.268765017722586 0.19 0  0.2638212120169476 0.19 0  0.2588774063113093 0.19 0  0.2539336006056579 0.19 0  0.6 0.1949999999999783 0  0.6 0.2049999999999729 0  0.2589734265316493 0.2005523893428403 0  0.5431462343853077 0.199999999999969 0  0.5682397894768162 0.1999704585808987 0  0.2774513927118024 0.2007941919421926 0  0.513849583376897 0.1999023426490919 0  0.5286810004937381 0.1999023426490969 0  0.2945108952057646 0.1992911908405386 0  0.5827780831384927 0.1995429801003349 0  0.3104128396569256 0.1999704585808978 0  0.3370001755418551 0.2008294612433967 0  0.4990181662600459 0.1999023426490902 0  0.3552816175709044 0.2000000000000608 0  0.4841867491431925 0.1999023426490849 0  0.3707373713905551 0.2000142376953689 0  0.3898882575102495 0.2000000000000828 0  0.4689857550492734 0.1995416724256694 0  0.4541577316841967 0.1999999999999098 0  0.4043534914018331 0.2000976573509244 0  0.4195510917439569 0.2000000000001057 0  0.4387019778644512 0.1999857623046772 0  0.3202472750256703 0.2000088842146399 0  0.5584053541080851 0.1999911157853577 0  0.4280667146887134 0.1998489048208241 0  0.3467659946265474 0.2001510951794375 0  0.3813726345658908 0.200151095179452 0  0.2860683376922098 0.2000415445706182 0  0.5911223811781194 0.1982449159348744 0  0.2679893161458627 0.201675125646729 0  0.4615734402426278 0.2022503633288003 0  0.4912362744763454 0.2022503633288091 0  0.5060676915931983 0.2022503633288118 0  0.3973039660686774 0.1977496366711965 0  0.4764048573594896 0.2022503633288051 0  0.5208991087100455 0.2022503633288184 0  0.4467420231257656 0.2022503633288 0  0.5357305258268849 0.2022503633288198 0  0.4121353831855317 0.1977496366711976 0  0.3626973261293352 0.1977496366711919 0  0.3033716576618961 0.1977496366711869 0  0.5752809714718229 0.1977496366711503 0  0.550459855919056 0.1971284784737667 0  0.3281927732146841 0.2028715215262406 0  0.5484179020497461 0.2038403215694763 0  0.3302347270839988 0.1961596784305491 0  0.5379210852238114 0.196125181664411 0  0.5230896681069652 0.1961251816644058 0  0.5082582509901222 0.1961251816644098 0  0.5774715308687094 0.2038748183355887 0  0.3011810982649548 0.2038748183355937 0  0.4785954167564111 0.196125181664404 0  0.4934268338732671 0.1961251816644063 0  0.395113406671763 0.2038748183355966 0  0.3605067667324117 0.2038748183355951 0  0.4593828808457146 0.1961251816643993 0  0.4489325825226805 0.1961251816644007 0  0.4099448237886219 0.2038748183355991 0  0.2557862999801971 0.1960858370257295 0  0.2550147360309399 0.2034426429991114 0  0.4348031476464689 0.2037737577641554 0  0.37463620160841 0.1962262422358553 0  0.3406258365864304 0.196046792193989 0  0.2813001681189834 0.1960467921940502 0  0.2912686387439893 0.1960816328649282 0  0.4246705335819892 0.2039532078059544 0  0.350162175732913 0.1960467921941878 0  0.3847688156722694 0.1960467921942359 0  0.316632368538356 0.19615945856337 0  0.5621550011053409 0.2037816492598991 0  0.5624413877019769 0.1960761923611377 0  0.3162395035833128 0.2038679557424692 0  0.2710887134207622 0.1959696443325838 0  0.5873014376403604 0.2047227881030823 0  0.4346679566442709 0.1954651459552513 0  0.4243296504077986 0.1958756980939062 0  0.3402559510833523 0.2047940500290923 0  0.2808684926760933 0.2047742417812656 0  0.2914077033138723 0.2047809517070955 0  0.3747713926104932 0.2045348540448554 0  0.3499216488898867 0.2051753413186305 0  0.3845282888292298 0.205175341318636 0  0.2648144865455052 0.1962089742986374 0  0.5943247643662894 0.2040415423589182 0  0.5320972610456145 0.1956445099050872 0  0.5172658439287727 0.1956445099050854 0  0.3069923255602658 0.2043468033872551 0  0.5024344268119265 0.1956445099050864 0  0.5716603035734351 0.2043468033872761 0  0.4876030096950741 0.1956445099050831 0  0.4728151975296263 0.1956402468909894 0  0.3663301776527538 0.20436745486386 0  0.4651631000724991 0.1956402468909893 0  0.4009372308499527 0.2043554900949198 0  0.4431091716023345 0.1956325451361429 0  0.4157593408842466 0.2043565497109067 0  0.5865057328865416 0.1956918868509067 0  0.5541600609760193 0.2044335994013721 0  0.3244925681577497 0.1955664005986376 0  0.272008018888917 0.2049327968152409 0  0.2633407725863902 0.2042483236346266 0  0.4567948413982566 0.2046536472831198 0  0.4167680012832803 0.1955060004091903 0  0.4716262585151221 0.2046536472831242 0  0.5161054367030595 0.2045563706470633 0  0.4864426024693469 0.2045563706470604 0  0.5012740195862044 0.2045563706470634 0  0.4022810343427545 0.1961423961483001 0  0.4420739040821668 0.2044853411424516 0  0.3673807293464664 0.1955677741328205 0  0.3925253672243162 0.195346352716901 0  0.5405091246712254 0.2046536472831267 0  0.357918727284983 0.1953463527168901 0  0.5307534575528717 0.2038576038516682 0  0.3079697655029555 0.1955637092892754 0  0.2985930588175599 0.1953463527168728 0  0.579671714346879 0.1955441268455555 0  0.5705023726275059 0.1953463527168462 0  0.5112451461103119 0.2035640580783926 0  0.4964137289934448 0.2035640580783915 0  0.4665727251511405 0.2038238154617746 0  0.5259274680675793 0.2038006696000127 0  0.4815823118765752 0.2035640580783898 0  0.4517504165552094 0.2039070625502732 0  0.4071070238280551 0.1961993303999926 0  0.3234846806957546 0.2047001437739977 0  0.5551679484379799 0.1952998562260008 0  0.5457754356464107 0.1954447171286166 0  0.3329307555206357 0.2046017509710421 0  0.4541577316841968 0.1960357661898101 0  0.3358300776141575 0.1950765652117375 0  0.2539718587514912 0.200011552766824 0  0.5826472073721517 0.2039971170156656 0  0.2761021761080182 0.1946948236183283 0  0.3898581462796225 0.2041572776584344 0  0.3552515063402743 0.2041572776584256 0  0.2965028074750666 0.2046578268138723 0  0.4299158836614793 0.1951782397873778 0  0.379426563923736 0.2049969334481307 0  0.2860882692072842 0.2042624797643994 0  0.3449948044168807 0.2051793676155613 0  0.2603922435707652 0.1950997711614917 0  0.5949856943860
[...]
<PointData  Vectors="f_18-1"> 
<DataArray  type="Float64"  Name="f_18-1"  NumberOfComponents="3" format="ascii">-2.0050662354889455e-02 -9.7070603228654059e-02 0.0000000000000000e+00  -1.2453848657434867e-02 -9.8570230102615577e-02 0.0000000000000000e+00  0.0000000000000000e+00 0.0000000000000000e+00 0.0000000000000000e+00  0.0000000000000000e+00 0.0000000000000000e+00 0.0000000000000000e+00  -1.6252074530608729e-02 -9.7820407250626407e-02 0.0000000000000000e+00  0.0000000000000000e+00 0.0000000000000000e+00 0.0000000000000000e+00  0.0000000000000000e+00 0.0000000000000000e+00 0.0000000000000000e+00  0.0000000000000000e+00 0.0000000000000000e+00 0.0000000000000000e+00  0.0000000000000000e+00 0.0000000000000000e+00 0.0000000000000000e+00  1.2467105649950118e-04 -1.0848537791602102e-04 0.0000000000000000e+00  2.6187838869377465e-04 -2.2783634990881476e-04 0.0000000000000000e+00  3.9728265504297933e-04 -3.8058651885478610e-04 0.0000000000000000e+00  5.2317441673182987e-04 -6.3597630701108725e-04 0.0000000000000000e+00  6.4009164650664875e-04 -9.4732292269206816e-04 0.0000000000000000e+00  7.5837747070350034e-04 -1.3377602666941951e-03 0.0000000000000000e+00  8.6082888742189737e-04 -1.7694847710474175e-03 0.0000000000000000e+00  9.4638497321342292e-04 -2.2734258196432339e-03 0.0000000000000000e+00  1.0282487345016273e-03 -2.8347562561909074e-03 0.0000000000000000e+00  1.0968433917054709e-03 -3.4531914406542704e-03 0.0000000000000000e+00  1.1634942012678814e-03 -4.1488577893704229e-03 0.0000000000000000e+00  1.2277515949767229e-03 -4.8571742404871126e-03 0.0000000000000000e+00  1.2640823175524118e-03 -5.6507540692728028e-03 0.0000000000000000e+00  1.3118074578293117e-03 -6.4920999196438059e-03 0.0000000000000000e+00  1.3292597496850395e-03 -7.3742705784682521e-03 0.0000000000000000e+00  1.3411587261759534e-03 -8.3193707352934888e-03 0.0000000000000000e+00  1.3406912426299751e-03 -9.3000779361323560e-03 0.0000000000000000e+00  1.3248064371406115e-03 -1.0341478639743334e-02 0.0000000000000000e+00  1.2947530043480452e-03 -1.1407715816408094e-02 0.0000000000000000e+00  1.2533307329881988e-03 -1.2526214526386614e-02 0.0000000000000000e+00  1.1981148796513838e-03 -1.3680599475596508e-02 0.0000000000000000e+00  1.1281263497832561e-03 -1.4870587605254596e-02 0.0000000000000000e+00  1.0513284696765071e-03 -1.6120366771299598e-02 0.0000000000000000e+00  9.7247785805579256e-04 -1.7379169986893206e-02 0.0000000000000000e+00  8.7165628932158715e-04 -1.8690362641815370e-02 0.0000000000000000e+00  7.5881266100844642e-04 -2.0023466332949352e-02 0.0000000000000000e+00  6.3433423492290390e-04 -2.1396590933810494e-02 0.0000000000000000e+00  4.9774525623433221e-04 -2.2798362601698229e-02 0.0000000000000000e+00  3.4719630349485953e-04 -2.4227281429466514e-02 0.0000000000000000e+00  1.8856385679229224e-04 -2.5702297259641842e-02 0.0000000000000000e+00  2.8215161787886240e-05 -2.7181884047895805e-02 0.0000000000000000e+00  -1.5576526978714251e-04 -2.8700042664488182e-02 0.0000000000000000e+00  -3.4742654530697863e-04 -3.0250650823467860e-02 0.0000000000000000e+00  -5.4207395427116427e-04 -3.1808798493782181e-02 0.0000000000000000e+00  -7.5723775801256235e-04 -3.3401768658349942e-02 0.0000000000000000e+00  -9.7195936137785602e-04 -3.5013842677945786e-02 0.0000000000000000e+00  -1.2043008473025809e-03 -3.6646282293957659e-02 0.0000000000000000e+00  -1.4393520998981244e-03 -3.8304344570440733e-02 0.0000000000000000e+00  -1.6882254294363253e-03 -3.9975678136177611e-02 0.0000000000000000e+00  -1.9470770650372475e-03 -4.1668660926122328e-02 0.0000000000000000e+00  -2.2109635821570173e-03 -4.3377343347976008e-02 0.0000000000000000e+00  -2.4823406265869000e-03 -4.5103688102198919e-02 0.0000000000000000e+00  -2.7652943002026923e-03 -4.6844940741088671e-02 0.0000000000000000e+00  -3.0524853924301649e-03 -4.8599535251182206e-02 0.0000000000000000e+00  -3.3468163120944521e-03 -5.0369041134691941e-02 0.0000000000000000e+00  -3.6508935045497593e-03 -5.2150522758562363e-02 0.0000000000000000e+00  -3.9593250832874608e-03 -5.3942435634646603e-02 0.0000000000000000e+00  -4.2737243355983829e-03 -5.5746264836032226e-02 0.0000000000000000e+00  -4.5956852144096189e-03 -5.7558727234472529e-02 0.0000000000000000e+00  -4.9213006925968245e-03 -5.9379421172965727e-02 0.0000000000000000e+00  -5.2517257842458016e-03 -6.1209383718570369e-02 0.0000000000000000e+00  -5.5883187289553510e-03 -6.3046177953998264e-02 0.0000000000000000e+00  -5.9279856498633864e-03 -6.4889291050293230e-02 0.0000000000000000e+00  -6.2717076258870259e-03 -6.6739380691298061e-02 0.0000000000000000e+00  -6.6203262327160541e-03 -6.8594385363363972e-02 0.0000000000000000e+00  -6.9712362726064734e-03 -7.0453941467202783e-02 0.0000000000000000e+00  -7.3253591138081687e-03 -7.2317961287798965e-02 0.0000000000000000e+00  -7.6826841046036074e-03 -7.4185052362299816e-02 0.0000000000000000e+00  -8.0425896150397407e-03 -7.6054268151809906e-02 0.0000000000000000e+00  -8.4049613841618385e-03 -7.7925941945792651e-02 0.0000000000000000e+00  -8.7688332204100272e-03 -7.9799664561714820e-02 0.0000000000000000e+00  -9.1332388235009204e-03 -8.1673517455074673e-02 0.0000000000000000e+00  -9.4996562788449458e-03 -8.3549172207624298e-02 0.0000000000000000e+00  -9.8664286699563578e-03 -8.5425601052468894e-02 0.0000000000000000e+00  -1.0234392543368010e-02 -8.7302396155536713e-02 0.0000000000000000e+00  -1.0603244167439293e-02 -8.9180063694571571e-02 0.0000000000000000e+00  -1.0972448664744875e-02 -9.1057753777548670e-02 0.0000000000000000e+00  -1.1342386285512155e-02 -9.2935774522782455e-02 0.0000000000000000e+00  -1.1712739062030159e-02 -9.4814003751010900e-02 0.0000000000000000e+00  -1.2083206216462045e-02 -9.6692109596246217e-02 0.0000000000000000e+00  -1.9679911939929171e-02 -9.5192673879530856e-02 0.0000000000000000e+00  -1.9308853183599768e-02 -9.3314933908530795e-02 0.0000000000000000e+00  -1.8937550658380833e-02 -9.1437082677589321e-02 0.0000000000000000e+00  -1.8566064607800765e-02 -8.9559742043416296e-02 0.0000000000000000e+00  -1.8194525381781488e-02 -8.7683020003431339e-02 0.0000000000000000e+00  -1.7822916837835583e-02 -8.5806637940747568e-02 0.0000000000000000e+00  -1.7451348632661273e-02 -8.3931330802183610e-02 0.0000000000000000e+00  -1.7079439724411678e-02 -8.2057065699492865e-02 0.0000000000000000e+00  -1.6707809551853317e-02 -8.0183508007266813e-02 0.0000000000000000e+00  -1.6336041968318917e-02 -7.8311950741360617e-02 0.0000000000000000e+00  -1.5964015094954698e-02 -7.6441625260372847e-02 0.0000000000000000e+00  -1.5592563884870816e-02 -7.4573981224755559e-02 0.0000000000000000e+00  -1.5220842334486472e-02 -7.2710308922513900e-02 0.0000000000000000e+00  -1.4848239300465291e-02 -7.0847890325239846e-02 0.0000000000000000e+00  -1.4477150197799242e-02 -6.8990900867579016e-02 0.0000000000000000e+00  -1.4106063057339347e-02 -6.7140994955679698e-02 0.0000000000000000e+00  -1.3734155093936449e-02 -6.5293154651787561e-02 0.0000000000000000e+00  -1.3365657887534041e-02 -6.3453651301256991e-02 0.0000000000000000e+00  -1.2997643390835888e-02 -6.1623866990855293e-02 0.0000000000000000e+00  -1.2628886877728058e-02 -5.9796791692686625e-02 0.0000000000000000e+00  -1.2265381045477374e-02 -5.7980838411801044e-02 0.0000000000000000e+00  -1.1902777175131232e-02 -5.6177231876048783e-02 0.0000000000000000e+00  -1.1539401898878882e-02 -5.4377000524343029e-02 0.0000000000000000e+00  -1.1182889461245593e-02 -5.2590808508148429e-02 0.0000000000000000e+00  -1.0827452840350065e-02 -5.0820448818129221e-02 0.0000000000000000e+00  -1.0471809585530425e-02 -4.9055971838178489e-02 0.0000000000000000e+00  -1.0122050208847880e-02 -4.7306992654675882e-02 0.0000000000000000e+00  -9.7749543062889722e-03 -4.5578748490691351e-02 0.0000000000000000e+00  -9.4282374249275488e-03 -4.3854538798395459e-02 0.0000000000000000e+00  -9.0929400798070107e-03 -4.2151680496327490e-02 0.0000000000000000e+00  -8.7579444617961171e-03 -4.0475724871937159e-02 0.0000000000000000e+00  -8.4223291745171829e-03 -3.8806050391932335e-02 0.0000000000000000e+00  -8.0968920559698274e-03 -3.7163428046944988e-02 0.0000000000000000e+00  -7.7770172396050509e-03 -3.5534232650863584e-02 0.0000000000000000e+00  -7.4622791541609683e-03 -3.3928322291793322e-02 0.0000000000000000e+00  -7.1569639743851851e-03 -3.2350299042978710e-02 0.0000000000000000e+00  -6.8493497991696326e-03 -3.0788857485703786e-02 0.0000000000000000e+00  -6.5527896892579119e-03 -2.9255154387850039e-02 0.0000000000000000e+00  -6.2577630089032605e-03 -2.7745923965321252e-02 0.0000000000000000e+00  -5.9673892473521336e-03 -2.6265081493858190e-02 0.0000000000000000e+00  -5.6859527657339148e-03 -2.4813491426425444e-02 0.0000000000000000e+00  -5.4159407589984910e-03 -2.3383068464980825e-02 0.0000000000000000e+00  -5.1544345884698261e-03 -2.1985818125226819e-02 0.0000000000000000e+00  -4.8840562878435471e-03 -2.0615343245060640e-02 0.0000000000000000e+00  -4.6341854109886865e-03 -1.9279889451111407e-02 0.0000000000000000e+00  -4.3791771705056683e-03 -1.7984129410979637e-02 0.0000000000000000e+00  -4.1410470850373670e-03 -1.6713741057627407e-02 0.0000000000000000e+00  -3.9066387426744016e-03 -1.5487968751404100e-02 0.0000000000000000e+00  -3.6841946213689533e-03 -1.4287980893458974e-02 0.0000000000000000e+00  -3.4710513017210966e-03 -1.3130993084876669e-02 0.0000000000000000e+00  -3.2452800281702692e-03 -1.2006570197524885e-02 0.0000000000000000e+00  -3.0433024406295228e-03 -1.0925010579199654e-02 0.0000000000000000e+00  -2.8313579390749880e-03 -9.8938509539146357e-03 0.0000000000000000e+00  -2.6447880668847706e-03 -8.8975365530384702e-03 0.0000000000000000e+00  -2.4603097075137368e-03 -7.9649792172873258e-03 0.0000000000000000e+00  -2.2723881227479674e-03 -7.0468510226841157e-03 0.0000000000000000e+00  -2.1016031512246795e-03 -6.1967303052181504e-03 0.0000000000000000e+00  -1.9129420407401484e-03 -5.3935408579364706e-03 0.0000000000000000e+00  -1.7510482265107551e-03 -4.6350119603169697e-03 0.0000000000000000e+00  -1.5892902662089134e-03 -3.9444715957777481e-03 0.0000000000000000e+00  -1.4367777311175005e-03 -3.2912702369456291e-03 0.0000000000000000e+00  -1.2911893729126201e-03 -2.7035131444320833e-03 0.0000000000000000e+00  -1.1281674497874161e-03 -2.1608547183742267e-03 0.0000000000000000e+00  -9.9273700475157201e-04 -1.6781468558456827e-03 0.0000000000000000e+00  -8.3616530320943113e-04 -1.2560673602770485e-03 0.0000000000000000e+00  -7.0067872007160297e-04 -9.0538152531194046e-04 0.0000000000000000e+00  -5.4706065035668521e-04 -6.1608383041923166e-04 0.0000000000000000e+00  -4.0844957384225276e-04 -3.7246997395710209e-04 0.0000000000000000e+00  -2.7230772308828576e-04 -2.0238111471605524e-04 0.0000000000000000e+00  -1.3515720949481777e-04 -1.1559743039954730e-04 0.0000000000000000e+00  -1.8151279563718790e-02 -9.7445488501208127e-02 0.0000000000000000e+00  -1.4353048803066560e-02 -9.8195311762197174e-02 0.0000000000000000e+00  1.3420881327087644e-05 -1.1066854526017100e-04 0.0000000000000000e+00  -1.1999868327662384e-02 -7.6245378146871504e-02 0.0000000000000000e+00  -1.3882445516503415e-02 -8.5755074900950412e-02 0.0000000000000000e+00  2.0401696616837636e-05 -1.1104679215170870e-03 0.0000000000000000e+00  -9.8842737979734224e-03 -6.5214238636037730e-02 0.0000000000000000e+00  -1.0966695982365068e-02 -7.0777081131470729e-02 0.0000000000000000e+00  -2.0524935399797678e-04 -2.8017327743564665e-03 0.0000000000000000e+00  -1.5134003278280361e-02 -9.1243710649421286e-02 0.0000000000000000e+00  -2.7736242600666811e-04 -4.9970726192130064e-03 0.0000000000000000e+00  -5.5845969360219453e-04 -9.8653818358045847e-03 0.0000000000000000e+00  -8.8239417691019281e-03 -5.9707421189319723e-02 0.0000000000000000e+00  -1.1889443770052141e-03 -1.3940445228033492e-02 0.0000000000000000e+00  -7.7933518639434814e-03 -5.4274688992590539e-02 0.0000000000000000e+00  -1.6757853061363467e-03 -1.7796141571088109e-02 0.0000000000000000e+00  -2.4143077463806215e-03 -2.3059185801570872e-02 0.0000000000000000e+00  -6.9030992034537367e-03 -4.8780464108282622e-02 0.0000000000000000e+00  -5.7954506006752228e-03 -4.3599937727032287e-02 0.0000000000000000e+00  -3.0281415707469695e-03 -2.7326599731898559e-02 0.0000000000000000e+00  -3.8118635987998699e-03 -3.2050927345131715e-02 0.0000000000000000e+00  -4.8713241845535597e-03 -3.8319174294337656e-02 0.0000000000000000e+00  -4.0782056317625399e-04 -6.6236975661158734e-03 0.0000000000000000e+00  -1.3139293985513311e-02 -8.2025160194216476e-02 0.0000000000000000e+00  -4.3150068198128180e-03 -3.4792755274568252e-02 0.0000000000000000e+00  -9.2740838081930557e-04 -1.1965997698537159e-02 0.0000000000000000e+00  -2.0304650503876055e-03 -2.0664446832238812e-02 0.0000000000000000e+00  -7.4120728004110651e-05 -1.8996935325720186e-03 0.0000000000000000e+00  -1.6252942233939343e-02 -9.4316242066012496e-02 0.0000000000000000e+00  6.8617140681625539e-05 -4.9211031115203451e-04 0.0000000000000000e+00  -5.4739830631421599e-03 -4.6332789011265134e-02 0.0000000000000000e+00  -7.4223094834779913e-03 -5.7010049537511022e-02 0.0000000000000000e+00  -8.4557547728261670e-03 -6.2484660024581910e-02 0.0000000000000000e+00  -3.3971322388695281e-03 -2.5117948407819692e-02 0.0000000000000000e+00  -6.4254249879954128e-03 -5.1618085354142348e-02 0.0000000000000000e+00  -9.5185147763133734e-03 -6.8023727583439317e-02 0.0000000000000000e+00  -4.5781304657899870e-03 -4.1181072800867004e-02 0.0000000000000000e+00  -1.0602564560211594e-02 -7.3608811533715762e-02 0.0000000000000000e+00  -4.1330055145644582e-03 -2.9608215090351241e-02 0.0000000000000000e+00  -1.9729067216096023e-03 -1.5680566437894963e-02 0.0000000000000000e+00  -5.0654605631716640e-04 -3.9484869254780728e-03 0.0000000000000000e+00  -1.5252520931752845e-02 -8.8262172746483986e-02 0.0000000000000000e+00  -1.3629819472271619e-02 -7.8801062481244508e-02 0.0000000000000000e+00  -7.2640876378445024e-06 -8.1462319628939264e-03 0.0000000000000000e+00  -1.0939771599131318e-02 -7.8526664368637589e-02 0.0000000000000000e+00  -1.3319565401353479e-03 -8.4257379772283199e-03 0.0000000000000000e+00  -1.3073063475905705e-02 -7.3984594012481475e-02 0.0000000000000000e+00  -1.1971040424750411e-02 -6.8400579552517729e-02 0.0000000000000000e+00  -1.0882052261584394e-02 -6.2862767415781895e-02 0.0000000000000000e+00  -1.3092026956014578e-02 -8.9552534241205697e-02 0.0000000000000000e+00  3.4288775810385416e-04 -3.7103477249718106e-03 0.0000000000000000e+00  -8.7717283729418019e-03 -5.2000016750464638e-02 0.0000000000000000e+00  -9.8133497310988662e-03 -5.7389749051577787e-02 0.0000000000000000e+00  -1.5094742196638633e-03 -2.4745322548494011e-02 0.0000000000000000e+00  -3.9547952592536642e-04 -1.5331190137072676e-02 0.0000000000000000e+00  -7.4778256473606438e-03 -4.5179266498868768e-02 0.0000000000000000e+00  -6.7973891547074162e-03 -4.1565713238364485e-02 0.0000000000000000e+00  -2.1329920917278356e-03 -2.9230666351994655e-02 0.0000000000000000e+00  -5.9602438637993714e-05 -4.7167340149833434e-05 0.0000000000000000e+00  4.3039460631297698e-05 -3.6264467036143914e-05 0.0000000000000000e+00  -3.3973355786970426e-03 -3.7235443686536356e-02 0.0000000000000000e+00  -2.8237897880956314e-03 -1.8698808129459347e-02 0.0000000000000000e+00  -1.6518190568871628e-03 -1.0531602826453561e-02 0.0000000000000000e+00  -3.9231099726696859e-04 -1.4321832471769606e-03 0.0000000000000000e+00  -5.2592888045458950e-04 -2.4235102337102645e-03 0.0000000000000000e+00  -2.8133057957327756e-03 -3.3915044463450388e-02 0.0000000000000000e+00  -1.9476552725640869e-03 -1.2636883841380803e-02 0.0000000000000000e+00  -3.3060329680255321e-03 -2.1451994941108072e-02 0.0000000000000000e+00  -9.9422224318714719e-04 -5.9620733147371765e-03 0.0000000000000000e+00  -1.1982762300318271e-02 -8.3730650104827997e-02 0.0000000000000000e+00  -1.4925069724173569e-02 -8.3264263304545741e-02 0.0000000000000000e+00  2.8265665330729162e-04 -6.0027762245836577e-03 0.0000000000000000e+00  -2.7197304319541231e-04 -6.8083721863480080e-04 0.0000000000000000e+00  -1.3506343431181450e-02 -9.3350351645229160e-02 0.0000000000000000e+00  -6.1383793613240499e-03 -3.6725418527151908e-02 0.0000000000000000e+00  -5.3930464745959601e-03 -3.3371225542107176e-02 0.0000000000000000e+00  2.1329669089783745e-04 -1.0659057584104393e-02 0.0000000000000000e+00  3.5482016327479499e-04 -1.4341381601704769e-03 0.0000000000000000e+00  4.2576421287865912e-04 -2.5007077471028553e-03 0.0000000000000000e+00  -6.2169214104968731e-04 -1.9038043785101679e-02 0.0000000000000000e+00  1.3448848169049157e-04 -1.2836422146706626e-02 0.0000000000000000e+00  -7.5909984521579856e-04 -2.1755697140827170e-02 0.0000000000000000e+00  -1.6971775082200323e-04 -3.5491374980253928e-04 0.0000000000000000e+00  -1.4291589949883119e-02 -9.5967472933363718e-02 0.0000000000000000e+00  -1.2820974432135456e-02 -7.1752694365702932e-02 0.0000000000000000e+00  -1.1722402155896292e-02 -6.6185212540164629e-02 0.0000000000000000e+00  3.9358429615813983e-04 -4.5463032035122850e-03 0.0000000000000000e+00  -1.0639003727668595e-02 -6.0671595566527542e-02 0.0000000000000000e+00  -1.2478206238210655e-02 -8.7381113108958047e-02 0.0000000000000000e+00  -9.5780628330899946e-03 -5.5230091220498830e-02 0.0000000000000000e+00  -8.5502411491541787e-03 -4.9895419505318631e-02 0.0000000000000000e+00  -4.3055640728355304e-04 -1.6815215887850288e-02 0.0000000000000000e+00  -8.0294568222376086e-03 -4.7179186139659025e-02 0.0000000000000000e+00  -1.6070786054486566e-03 -2.6499210747788847e-02 0.0000000000000000e+00  -6.6030319866407627e-03 -3.9557219907355071e-02 0.0000000000000000e+00  -2.2532587847019277e-03 -3.1079090193064419e-02 0.0000000000000000e+00  -1.6876100513226883e-02 -9.2371204188498479e-02 0.0000000000000000e+00  -1.1141193154878326e-02 -8.0746742560393020e-02 0.0000000000000000e+00  -1.2933841375594092e-03 -7.3320476209140411e-03 0.0000000000000000e+00  2.8324316834341985e-04 -7.4895532279461541e-04 0.0000000000000000e+00  1.5149081810060338e-04 -2.8462382188104230e-04 0.0000000000000000e+00  -4.3460004172503584e-03 -4.4809619296917284e-02 0.0000000000000000e+00  -5.0840458229187728e-03 -3.0949240850161444e-02 0.0000000000000000e+00  -5.2586166545621447e-03 -5.0062197087231752e-02 0.0000000000000000e+00  -8.3123774677476819e-03 -6.6395195287053288e-02 0.0000000000000000e+00  -6.2588090899586930e-03 -5.5416800084086740e-02 0.0000000000000000e+00  -7.2682018716333464e-03 -6.0871437608002586e-02 0.0000000000000000e+00  -4.1192161476484926e-03 -2.6525000682352085e-02 0.0000000000000000e+00  -3.5561199261823083e-03 -3.9725765842908413e-02 0.0000000000000000e+00  -2.6991514231268312e-03 -1.6794746435607112e-02 0.0000000000000000e+00  -3.8679978654466152e-03 -2.3629733379296174e-02 0.0000000000000000e+00  -1.0048534798868762e-02 -7.5592983029868221e-02 0.0000000000000000e+00  -2.3866618959246071e-03 -1.4448166147966769e-02 0.0000000000000000e+00  -9.6326414820080818e-03 -7.1848978834029992e-02 0.0000000000000000e+00  -9.0651402325895333e-04 -4.5960217424067060e-03 0.0000000000000000e+00  -7.4849570311151384e-04 -3.2974438704549106e-03 0.0000000000000000e+00  -1.6419250548706330e-02 -8.9764444709555108e-02 0.0000000000000000e+00  -1.5806146163069475e-02 -8.6268527161267983e-02 0.0000000000000000e+00  -8.3349814791776524e-03 -6.4506441682260260e-02 0.0000000000000000e+00  -7.2964742953083020e-03 -5.9004927419769322e-02 0.0000000000000000e+00  -5.2323014212885752e-03 -4.8203736343704888e-02 0.0000000000000000e+00  -9.3022329503769235e-03 -7.0026720400864439e-02 0.0000000000000000e+00  -6.2938682450559991e-03 -5.3578911275482505e-02 0.0000000000000000e+00  -4.3030140696027844e-03 -4.3008024336857693e-02 0.0000000000000000e+00  -4.3481785331001433e-03 -2.7985284507629285e-02 0.0000000000000000e+00  3.7936806717902058e-04 -7.2998364512524292e-03 0.0000000000000000e+00  -1.4674224140520328e-02 -8.0449030203844404e-02 0.0000000000000000e+00  -1.3916672286715807e-02 -7.6903206310488581e-02 0.0000000000000000e+00  2