<?xml version="1.0"?>
<VTKFile type="UnstructuredGrid"  version="0.1"  >
<UnstructuredGrid>
<Piece  NumberOfPoints="439" NumberOfCells="725">
<Points>
<DataArray  type="Float64"  NumberOfComponents="3"  format="ascii">0.6 0.19 0  0.6 0.21 0  0.2489897949 0.21 0  0.2489897949 0.19 0  0.6 0.2 0  0.2496355385699469 0.2060260530378829 0  0.249959460510575 0.2020130349814059 0  0.2499594605105767 0.1979869650186357 0  0.24963553856995 0.1939739469621422 0  0.2539336006056293 0.21 0  0.2588774063112542 0.21 0  0.2638212120168921 0.21 0  0.26876501772253 0.21 0  0.2737088234281569 0.21 0  0.2786526291337753 0.21 0  0.2835964348393937 0.21 0  0.2885402405450166 0.21 0  0.2934840462506522 0.21 0  0.2984278519562708 0.21 0  0.3033716576618997 0.21 0  0.3083154633675181 0.21 0  0.3132592690731365 0.21 0  0.3182030747787549 0.21 0  0.3231468804843732 0.21 0  0.3280906861899917 0.21 0  0.3330344918956208 0.21 0  0.3379782976012284 0.21 0  0.3429221033068576 0.21 0  0.347865909012476 0.21 0  0.3528097147180944 0.21 0  0.3577535204237128 0.21 0  0.3626973261293311 0.21 0  0.3676411318349495 0.21 0  0.3725849375405788 0.21 0  0.3775287432461877 0.21 0  0.382472548951812 0.21 0  0.3874163546574338 0.21 0  0.3923601603630631 0.21 0  0.3973039660686706 0.21 0  0.4022477717742986 0.21 0  0.4071915774799107 0.21 0  0.4121353831855311 0.21 0  0.4170791888911518 0.21 0  0.4220229945967636 0.21 0  0.4269668003023918 0.21 0  0.4319106060080253 0.21 0  0.4368544117136773 0.21 0  0.4417982174193329 0.21 0  0.4467420231249967 0.21 0  0.4516858288306445 0.21 0  0.4566296345362864 0.21 0  0.461573440241916 0.21 0  0.4665172459475665 0.21 0  0.4714610516531998 0.21 0  0.4764048573588668 0.21 0  0.4813486630645134 0.21 0  0.486292468770176 0.21 0  0.4912362744758066 0.21 0  0.4961800801814611 0.21 0  0.5011238858870897 0.21 0  0.5060676915927493 0.21 0  0.5110114972983872 0.21 0  0.5159553030040036 0.21 0  0.5208991087096415 0.21 0  0.5258429144153002 0.21 0  0.5307867201209391 0.21 0  0.5357305258265987 0.21 0  0.5406743315322367 0.21 0  0.5456181372378529 0.21 0  0.5505619429434908 0.21 0  0.5555057486491456 0.21 0  0.5604495543547885 0.21 0  0.565393360060448 0.21 0  0.5703371657661116 0.21 0  0.5752809714717458 0.21 0  0.5802247771773834 0.21 0  0.5851685828830341 0.21 0  0.5901123885886809 0.21 0  0.5950561942943404 0.21 0  0.5950561942943833 0.19 0  0.590112388588758 0.19 0  0.5851685828831193 0.19 0  0.5802247771774727 0.19 0  0.5752809714718514 0.19 0  0.5703371657662308 0.19 0  0.565393360060618 0.19 0  0.5604495543549889 0.19 0  0.5555057486493581 0.19 0  0.5505619429437035 0.19 0  0.5456181372381043 0.19 0  0.540674331532505 0.19 0  0.5357305258268962 0.19 0  0.530786720121263 0.19 0  0.5258429144156628 0.19 0  0.5208991087100244 0.19 0  0.5159553030044218 0.19 0  0.5110114972988226 0.19 0  0.5060676915932177 0.19 0  0.5011238858875806 0.19 0  0.496180080181972 0.19 0  0.4912362744763531 0.19 0  0.4862924687707343 0.19 0  0.4813486630651046 0.19 0  0.4764048573594966 0.19 0  0.4714610516538683 0.19 0  0.4665172459482555 0.19 0  0.4615734402426349 0.19 0  0.4566296345370104 0.19 0  0.4516858288313808 0.19 0  0.4467420231257716 0.19 0  0.4417982174201465 0.19 0  0.4368544117145297 0.19 0  0.4319106060089131 0.19 0  0.4269668003032866 0.19 0  0.4220229945976482 0.19 0  0.4170791888920056 0.19 0  0.4121353831863594 0.19 0  0.4071915774806995 0.19 0  0.4022477717750478 0.19 0  0.3973039660693901 0.19 0  0.3923601603637548 0.19 0  0.3874163546581082 0.19 0  0.3824725489524824 0.19 0  0.3775287432468258 0.19 0  0.3725849375411773 0.19 0  0.3676411318355085 0.19 0  0.3626973261298614 0.19 0  0.3577535204242108 0.19 0  0.352809714718589 0.19 0  0.347865909012931 0.19 0  0.342922103307292 0.19 0  0.3379782976016536 0.19 0  0.3330344918960152 0.19 0  0.3280906861903751 0.19 0  0.3231468804847171 0.19 0  0.3182030747790592 0.19 0  0.3132592690734012 0.19 0  0.3083154633677581 0.19 0  0.3033716576621197 0.19 0  0.2984278519564813 0.19 0  0.2934840462508429 0.19 0  0.2885402405451874 0.19 0  0.2835964348395295 0.19 0  0.2786526291338716 0.19 0  0.2737088234282243 0.19 0  0.268765017722586 0.19 0  0.2638212120169476 0.19 0  0.2588774063113093 0.19 0  0.2539336006056579 0.19 0  0.6 0.1949999999999783 0  0.6 0.2049999999999729 0  0.2589734265316493 0.2005523893428403 0  0.5431462343853077 0.199999999999969 0  0.5682397894768162 0.1999704585808987 0  0.2774513927118024 0.2007941919421926 0  0.513849583376897 0.1999023426490919 0  0.5286810004937381 0.1999023426490969 0  0.2945108952057646 0.1992911908405386 0  0.5827780831384927 0.1995429801003349 0  0.3104128396569256 0.1999704585808978 0  0.3370001755418551 0.2008294612433967 0  0.4990181662600459 0.1999023426490902 0  0.3552816175709044 0.2000000000000608 0  0.4841867491431925 0.1999023426490849 0  0.3707373713905551 0.2000142376953689 0  0.3898882575102495 0.2000000000000828 0  0.4689857550492734 0.1995416724256694 0  0.4541577316841967 0.1999999999999098 0  0.4043534914018331 0.2000976573509244 0  0.4195510917439569 0.2000000000001057 0  0.4387019778644512 0.1999857623046772 0  0.3202472750256703 0.2000088842146399 0  0.5584053541080851 0.1999911157853577 0  0.4280667146887134 0.1998489048208241 0  0.3467659946265474 0.2001510951794375 0  0.3813726345658908 0.200151095179452 0  0.2860683376922098 0.2000415445706182 0  0.5911223811781194 0.1982449159348744 0  0.2679893161458627 0.201675125646729 0  0.4615734402426278 0.2022503633288003 0  0.4912362744763454 0.2022503633288091 0  0.5060676915931983 0.2022503633288118 0  0.3973039660686774 0.1977496366711965 0  0.4764048573594896 0.2022503633288051 0  0.5208991087100455 0.2022503633288184 0  0.4467420231257656 0.2022503633288 0  0.5357305258268849 0.2022503633288198 0  0.4121353831855317 0.1977496366711976 0  0.3626973261293352 0.1977496366711919 0  0.3033716576618961 0.1977496366711869 0  0.5752809714718229 0.1977496366711503 0  0.550459855919056 0.1971284784737667 0  0.3281927732146841 0.2028715215262406 0  0.5484179020497461 0.2038403215694763 0  0.3302347270839988 0.1961596784305491 0  0.5379210852238114 0.196125181664411 0  0.5230896681069652 0.1961251816644058 0  0.5082582509901222 0.1961251816644098 0  0.5774715308687094 0.2038748183355887 0  0.3011810982649548 0.2038748183355937 0  0.4785954167564111 0.196125181664404 0  0.4934268338732671 0.1961251816644063 0  0.395113406671763 0.2038748183355966 0  0.3605067667324117 0.2038748183355951 0  0.4593828808457146 0.1961251816643993 0  0.4489325825226805 0.1961251816644007 0  0.4099448237886219 0.2038748183355991 0  0.2557862999801971 0.1960858370257295 0  0.2550147360309399 0.2034426429991114 0  0.4348031476464689 0.2037737577641554 0  0.37463620160841 0.1962262422358553 0  0.3406258365864304 0.196046792193989 0  0.2813001681189834 0.1960467921940502 0  0.2912686387439893 0.1960816328649282 0  0.4246705335819892 0.2039532078059544 0  0.350162175732913 0.1960467921941878 0  0.3847688156722694 0.1960467921942359 0  0.316632368538356 0.19615945856337 0  0.5621550011053409 0.2037816492598991 0  0.5624413877019769 0.1960761923611377 0  0.3162395035833128 0.2038679557424692 0  0.2710887134207622 0.1959696443325838 0  0.5873014376403604 0.2047227881030823 0  0.4346679566442709 0.1954651459552513 0  0.4243296504077986 0.1958756980939062 0  0.3402559510833523 0.2047940500290923 0  0.2808684926760933 0.2047742417812656 0  0.2914077033138723 0.2047809517070955 0  0.3747713926104932 0.2045348540448554 0  0.3499216488898867 0.2051753413186305 0  0.3845282888292298 0.205175341318636 0  0.2648144865455052 0.1962089742986374 0  0.5943247643662894 0.2040415423589182 0  0.5320972610456145 0.1956445099050872 0  0.5172658439287727 0.1956445099050854 0  0.3069923255602658 0.2043468033872551 0  0.5024344268119265 0.1956445099050864 0  0.5716603035734351 0.2043468033872761 0  0.4876030096950741 0.1956445099050831 0  0.4728151975296263 0.1956402468909894 0  0.3663301776527538 0.20436745486386 0  0.4651631000724991 0.1956402468909893 0  0.4009372308499527 0.2043554900949198 0  0.4431091716023345 0.1956325451361429 0  0.4157593408842466 0.2043565497109067 0  0.5865057328865416 0.1956918868509067 0  0.5541600609760193 0.2044335994013721 0  0.3244925681577497 0.1955664005986376 0  0.272008018888917 0.2049327968152409 0  0.2633407725863902 0.2042483236346266 0  0.4567948413982566 0.2046536472831198 0  0.4167680012832803 0.1955060004091903 0  0.4716262585151221 0.2046536472831242 0  0.5161054367030595 0.2045563706470633 0  0.4864426024693469 0.2045563706470604 0  0.5012740195862044 0.2045563706470634 0  0.4022810343427545 0.1961423961483001 0  0.4420739040821668 0.2044853411424516 0  0.3673807293464664 0.1955677741328205 0  0.3925253672243162 0.195346352716901 0  0.5405091246712254 0.2046536472831267 0  0.357918727284983 0.1953463527168901 0  0.5307534575528717 0.2038576038516682 0  0.3079697655029555 0.1955637092892754 0  0.2985930588175599 0.1953463527168728 0  0.579671714346879 0.1955441268455555 0  0.5705023726275059 0.1953463527168462 0  0.5112451461103119 0.2035640580783926 0  0.4964137289934448 0.2035640580783915 0  0.4665727251511405 0.2038238154617746 0  0.5259274680675793 0.2038006696000127 0  0.4815823118765752 0.2035640580783898 0  0.4517504165552094 0.2039070625502732 0  0.4071070238280551 0.1961993303999926 0  0.3234846806957546 0.2047001437739977 0  0.5551679484379799 0.1952998562260008 0  0.5457754356464107 0.1954447171286166 0  0.3329307555206357 0.2046017509710421 0  0.4541577316841968 0.1960357661898101 0  0.3358300776141575 0.1950765652117375 0  0.2539718587514912 0.200011552766824 0  0.5826472073721517 0.2039971170156656 0  0.2761021761080182 0.1946948236183283 0  0.3898581462796225 0.2041572776584344 0  0.3552515063402743 0.2041572776584256 0  0.2965028074750666 0.2046578268138723 0  0.4299158836614793 0.1951782397873778 0  0.379426563923736 0.2049969334481307 0  0.2860882692072842 0.2042624797643994 0  0.3449948044168807 0.2051793676155613 0  0.2603922435707652 0.1950997711614917 0  0.5949856943860
[...]
<PointData  Vectors="f_18-1"> 
<DataArray  type="Float64"  Name="f_18-1"  NumberOfComponents="3" format="ascii">-3.6207613488058814e-03 -3.7283054123718455e-02 0.0000000000000000e+00  -8.4472351582148429e-04 -3.7476724605633858e-02 0.0000000000000000e+00  0.0000000000000000e+00 0.0000000000000000e+00 0.0000000000000000e+00  0.0000000000000000e+00 0.0000000000000000e+00 0.0000000000000000e+00  -2.2327284224075675e-03 -3.7379894746661035e-02 0.0000000000000000e+00  0.0000000000000000e+00 0.0000000000000000e+00 0.0000000000000000e+00  0.0000000000000000e+00 0.0000000000000000e+00 0.0000000000000000e+00  0.0000000000000000e+00 0.0000000000000000e+00 0.0000000000000000e+00  0.0000000000000000e+00 0.0000000000000000e+00 0.0000000000000000e+00  5.7503285438847961e-05 -5.0522356899125435e-05 0.0000000000000000e+00  1.1977940926485254e-04 -1.0479718727245303e-04 0.0000000000000000e+00  1.8101721998427394e-04 -1.7359831782517895e-04 0.0000000000000000e+00  2.3827233822393243e-04 -2.8699764219629808e-04 0.0000000000000000e+00  2.9161058680201175e-04 -4.2393948549945820e-04 0.0000000000000000e+00  3.4612289983009767e-04 -5.9441979501191329e-04 0.0000000000000000e+00  3.9413325155125434e-04 -7.8173161302018510e-04 0.0000000000000000e+00  4.3592159072839879e-04 -9.9915891646172009e-04 0.0000000000000000e+00  4.7703665633187868e-04 -1.2397484088494451e-03 0.0000000000000000e+00  5.1374477990617025e-04 -1.5033002338404684e-03 0.0000000000000000e+00  5.5146888443743502e-04 -1.7971661426601439e-03 0.0000000000000000e+00  5.8825198318173592e-04 -2.0956170299642933e-03 0.0000000000000000e+00  6.1630104381185939e-04 -2.4279317468236181e-03 0.0000000000000000e+00  6.5017841843857302e-04 -2.7777935121126502e-03 0.0000000000000000e+00  6.7346737841430886e-04 -3.1439825386410073e-03 0.0000000000000000e+00  6.9680661082417304e-04 -3.5336088557743734e-03 0.0000000000000000e+00  7.1657185699247020e-04 -3.9366575043033305e-03 0.0000000000000000e+00  7.3286553507131828e-04 -4.3623882106131936e-03 0.0000000000000000e+00  7.4478304659994607e-04 -4.7972030093914285e-03 0.0000000000000000e+00  7.5459473136704975e-04 -5.2510068536588067e-03 0.0000000000000000e+00  7.6082759866015265e-04 -5.7177725644526126e-03 0.0000000000000000e+00  7.6330469408889272e-04 -6.1971213571413155e-03 0.0000000000000000e+00  7.6595252003530971e-04 -6.6966168083515062e-03 0.0000000000000000e+00  7.6803387061932793e-04 -7.1988452431400278e-03 0.0000000000000000e+00  7.6510292597912458e-04 -7.7190749117060937e-03 0.0000000000000000e+00  7.5920615713688403e-04 -8.2464495125245275e-03 0.0000000000000000e+00  7.5137797745840947e-04 -8.7868832932506517e-03 0.0000000000000000e+00  7.4102518790636785e-04 -9.3366017738629441e-03 0.0000000000000000e+00  7.2762950021421698e-04 -9.8950405388844049e-03 0.0000000000000000e+00  7.1402114262501468e-04 -1.0467459977837301e-02 0.0000000000000000e+00  6.9994689571295694e-04 -1.1041123360136205e-02 0.0000000000000000e+00  6.8079173263176822e-04 -1.1627109854808892e-02 0.0000000000000000e+00  6.6100843307736123e-04 -1.2222416340093495e-02 0.0000000000000000e+00  6.4064395633145032e-04 -1.2819839643656704e-02 0.0000000000000000e+00  6.1627000944576896e-04 -1.3427816543806611e-02 0.0000000000000000e+00  5.9291620995202232e-04 -1.4040757069292337e-02 0.0000000000000000e+00  5.6582104107158839e-04 -1.4659865835620404e-02 0.0000000000000000e+00  5.3928973113460672e-04 -1.5285723168553299e-02 0.0000000000000000e+00  5.0983360179664139e-04 -1.5915594112840832e-02 0.0000000000000000e+00  4.7897508976249168e-04 -1.6551402302834601e-02 0.0000000000000000e+00  4.4767493488358955e-04 -1.7191336516542654e-02 0.0000000000000000e+00  4.1546215703671660e-04 -1.7836054934489337e-02 0.0000000000000000e+00  3.8119482094872627e-04 -1.8485072048588992e-02 0.0000000000000000e+00  3.4664936179101342e-04 -1.9137627488218217e-02 0.0000000000000000e+00  3.1119520207857236e-04 -1.9794323217795673e-02 0.0000000000000000e+00  2.7398729235875380e-04 -2.0454615256101982e-02 0.0000000000000000e+00  2.3628882173705188e-04 -2.1117802393117047e-02 0.0000000000000000e+00  1.9775353301752533e-04 -2.1784337529672085e-02 0.0000000000000000e+00  1.5779180723988576e-04 -2.2453498660517917e-02 0.0000000000000000e+00  1.1734397702418007e-04 -2.3124842666696125e-02 0.0000000000000000e+00  7.6175093708566143e-05 -2.3798644790704964e-02 0.0000000000000000e+00  3.3895588568636543e-05 -2.4474323671235886e-02 0.0000000000000000e+00  -8.7818736277580986e-06 -2.5151511073667636e-02 0.0000000000000000e+00  -5.2017179538462690e-05 -2.5830432925506987e-02 0.0000000000000000e+00  -9.6066161613534402e-05 -2.6510633204437462e-02 0.0000000000000000e+00  -1.4034746197523330e-04 -2.7191947792688874e-02 0.0000000000000000e+00  -1.8505949685778165e-04 -2.7874476162751051e-02 0.0000000000000000e+00  -2.3030036367267223e-04 -2.8557959140010591e-02 0.0000000000000000e+00  -2.7602658643600128e-04 -2.9242177560624916e-02 0.0000000000000000e+00  -3.2223846515939730e-04 -2.9927268835538395e-02 0.0000000000000000e+00  -3.6874796746852163e-04 -3.0613060536351426e-02 0.0000000000000000e+00  -4.1542480854716527e-04 -3.1298943990661549e-02 0.0000000000000000e+00  -4.6258500139156108e-04 -3.1985414186377362e-02 0.0000000000000000e+00  -5.0990938151895327e-04 -3.2672004984422270e-02 0.0000000000000000e+00  -5.5749597942778473e-04 -3.3358635019851403e-02 0.0000000000000000e+00  -6.0528470649329755e-04 -3.4045201951000456e-02 0.0000000000000000e+00  -6.5314390558224235e-04 -3.4731730006604560e-02 0.0000000000000000e+00  -7.0103560516349454e-04 -3.5418096720680040e-02 0.0000000000000000e+00  -7.4894889018609783e-04 -3.6104336469895124e-02 0.0000000000000000e+00  -7.9685610945592357e-04 -3.6790543428042118e-02 0.0000000000000000e+00  -3.5729183689495320e-03 -3.6596819148187444e-02 0.0000000000000000e+00  -3.5251193184668780e-03 -3.5910540907401561e-02 0.0000000000000000e+00  -3.4773261234162258e-03 -3.5224228066470686e-02 0.0000000000000000e+00  -3.4295463770958579e-03 -3.4537796559872318e-02 0.0000000000000000e+00  -3.3817388395927881e-03 -3.3851277913302308e-02 0.0000000000000000e+00  -3.3338342497339865e-03 -3.3164667105485865e-02 0.0000000000000000e+00  -3.2857819676896014e-03 -3.2478094510764666e-02 0.0000000000000000e+00  -3.2375279653756462e-03 -3.1791637563150399e-02 0.0000000000000000e+00  -3.1891605094059756e-03 -3.1105331016851197e-02 0.0000000000000000e+00  -3.1405606323893411e-03 -3.0419541821663468e-02 0.0000000000000000e+00  -3.0917714755360507e-03 -2.9734080166251339e-02 0.0000000000000000e+00  -3.0429722759736607e-03 -2.9049419513684345e-02 0.0000000000000000e+00  -2.9939266510989643e-03 -2.8365812054968520e-02 0.0000000000000000e+00  -2.9446459563610460e-03 -2.7682469570543503e-02 0.0000000000000000e+00  -2.8955239404171882e-03 -2.7000537644327093e-02 0.0000000000000000e+00  -2.8460872232719705e-03 -2.6320183987694725e-02 0.0000000000000000e+00  -2.7963877124177030e-03 -2.5640226698707112e-02 0.0000000000000000e+00  -2.7470193171161127e-03 -2.4962263700678052e-02 0.0000000000000000e+00  -2.6971785640034079e-03 -2.4286441045200575e-02 0.0000000000000000e+00  -2.6469693205272830e-03 -2.3611179841749794e-02 0.0000000000000000e+00  -2.5972280504301818e-03 -2.2938745393543358e-02 0.0000000000000000e+00  -2.5468745976802479e-03 -2.2269338375727366e-02 0.0000000000000000e+00  -2.4960664410317891e-03 -2.1600734548000482e-02 0.0000000000000000e+00  -2.4460193577663220e-03 -2.0936033111134712e-02 0.0000000000000000e+00  -2.3952742157013706e-03 -2.0275428059657270e-02 0.0000000000000000e+00  -2.3441207998762836e-03 -1.9616317405114374e-02 0.0000000000000000e+00  -2.2935450704435773e-03 -1.8961495349793148e-02 0.0000000000000000e+00  -2.2424696314501001e-03 -1.8312030525806270e-02 0.0000000000000000e+00  -2.1912719370776241e-03 -1.7663606108260597e-02 0.0000000000000000e+00  -2.1417079654293845e-03 -1.7021153521847330e-02 0.0000000000000000e+00  -2.0906794115792067e-03 -1.6385424487464679e-02 0.0000000000000000e+00  -2.0391044257526475e-03 -1.5751262200805281e-02 0.0000000000000000e+00  -1.9884940680147912e-03 -1.5124439838106227e-02 0.0000000000000000e+00  -1.9384619785053935e-03 -1.4501389203201086e-02 0.0000000000000000e+00  -1.8883242446632051e-03 -1.3884612901625789e-02 0.0000000000000000e+00  -1.8389610964695160e-03 -1.3275749808797022e-02 0.0000000000000000e+00  -1.7878892921827966e-03 -1.2671178463400896e-02 0.0000000000000000e+00  -1.7381146290190016e-03 -1.2074780992580993e-02 0.0000000000000000e+00  -1.6871879240833042e-03 -1.1485329055256351e-02 0.0000000000000000e+00  -1.6357272709016935e-03 -1.0904182840291245e-02 0.0000000000000000e+00  -1.5849164215232601e-03 -1.0332047814067146e-02 0.0000000000000000e+00  -1.5360170845945831e-03 -9.7667677608805677e-03 0.0000000000000000e+00  -1.4876131948000448e-03 -9.2118804327069263e-03 0.0000000000000000e+00  -1.4348706768913878e-03 -8.6646118165858120e-03 0.0000000000000000e+00  -1.3861685939815427e-03 -8.1293638422860123e-03 0.0000000000000000e+00  -1.3334268844291100e-03 -7.6062335855474365e-03 0.0000000000000000e+00  -1.2843657413882652e-03 -7.0921653546756154e-03 0.0000000000000000e+00  -1.2339170454918028e-03 -6.5928656987878044e-03 0.0000000000000000e+00  -1.1856256523018597e-03 -6.1027006964154478e-03 0.0000000000000000e+00  -1.1379160938344605e-03 -5.6275156078005152e-03 0.0000000000000000e+00  -1.0839757468527312e-03 -5.1629232247683253e-03 0.0000000000000000e+00  -1.0356757674267086e-03 -4.7146824948177107e-03 0.0000000000000000e+00  -9.8106234967406335e-04 -4.2838725675434569e-03 0.0000000000000000e+00  -9.3351848100976331e-04 -3.8670652648976536e-03 0.0000000000000000e+00  -8.8355584302784594e-04 -3.4739277282109810e-03 0.0000000000000000e+00  -8.3144487020971665e-04 -3.0862759648008966e-03 0.0000000000000000e+00  -7.8244219188473537e-04 -2.7248508919681751e-03 0.0000000000000000e+00  -7.2460886478019977e-04 -2.3809181027955222e-03 0.0000000000000000e+00  -6.7490408262312757e-04 -2.0552963058409627e-03 0.0000000000000000e+00  -6.2250712240156404e-04 -1.7563764283997534e-03 0.0000000000000000e+00  -5.7204212990441604e-04 -1.4727014959746711e-03 0.0000000000000000e+00  -5.2189702448252355e-04 -1.2154472035405483e-03 0.0000000000000000e+00  -4.6313063993796608e-04 -9.7617108667603968e-04 0.0000000000000000e+00  -4.1333389335776845e-04 -7.6257255233484604e-04 0.0000000000000000e+00  -3.5291710443635611e-04 -5.7369011820753975e-04 0.0000000000000000e+00  -2.9918581830333215e-04 -4.1588797108036557e-04 0.0000000000000000e+00  -2.3600584434598293e-04 -2.8426655025006527e-04 0.0000000000000000e+00  -1.7800544037616711e-04 -1.7309934713514099e-04 0.0000000000000000e+00  -1.1976336698210390e-04 -9.4591170694081011e-05 0.0000000000000000e+00  -5.9878816881208623e-05 -5.3118390874719177e-05 0.0000000000000000e+00  -2.9267358351010076e-03 -3.7331469828081359e-02 0.0000000000000000e+00  -1.5387170136451649e-03 -3.7428317646856578e-02 0.0000000000000000e+00  7.5093427554964083e-06 -5.3494140831437881e-05 0.0000000000000000e+00  -1.6831667252506608e-03 -2.9487256594329322e-02 0.0000000000000000e+00  -1.9294397630965016e-03 -3.2969927539126115e-02 0.0000000000000000e+00  1.9864743493358247e-05 -5.0303088437957989e-04 0.0000000000000000e+00  -1.4175864744432574e-03 -2.5443171049595325e-02 0.0000000000000000e+00  -1.5580878530289458e-03 -2.7485350205614240e-02 0.0000000000000000e+00  -5.4955881234216836e-05 -1.2448916219119665e-03 0.0000000000000000e+00  -2.1294818122431038e-03 -3.4984870002777377e-02 0.0000000000000000e+00  -4.6551122142936677e-05 -2.1842339169349211e-03 0.0000000000000000e+00  -5.2184813675806339e-05 -4.2179366474688227e-03 0.0000000000000000e+00  -1.2789753731614884e-03 -2.3414140018643941e-02 0.0000000000000000e+00  -1.9615686722325806e-04 -5.8926831608773367e-03 0.0000000000000000e+00  -1.1429770555390758e-03 -2.1403898696352050e-02 0.0000000000000000e+00  -2.7242751034987694e-04 -7.4499274485302957e-03 0.0000000000000000e+00  -3.8572116792112563e-04 -9.5398097894595808e-03 0.0000000000000000e+00  -1.0549554449214205e-03 -1.9367130396242629e-02 0.0000000000000000e+00  -8.6664254464934737e-04 -1.7422088628658742e-02 0.0000000000000000e+00  -4.6997752300377891e-04 -1.1209704786207303e-02 0.0000000000000000e+00  -5.9059273995455490e-04 -1.3037942779915870e-02 0.0000000000000000e+00  -7.4093672869811821e-04 -1.5430813619392390e-02 0.0000000000000000e+00  -6.7430444874528935e-05 -2.8712526424430596e-03 0.0000000000000000e+00  -1.8314380286035801e-03 -3.1604123237254422e-02 0.0000000000000000e+00  -6.7355800720784889e-04 -1.4090305557309104e-02 0.0000000000000000e+00  -1.4672344719401044e-04 -5.0861457617843893e-03 0.0000000000000000e+00  -3.1791918807782632e-04 -8.5922223301116134e-03 0.0000000000000000e+00  -1.1377262174354229e-05 -8.5067741539160175e-04 0.0000000000000000e+00  -2.3904120102162937e-03 -3.6130674257270984e-02 0.0000000000000000e+00  3.5032873465120585e-05 -2.2656270858107443e-04 0.0000000000000000e+00  -6.3480255263705576e-04 -1.8412197661773832e-02 0.0000000000000000e+00  -8.8992949401572906e-04 -2.2378603451490613e-02 0.0000000000000000e+00  -1.0241367766368763e-03 -2.4398943769272756e-02 0.0000000000000000e+00  -6.9246759809702524e-04 -1.0372139225993530e-02 0.0000000000000000e+00  -7.5978705533570460e-04 -2.0380534048619794e-02 0.0000000000000000e+00  -1.1614561054102456e-03 -2.6435011084747564e-02 0.0000000000000000e+00  -5.1613799391584606e-04 -1.6480226236445638e-02 0.0000000000000000e+00  -1.3011484620455835e-03 -2.8482261806540399e-02 0.0000000000000000e+00  -8.0595742068995059e-04 -1.2122094846494867e-02 0.0000000000000000e+00  -4.5717500350588453e-04 -6.6151151791404815e-03 0.0000000000000000e+00  -1.6331011926053453e-04 -1.7420642301793788e-03 0.0000000000000000e+00  -2.3058405601410910e-03 -3.3926388339942597e-02 0.0000000000000000e+00  -2.1513997761271018e-03 -3.0473654136052266e-02 0.0000000000000000e+00  1.3327121012155106e-04 -3.4955672013121078e-03 0.0000000000000000e+00  -1.2019289417462514e-03 -3.0255369507537572e-02 0.0000000000000000e+00  -4.0665544834471467e-04 -3.6417460830643171e-03 0.0000000000000000e+00  -2.1684941981443256e-03 -2.8726535173245790e-02 0.0000000000000000e+00  -2.0244582014317396e-03 -2.6678393643508876e-02 0.0000000000000000e+00  -1.8810728652441852e-03 -2.4641206105792225e-02 0.0000000000000000e+00  -1.4768364452405888e-03 -3.4290007024125484e-02 0.0000000000000000e+00  1.9352874411298691e-04 -1.6261479988034606e-03 0.0000000000000000e+00  -1.5971760684913127e-03 -2.0619035447151733e-02 0.0000000000000000e+00  -1.7384731535978247e-03 -2.2619272517585189e-02 0.0000000000000000e+00  2.3237355433499349e-05 -1.0161511569043062e-02 0.0000000000000000e+00  1.6254901863420801e-04 -6.4278286485775892e-03 0.0000000000000000e+00  -1.4183980224953441e-03 -1.8072076668161255e-02 0.0000000000000000e+00  -1.3214692919518286e-03 -1.6712120198338686e-02 0.0000000000000000e+00  -5.8295058821369965e-05 -1.1903943012997936e-02 0.0000000000000000e+00  -2.5604410255189413e-05 -2.3550932655514782e-05 0.0000000000000000e+00  2.0050321062171193e-05 -1.8476088394872175e-05 0.0000000000000000e+00  -2.3372364090487935e-04 -1.4968230980649172e-02 0.0000000000000000e+00  -6.9566805940700534e-04 -7.8434728664310265e-03 0.0000000000000000e+00  -4.8113303654718218e-04 -4.5188505140044775e-03 0.0000000000000000e+00  -1.5601292041815478e-04 -6.4892435643141763e-04 0.0000000000000000e+00  -1.9882577858014230e-04 -1.0847441827660134e-03 0.0000000000000000e+00  -1.4209079997661559e-04 -1.3701858697128857e-02 0.0000000000000000e+00  -5.4068312460261818e-04 -5.3863814854970479e-03 0.0000000000000000e+00  -7.8942252768935209e-04 -8.9429059863459347e-03 0.0000000000000000e+00  -3.2684146591378566e-04 -2.6051719443755767e-03 0.0000000000000000e+00  -1.3417828475410858e-03 -3.2161676264679695e-02 0.0000000000000000e+00  -2.4136905768034631e-03 -3.2126800607680230e-02 0.0000000000000000e+00  2.0869468377373600e-04 -2.5966191381557140e-03 0.0000000000000000e+00  -1.1291676226259003e-04 -3.1329388898367001e-04 0.0000000000000000e+00  -1.4542623701617723e-03 -3.5663051808841217e-02 0.0000000000000000e+00  -1.2777427944150798e-03 -1.4885539608729780e-02 0.0000000000000000e+00  -1.1349575145377174e-03 -1.3596605013397989e-02 0.0000000000000000e+00  2.8375201626958709e-04 -4.5225951462683125e-03 0.0000000000000000e+00  1.6945002993521498e-04 -6.4193226404397148e-04 0.0000000000000000e+00  2.1220593934060132e-04 -1.1054167138926409e-03 0.0000000000000000e+00  1.8366661961722729e-04 -7.9064554988398806e-03 0.0000000000000000e+00  3.0759993055448181e-04 -5.4089821085428333e-03 0.0000000000000000e+00  2.1599251594747965e-04 -8.9754637184914585e-03 0.0000000000000000e+00  -7.1507434759904623e-05 -1.6527631298691734e-04 0.0000000000000000e+00  -1.6168139897019551e-03 -3.6631328932646916e-02 0.0000000000000000e+00  -2.1784019009995301e-03 -2.7916712731680664e-02 0.0000000000000000e+00  -2.0343678594038975e-03 -2.5872582790732183e-02 0.0000000000000000e+00  2.2892090089332375e-04 -1.9806530024002447e-03 0.0000000000000000e+00  -1.8908713361944040e-03 -2.3840885325543008e-02 0.0000000000000000e+00  -1.3551331758726148e-03 -3.3487503235665045e-02 0.0000000000000000e+00  -1.7481488364082987e-03 -2.1826780335947038e-02 0.0000000000000000e+00  -1.6077248914910447e-03 -1.9842925881781749e-02 0.0000000000000000e+00  1.9239451434342779e-04 -7.0208729892967617e-03 0.0000000000000000e+00  -1.5351315762066253e-03 -1.8828305891183256e-02 0.0000000000000000e+00  4.6743717210474654e-05 -1.0840423168261502e-02 0.0000000000000000e+00  -1.3330648854836577e-03 -1.5959723379603906e-02 0.0000000000000000e+00  -3.6230156923743663e-05 -1.2610350113052808e-02 0.0000000000000000e+00  -2.7001275309443329e-03 -3.5465051216265829e-02 0.0000000000000000e+00  -1.1746175513935031e-03 -3.1057826772470931e-02 0.0000000000000000e+00  -4.1844150020821147e-04 -3.1858677266062463e-03 0.0000000000000000e+00  1.3195504752475736e-04 -3.3993823480142437e-04 0.0000000000000000e+00  7.0267204742169328e-05 -1.3223425444520981e-04 0.0000000000000000e+00  -2.8292319072000985e-04 -1.7806899578653876e-02 0.0000000000000000e+00  -1.1146085271340979e-03 -1.2667480930093488e-02 0.0000000000000000e+00  -4.0003313175444258e-04 -1.9764772294770260e-02 0.0000000000000000e+00  -8.0043136368239225e-04 -2.5797711009895537e-02 0.0000000000000000e+00  -5.3687778871428437e-04 -2.1751642066220208e-02 0.0000000000000000e+00  -6.6648794355688692e-04 -2.3765895575630636e-02 0.0000000000000000e+00  -9.1781194924693522e-04 -1.0940598838657103e-02 0.0000000000000000e+00  -1.9513321284316939e-04 -1.5899977497605820e-02 0.0000000000000000e+00  -7.1018381918915984e-04 -7.0824556801752092e-03 0.0000000000000000e+00  -9.2892048423175362e-04 -9.8110997129161482e-03 0.0000000000000000e+00  -1.0142573990580531e-03 -2.9166994259456638e-02 0.0000000000000000e+00  -6.6146898688915830e-04 -6.1314195251356363e-03 0.0000000000000000e+00  -1.0323287270322800e-03 -2.7809687242192634e-02 0.0000000000000000e+00  -3.1953184350941495e-04 -2.0250511253763061e-03 0.0000000000000000e+00  -2.7838958764173977e-04 -1.4663556282668566e-03 0.0000000000000000e+00  -2.6545200475053920e-03 -3.4514768386902588e-02 0.0000000000000000e+00  -2.5931403043291529e-03 -3.3239401141895254e-02 0.0000000000000000e+00  -8.9182984450599998e-04 -2.5120680260092527e-02 0.0000000000000000e+00  -7.5795013555312652e-04 -2.3093990804302422e-02 0.0000000000000000e+00  -4.6836744988433288e-04 -1.9086080420475379e-02 0.0000000000000000e+00  -9.9499587120418652e-04 -2.7142896965611493e-02 0.0000000000000000e+00  -6.2836397101786795e-04 -2.1087081271989178e-02 0.0000000000000000e+00  -3.4062281005056645e-04 -1.7142814914518481e-02 0.0000000000000000e+00  -9.5016823432308029e-04 -1.1509830968905963e-02 0.0000000000000000e+00  2.7528802762217787e-04 -3.1355140675898108e-03 0.0000000000000000e+00  -2.4506443611119052e-03 -3.1109408701162789e-02 0.0000000000000000e+00  -2.3391432089598491e-03 -2.9807892007581757e-02 0.0000000000000000e+00  2.6913614775442209e-04 -3.891