<?xml version="1.0"?>
<VTKFile type="UnstructuredGrid"  version="0.1"  >
<UnstructuredGrid>
<Piece  NumberOfPoints="439" NumberOfCells="725">
<Points>
<DataArray  type="Float64"  NumberOfComponents="3"  format="ascii">0.6 0.19 0  0.6 0.21 0  0.2489897949 0.21 0  0.2489897949 0.19 0  0.6 0.2 0  0.2496355385699469 0.2060260530378829 0  0.249959460510575 0.2020130349814059 0  0.2499594605105767 0.1979869650186357 0  0.24963553856995 0.1939739469621422 0  0.2539336006056293 0.21 0  0.2588774063112542 0.21 0  0.2638212120168921 0.21 0  0.26876501772253 0.21 0  0.2737088234281569 0.21 0  0.2786526291337753 0.21 0  0.2835964348393937 0.21 0  0.2885402405450166 0.21 0  0.2934840462506522 0.21 0  0.2984278519562708 0.21 0  0.3033716576618997 0.21 0  0.3083154633675181 0.21 0  0.3132592690731365 0.21 0  0.3182030747787549 0.21 0  0.3231468804843732 0.21 0  0.3280906861899917 0.21 0  0.3330344918956208 0.21 0  0.3379782976012284 0.21 0  0.3429221033068576 0.21 0  0.347865909012476 0.21 0  0.3528097147180944 0.21 0  0.3577535204237128 0.21 0  0.3626973261293311 0.21 0  0.3676411318349495 0.21 0  0.3725849375405788 0.21 0  0.3775287432461877 0.21 0  0.382472548951812 0.21 0  0.3874163546574338 0.21 0  0.3923601603630631 0.21 0  0.3973039660686706 0.21 0  0.4022477717742986 0.21 0  0.4071915774799107 0.21 0  0.4121353831855311 0.21 0  0.4170791888911518 0.21 0  0.4220229945967636 0.21 0  0.4269668003023918 0.21 0  0.4319106060080253 0.21 0  0.4368544117136773 0.21 0  0.4417982174193329 0.21 0  0.4467420231249967 0.21 0  0.4516858288306445 0.21 0  0.4566296345362864 0.21 0  0.461573440241916 0.21 0  0.4665172459475665 0.21 0  0.4714610516531998 0.21 0  0.4764048573588668 0.21 0  0.4813486630645134 0.21 0  0.486292468770176 0.21 0  0.4912362744758066 0.21 0  0.4961800801814611 0.21 0  0.5011238858870897 0.21 0  0.5060676915927493 0.21 0  0.5110114972983872 0.21 0  0.5159553030040036 0.21 0  0.5208991087096415 0.21 0  0.5258429144153002 0.21 0  0.5307867201209391 0.21 0  0.5357305258265987 0.21 0  0.5406743315322367 0.21 0  0.5456181372378529 0.21 0  0.5505619429434908 0.21 0  0.5555057486491456 0.21 0  0.5604495543547885 0.21 0  0.565393360060448 0.21 0  0.5703371657661116 0.21 0  0.5752809714717458 0.21 0  0.5802247771773834 0.21 0  0.5851685828830341 0.21 0  0.5901123885886809 0.21 0  0.5950561942943404 0.21 0  0.5950561942943833 0.19 0  0.590112388588758 0.19 0  0.5851685828831193 0.19 0  0.5802247771774727 0.19 0  0.5752809714718514 0.19 0  0.5703371657662308 0.19 0  0.565393360060618 0.19 0  0.5604495543549889 0.19 0  0.5555057486493581 0.19 0  0.5505619429437035 0.19 0  0.5456181372381043 0.19 0  0.540674331532505 0.19 0  0.5357305258268962 0.19 0  0.530786720121263 0.19 0  0.5258429144156628 0.19 0  0.5208991087100244 0.19 0  0.5159553030044218 0.19 0  0.5110114972988226 0.19 0  0.5060676915932177 0.19 0  0.5011238858875806 0.19 0  0.496180080181972 0.19 0  0.4912362744763531 0.19 0  0.4862924687707343 0.19 0  0.4813486630651046 0.19 0  0.4764048573594966 0.19 0  0.4714610516538683 0.19 0  0.4665172459482555 0.19 0  0.4615734402426349 0.19 0  0.4566296345370104 0.19 0  0.4516858288313808 0.19 0  0.4467420231257716 0.19 0  0.4417982174201465 0.19 0  0.4368544117145297 0.19 0  0.4319106060089131 0.19 0  0.4269668003032866 0.19 0  0.4220229945976482 0.19 0  0.4170791888920056 0.19 0  0.4121353831863594 0.19 0  0.4071915774806995 0.19 0  0.4022477717750478 0.19 0  0.3973039660693901 0.19 0  0.3923601603637548 0.19 0  0.3874163546581082 0.19 0  0.3824725489524824 0.19 0  0.3775287432468258 0.19 0  0.3725849375411773 0.19 0  0.3676411318355085 0.19 0  0.3626973261298614 0.19 0  0.3577535204242108 0.19 0  0.352809714718589 0.19 0  0.347865909012931 0.19 0  0.342922103307292 0.19 0  0.3379782976016536 0.19 0  0.3330344918960152 0.19 0  0.3280906861903751 0.19 0  0.3231468804847171 0.19 0  0.3182030747790592 0.19 0  0.3132592690734012 0.19 0  0.3083154633677581 0.19 0  0.3033716576621197 0.19 0  0.2984278519564813 0.19 0  0.2934840462508429 0.19 0  0.2885402405451874 0.19 0  0.2835964348395295 0.19 0  0.2786526291338716 0.19 0  0.2737088234282243 0.19 0  0.268765017722586 0.19 0  0.2638212120169476 0.19 0  0.2588774063113093 0.19 0  0.2539336006056579 0.19 0  0.6 0.1949999999999783 0  0.6 0.2049999999999729 0  0.2589734265316493 0.2005523893428403 0  0.5431462343853077 0.199999999999969 0  0.5682397894768162 0.1999704585808987 0  0.2774513927118024 0.2007941919421926 0  0.513849583376897 0.1999023426490919 0  0.5286810004937381 0.1999023426490969 0  0.2945108952057646 0.1992911908405386 0  0.5827780831384927 0.1995429801003349 0  0.3104128396569256 0.1999704585808978 0  0.3370001755418551 0.2008294612433967 0  0.4990181662600459 0.1999023426490902 0  0.3552816175709044 0.2000000000000608 0  0.4841867491431925 0.1999023426490849 0  0.3707373713905551 0.2000142376953689 0  0.3898882575102495 0.2000000000000828 0  0.4689857550492734 0.1995416724256694 0  0.4541577316841967 0.1999999999999098 0  0.4043534914018331 0.2000976573509244 0  0.4195510917439569 0.2000000000001057 0  0.4387019778644512 0.1999857623046772 0  0.3202472750256703 0.2000088842146399 0  0.5584053541080851 0.1999911157853577 0  0.4280667146887134 0.1998489048208241 0  0.3467659946265474 0.2001510951794375 0  0.3813726345658908 0.200151095179452 0  0.2860683376922098 0.2000415445706182 0  0.5911223811781194 0.1982449159348744 0  0.2679893161458627 0.201675125646729 0  0.4615734402426278 0.2022503633288003 0  0.4912362744763454 0.2022503633288091 0  0.5060676915931983 0.2022503633288118 0  0.3973039660686774 0.1977496366711965 0  0.4764048573594896 0.2022503633288051 0  0.5208991087100455 0.2022503633288184 0  0.4467420231257656 0.2022503633288 0  0.5357305258268849 0.2022503633288198 0  0.4121353831855317 0.1977496366711976 0  0.3626973261293352 0.1977496366711919 0  0.3033716576618961 0.1977496366711869 0  0.5752809714718229 0.1977496366711503 0  0.550459855919056 0.1971284784737667 0  0.3281927732146841 0.2028715215262406 0  0.5484179020497461 0.2038403215694763 0  0.3302347270839988 0.1961596784305491 0  0.5379210852238114 0.196125181664411 0  0.5230896681069652 0.1961251816644058 0  0.5082582509901222 0.1961251816644098 0  0.5774715308687094 0.2038748183355887 0  0.3011810982649548 0.2038748183355937 0  0.4785954167564111 0.196125181664404 0  0.4934268338732671 0.1961251816644063 0  0.395113406671763 0.2038748183355966 0  0.3605067667324117 0.2038748183355951 0  0.4593828808457146 0.1961251816643993 0  0.4489325825226805 0.1961251816644007 0  0.4099448237886219 0.2038748183355991 0  0.2557862999801971 0.1960858370257295 0  0.2550147360309399 0.2034426429991114 0  0.4348031476464689 0.2037737577641554 0  0.37463620160841 0.1962262422358553 0  0.3406258365864304 0.196046792193989 0  0.2813001681189834 0.1960467921940502 0  0.2912686387439893 0.1960816328649282 0  0.4246705335819892 0.2039532078059544 0  0.350162175732913 0.1960467921941878 0  0.3847688156722694 0.1960467921942359 0  0.316632368538356 0.19615945856337 0  0.5621550011053409 0.2037816492598991 0  0.5624413877019769 0.1960761923611377 0  0.3162395035833128 0.2038679557424692 0  0.2710887134207622 0.1959696443325838 0  0.5873014376403604 0.2047227881030823 0  0.4346679566442709 0.1954651459552513 0  0.4243296504077986 0.1958756980939062 0  0.3402559510833523 0.2047940500290923 0  0.2808684926760933 0.2047742417812656 0  0.2914077033138723 0.2047809517070955 0  0.3747713926104932 0.2045348540448554 0  0.3499216488898867 0.2051753413186305 0  0.3845282888292298 0.205175341318636 0  0.2648144865455052 0.1962089742986374 0  0.5943247643662894 0.2040415423589182 0  0.5320972610456145 0.1956445099050872 0  0.5172658439287727 0.1956445099050854 0  0.3069923255602658 0.2043468033872551 0  0.5024344268119265 0.1956445099050864 0  0.5716603035734351 0.2043468033872761 0  0.4876030096950741 0.1956445099050831 0  0.4728151975296263 0.1956402468909894 0  0.3663301776527538 0.20436745486386 0  0.4651631000724991 0.1956402468909893 0  0.4009372308499527 0.2043554900949198 0  0.4431091716023345 0.1956325451361429 0  0.4157593408842466 0.2043565497109067 0  0.5865057328865416 0.1956918868509067 0  0.5541600609760193 0.2044335994013721 0  0.3244925681577497 0.1955664005986376 0  0.272008018888917 0.2049327968152409 0  0.2633407725863902 0.2042483236346266 0  0.4567948413982566 0.2046536472831198 0  0.4167680012832803 0.1955060004091903 0  0.4716262585151221 0.2046536472831242 0  0.5161054367030595 0.2045563706470633 0  0.4864426024693469 0.2045563706470604 0  0.5012740195862044 0.2045563706470634 0  0.4022810343427545 0.1961423961483001 0  0.4420739040821668 0.2044853411424516 0  0.3673807293464664 0.1955677741328205 0  0.3925253672243162 0.195346352716901 0  0.5405091246712254 0.2046536472831267 0  0.357918727284983 0.1953463527168901 0  0.5307534575528717 0.2038576038516682 0  0.3079697655029555 0.1955637092892754 0  0.2985930588175599 0.1953463527168728 0  0.579671714346879 0.1955441268455555 0  0.5705023726275059 0.1953463527168462 0  0.5112451461103119 0.2035640580783926 0  0.4964137289934448 0.2035640580783915 0  0.4665727251511405 0.2038238154617746 0  0.5259274680675793 0.2038006696000127 0  0.4815823118765752 0.2035640580783898 0  0.4517504165552094 0.2039070625502732 0  0.4071070238280551 0.1961993303999926 0  0.3234846806957546 0.2047001437739977 0  0.5551679484379799 0.1952998562260008 0  0.5457754356464107 0.1954447171286166 0  0.3329307555206357 0.2046017509710421 0  0.4541577316841968 0.1960357661898101 0  0.3358300776141575 0.1950765652117375 0  0.2539718587514912 0.200011552766824 0  0.5826472073721517 0.2039971170156656 0  0.2761021761080182 0.1946948236183283 0  0.3898581462796225 0.2041572776584344 0  0.3552515063402743 0.2041572776584256 0  0.2965028074750666 0.2046578268138723 0  0.4299158836614793 0.1951782397873778 0  0.379426563923736 0.2049969334481307 0  0.2860882692072842 0.2042624797643994 0  0.3449948044168807 0.2051793676155613 0  0.2603922435707652 0.1950997711614917 0  0.5949856943860
[...]
<PointData  Vectors="f_18-1"> 
<DataArray  type="Float64"  Name="f_18-1"  NumberOfComponents="3" format="ascii">1.3225904960125344e-04 -4.2346013343364924e-05 0.0000000000000000e+00  -1.8770098764137272e-04 -4.4955691092363680e-05 0.0000000000000000e+00  0.0000000000000000e+00 0.0000000000000000e+00 0.0000000000000000e+00  0.0000000000000000e+00 0.0000000000000000e+00 0.0000000000000000e+00  -2.7735846917712909e-05 -4.3671223685407168e-05 0.0000000000000000e+00  0.0000000000000000e+00 0.0000000000000000e+00 0.0000000000000000e+00  0.0000000000000000e+00 0.0000000000000000e+00 0.0000000000000000e+00  0.0000000000000000e+00 0.0000000000000000e+00 0.0000000000000000e+00  0.0000000000000000e+00 0.0000000000000000e+00 0.0000000000000000e+00  1.5782232972485751e-05 -1.4719975308348127e-05 0.0000000000000000e+00  3.1894805593332822e-05 -3.0474402578241051e-05 0.0000000000000000e+00  4.7281533670399271e-05 -5.0075875948885933e-05 0.0000000000000000e+00  6.1092633930383478e-05 -8.0533181464256066e-05 0.0000000000000000e+00  7.3315054340068278e-05 -1.1620536114503041e-04 0.0000000000000000e+00  8.5260932628552694e-05 -1.5941277057414195e-04 0.0000000000000000e+00  9.5336549963571872e-05 -2.0587020042374678e-04 0.0000000000000000e+00  1.0361284116983834e-04 -2.5827927042511870e-04 0.0000000000000000e+00  1.1120132364942430e-04 -3.1483900190939926e-04 0.0000000000000000e+00  1.1749989522813322e-04 -3.7507020477606706e-04 0.0000000000000000e+00  1.2332572944592923e-04 -4.3953594482778454e-04 0.0000000000000000e+00  1.2846320200656709e-04 -5.0445126132012976e-04 0.0000000000000000e+00  1.3168336008140922e-04 -5.7330524600700294e-04 0.0000000000000000e+00  1.3478399399231679e-04 -6.4351234981753947e-04 0.0000000000000000e+00  1.3628119330551749e-04 -7.1489475491541001e-04 0.0000000000000000e+00  1.3699384689166747e-04 -7.8709611804062365e-04 0.0000000000000000e+00  1.3676500182005204e-04 -8.5961699888888535e-04 0.0000000000000000e+00  1.3565552176488706e-04 -9.3219249666829718e-04 0.0000000000000000e+00  1.3391483213421221e-04 -1.0041668720159730e-03 0.0000000000000000e+00  1.3132689210170007e-04 -1.0753050510042077e-03 0.0000000000000000e+00  1.2813826907028805e-04 -1.1454778838045070e-03 0.0000000000000000e+00  1.2444835224518271e-04 -1.2140406414095060e-03 0.0000000000000000e+00  1.1946126239706862e-04 -1.2795923844469929e-03 0.0000000000000000e+00  1.1383232843352666e-04 -1.3444001485104276e-03 0.0000000000000000e+00  1.0783615746160552e-04 -1.4056616638324995e-03 0.0000000000000000e+00  1.0169945265809680e-04 -1.4646457519512496e-03 0.0000000000000000e+00  9.4839522232206160e-05 -1.5200201535822810e-03 0.0000000000000000e+00  8.7699362644009591e-05 -1.5723632154327543e-03 0.0000000000000000e+00  8.0552896966680981e-05 -1.6211441799259916e-03 0.0000000000000000e+00  7.1946531342767547e-05 -1.6640203447253258e-03 0.0000000000000000e+00  6.2834884420035893e-05 -1.7061137249790848e-03 0.0000000000000000e+00  5.4546960983384457e-05 -1.7418767034556209e-03 0.0000000000000000e+00  4.5168273943054376e-05 -1.7719519635006355e-03 0.0000000000000000e+00  3.5421849231487031e-05 -1.8005451385942077e-03 0.0000000000000000e+00  2.6459423421707370e-05 -1.8219567140816916e-03 0.0000000000000000e+00  1.5693307225902210e-05 -1.8398145984996120e-03 0.0000000000000000e+00  6.3541945466196169e-06 -1.8522251645735801e-03 0.0000000000000000e+00  -4.9696070786226593e-06 -1.8591305591655278e-03 0.0000000000000000e+00  -1.4727364914144386e-05 -1.8618277231922822e-03 0.0000000000000000e+00  -2.4436210818780057e-05 -1.8584961084756942e-03 0.0000000000000000e+00  -3.4806271573755642e-05 -1.8507203520454715e-03 0.0000000000000000e+00  -4.5525305069659044e-05 -1.8376078232020510e-03 0.0000000000000000e+00  -5.4943310641428493e-05 -1.8191960879452389e-03 0.0000000000000000e+00  -6.4991621207654993e-05 -1.7963548723817523e-03 0.0000000000000000e+00  -7.5082285480019152e-05 -1.7682869341122086e-03 0.0000000000000000e+00  -8.3869042502094610e-05 -1.7353191158811776e-03 0.0000000000000000e+00  -9.2894834221289726e-05 -1.6983483987219150e-03 0.0000000000000000e+00  -1.0186167437094612e-04 -1.6566901933377288e-03 0.0000000000000000e+00  -1.0963094425967968e-04 -1.6110094665108016e-03 0.0000000000000000e+00  -1.1750224076886380e-04 -1.5618666618400921e-03 0.0000000000000000e+00  -1.2523194850296037e-04 -1.5087530941384629e-03 0.0000000000000000e+00  -1.3186435754081259e-04 -1.4522138798416812e-03 0.0000000000000000e+00  -1.3846815791351331e-04 -1.3928313574623008e-03 0.0000000000000000e+00  -1.4480319540152733e-04 -1.3301978944926102e-03 0.0000000000000000e+00  -1.5013648010368791e-04 -1.2648650106925124e-03 0.0000000000000000e+00  -1.5544410652759745e-04 -1.1972990496973155e-03 0.0000000000000000e+00  -1.6035783202153340e-04 -1.1273395681216300e-03 0.0000000000000000e+00  -1.6460422437189387e-04 -1.0554491707422226e-03 0.0000000000000000e+00  -1.6820449155507079e-04 -9.8210350046627911e-04 0.0000000000000000e+00  -1.7124623482462782e-04 -9.0708697259036554e-04 0.0000000000000000e+00  -1.7404102486933697e-04 -8.3076178592457418e-04 0.0000000000000000e+00  -1.7663869785064737e-04 -7.5422312627144983e-04 0.0000000000000000e+00  -1.7867623148041278e-04 -6.7641838189481560e-04 0.0000000000000000e+00  -1.8065606808403506e-04 -5.9819651449300154e-04 0.0000000000000000e+00  -1.8218064099343720e-04 -5.1961572502477933e-04 0.0000000000000000e+00  -1.8344597287750657e-04 -4.4061474426278479e-04 0.0000000000000000e+00  -1.8457233311810334e-04 -3.6160603154820583e-04 0.0000000000000000e+00  -1.8548173306256311e-04 -2.8245623839104464e-04 0.0000000000000000e+00  -1.8629267469575110e-04 -2.0323301324842326e-04 0.0000000000000000e+00  -1.8703547484607536e-04 -1.2410012359099284e-04 0.0000000000000000e+00  1.3289246686592213e-04 -1.2148598316859946e-04 0.0000000000000000e+00  1.3348715902047951e-04 -2.0064427721772581e-04 0.0000000000000000e+00  1.3403520722331231e-04 -2.7985293634382483e-04 0.0000000000000000e+00  1.3445992853927790e-04 -3.5905141492137226e-04 0.0000000000000000e+00  1.3474763025387955e-04 -4.3813517325641017e-04 0.0000000000000000e+00  1.3487093904814761e-04 -5.1716992683849229e-04 0.0000000000000000e+00  1.3470718955479666e-04 -5.9583184076387368e-04 0.0000000000000000e+00  1.3409400134270987e-04 -6.7410993489884160e-04 0.0000000000000000e+00  1.3336534377886161e-04 -7.5199034207270796e-04 0.0000000000000000e+00  1.3210077818702576e-04 -8.2887795441507692e-04 0.0000000000000000e+00  1.3045578774571680e-04 -9.0518956667469831e-04 0.0000000000000000e+00  1.2858591863363139e-04 -9.8004026449295917e-04 0.0000000000000000e+00  1.2593125563154344e-04 -1.0530660490256855e-03 0.0000000000000000e+00  1.2275416762380428e-04 -1.1256816837737660e-03 0.0000000000000000e+00  1.1942042056174556e-04 -1.1956335118685553e-03 0.0000000000000000e+00  1.1505561922042442e-04 -1.2626956766188485e-03 0.0000000000000000e+00  1.1013609211948950e-04 -1.3290514915422652e-03 0.0000000000000000e+00  1.0536707051329812e-04 -1.3915686275424741e-03 0.0000000000000000e+00  9.9419903110958607e-05 -1.4503516492896163e-03 0.0000000000000000e+00  9.2881328696982739e-05 -1.5082046990444983e-03 0.0000000000000000e+00  8.6748456333058014e-05 -1.5611324044490363e-03 0.0000000000000000e+00  7.9324186435240931e-05 -1.6094963854377392e-03 0.0000000000000000e+00  7.1287236629588899e-05 -1.6567330775580232e-03 0.0000000000000000e+00  6.3905424148079159e-05 -1.6980788284478767e-03 0.0000000000000000e+00  5.5111759077162944e-05 -1.7340238033508248e-03 0.0000000000000000e+00  4.5739079430462462e-05 -1.7681116787321054e-03 0.0000000000000000e+00  3.6679283792001467e-05 -1.7963401941765592e-03 0.0000000000000000e+00  2.6516129506766241e-05 -1.8181565035053871e-03 0.0000000000000000e+00  1.6358193672071949e-05 -1.8385526771448294e-03 0.0000000000000000e+00  7.6234212763210876e-06 -1.8516993366361281e-03 0.0000000000000000e+00  -2.9992604162827656e-06 -1.8576937371893669e-03 0.0000000000000000e+00  -1.3924038476652885e-05 -1.8622061455173505e-03 0.0000000000000000e+00  -2.4073476150700578e-05 -1.8590075605058544e-03 0.0000000000000000e+00  -3.3545123290143182e-05 -1.8523822364265564e-03 0.0000000000000000e+00  -4.3036993938272940e-05 -1.8401253024344503e-03 0.0000000000000000e+00  -5.1945765474649831e-05 -1.8217402497270113e-03 0.0000000000000000e+00  -6.1743738924281485e-05 -1.8001129610481497e-03 0.0000000000000000e+00  -7.0727138333516438e-05 -1.7728095174724754e-03 0.0000000000000000e+00  -8.0071573125257999e-05 -1.7413127885534153e-03 0.0000000000000000e+00  -8.9278838878785265e-05 -1.7050105790713550e-03 0.0000000000000000e+00  -9.7674529559934749e-05 -1.6641331552577617e-03 0.0000000000000000e+00  -1.0476955621633387e-04 -1.6197868747060504e-03 0.0000000000000000e+00  -1.1137386354264034e-04 -1.5710379353140310e-03 0.0000000000000000e+00  -1.1902503845740923e-04 -1.5193223649642043e-03 0.0000000000000000e+00  -1.2472605459819895e-04 -1.4637554165896735e-03 0.0000000000000000e+00  -1.3087925094620927e-04 -1.4045355930257194e-03 0.0000000000000000e+00  -1.3553400049629610e-04 -1.3430078299857397e-03 0.0000000000000000e+00  -1.3995565745709556e-04 -1.2785262441279285e-03 0.0000000000000000e+00  -1.4323598220179390e-04 -1.2121689894888364e-03 0.0000000000000000e+00  -1.4582101928596752e-04 -1.1436015000649033e-03 0.0000000000000000e+00  -1.4836529183921864e-04 -1.0736534232631471e-03 0.0000000000000000e+00  -1.4959077837751588e-04 -1.0025547561162984e-03 0.0000000000000000e+00  -1.5022734407563816e-04 -9.3027994565071084e-04 0.0000000000000000e+00  -1.4995840336421280e-04 -8.5777854156631318e-04 0.0000000000000000e+00  -1.4877638031688978e-04 -7.8537432996433887e-04 0.0000000000000000e+00  -1.4696905895673359e-04 -7.1317454756429156e-04 0.0000000000000000e+00  -1.4425465045910831e-04 -6.4179492175936307e-04 0.0000000000000000e+00  -1.3999223857325517e-04 -5.7166346133281584e-04 0.0000000000000000e+00  -1.3558448934054045e-04 -5.0313089726375317e-04 0.0000000000000000e+00  -1.2989277728946990e-04 -4.3755731404063463e-04 0.0000000000000000e+00  -1.2354902024599675e-04 -3.7390482258906006e-04 0.0000000000000000e+00  -1.1631213957597173e-04 -3.1405821618279175e-04 0.0000000000000000e+00  -1.0688026233289627e-04 -2.5703998943735082e-04 0.0000000000000000e+00  -9.8038219412830351e-05 -2.0493004801649251e-04 0.0000000000000000e+00  -8.6263214536322854e-05 -1.5722812437660402e-04 0.0000000000000000e+00  -7.4905590788340126e-05 -1.1642431491382982e-04 0.0000000000000000e+00  -6.0565747283274581e-05 -8.1284130421813177e-05 0.0000000000000000e+00  -4.6727991856013380e-05 -5.1039576671553239e-05 0.0000000000000000e+00  -3.2140191516409503e-05 -2.8820726897155910e-05 0.0000000000000000e+00  -1.6425877206888263e-05 -1.5813656790912366e-05 0.0000000000000000e+00  5.2233126478258184e-05 -4.3003213381832441e-05 0.0000000000000000e+00  -1.0769262279822420e-04 -4.4321953240915765e-05 0.0000000000000000e+00  1.7723711103786688e-06 -1.7849307972439835e-05 0.0000000000000000e+00  -1.9869962278742375e-05 -9.4544183234494328e-04 0.0000000000000000e+00  -2.2910167764521221e-05 -5.5235113450579276e-04 0.0000000000000000e+00  5.1229233702861315e-06 -1.3937446631831642e-04 0.0000000000000000e+00  -1.5603483333884461e-05 -1.3603224858989523e-03 0.0000000000000000e+00  -1.6962019590867331e-05 -1.1592899243523973e-03 0.0000000000000000e+00  -1.0083260369428281e-05 -3.2111855727080270e-04 0.0000000000000000e+00  -1.8137862502165249e-05 -3.1955699343526084e-04 0.0000000000000000e+00  -4.0201257426583312e-06 -5.2974638015757902e-04 0.0000000000000000e+00  4.7464772369081364e-06 -9.1744462005929786e-04 0.0000000000000000e+00  -1.4606846182829192e-05 -1.5361276886864770e-03 0.0000000000000000e+00  -9.2720705842028573e-06 -1.1811082840656689e-03 0.0000000000000000e+00  -1.3938548541969342e-05 -1.6803815099759062e-03 0.0000000000000000e+00  -1.0659510175663897e-05 -1.3866488531685539e-03 0.0000000000000000e+00  -1.2506551778175392e-05 -1.6011342063569382e-03 0.0000000000000000e+00  -1.1656760407389653e-05 -1.7895921076455782e-03 0.0000000000000000e+00  -1.4110267553379841e-05 -1.8512844816999205e-03 0.0000000000000000e+00  -1.2407574767943840e-05 -1.7273461962660345e-03 0.0000000000000000e+00  -1.3430985406514880e-05 -1.8185357127607051e-03 0.0000000000000000e+00  -1.3834829076628912e-05 -1.8684677255541903e-03 0.0000000000000000e+00  -4.7628911302723596e-06 -6.7032449819524431e-04 0.0000000000000000e+00  -2.1891430542681948e-05 -7.0862101387730251e-04 0.0000000000000000e+00  -1.4415464177623640e-05 -1.8496109407221506e-03 0.0000000000000000e+00  -6.0786305173029280e-06 -1.0602814780687323e-03 0.0000000000000000e+00  -1.0074031783218288e-05 -1.5121098813654216e-03 0.0000000000000000e+00  -1.4721974332439620e-06 -2.2607574155673036e-04 0.0000000000000000e+00  1.4951697567568740e-06 -1.8562089355248236e-04 0.0000000000000000e+00  8.6392658567121974e-06 -6.6261284655794319e-05 0.0000000000000000e+00  -2.3378530483768650e-05 -1.8256477266004286e-03 0.0000000000000000e+00  -3.6280486181315433e-05 -1.6156662343729503e-03 0.0000000000000000e+00  -4.2052436669730888e-05 -1.4558376238880642e-03 0.0000000000000000e+00  -3.1643379435731080e-05 -1.6697478130786917e-03 0.0000000000000000e+00  -3.0034148526255596e-05 -1.7409535579767663e-03 0.0000000000000000e+00  -4.7152718084960389e-05 -1.2673708317983781e-03 0.0000000000000000e+00  -1.6136276640700317e-05 -1.8651609310104487e-03 0.0000000000000000e+00  -5.1569394669735173e-05 -1.0567972346012249e-03 0.0000000000000000e+00  -2.6306354213743123e-05 -1.7786984845185089e-03 0.0000000000000000e+00  -3.8916629100947495e-05 -1.2819939825068772e-03 0.0000000000000000e+00  -3.0894468901768887e-05 -4.3440600512756962e-04 0.0000000000000000e+00  1.1343324728397715e-05 -4.3948575805249392e-04 0.0000000000000000e+00  2.2870787456850719e-05 -8.3258250424599934e-04 0.0000000000000000e+00  3.4666820373062278e-05 -7.8740181400870036e-04 0.0000000000000000e+00  -7.8912752810562768e-05 -8.6463311651111885e-04 0.0000000000000000e+00  -6.0626166347914358e-05 -8.1697024102605543e-04 0.0000000000000000e+00  3.7112811617875175e-05 -1.0235352048101416e-03 0.0000000000000000e+00  3.3965529878795088e-05 -1.2368479395290359e-03 0.0000000000000000e+00  2.8920789598460354e-05 -1.4290706273865546e-03 0.0000000000000000e+00  -8.6254099157200250e-05 -4.0513933220252238e-04 0.0000000000000000e+00  4.5225006270275147e-05 -4.0642189645243221e-04 0.0000000000000000e+00  1.3211414738442080e-05 -1.7243418356536460e-03 0.0000000000000000e+00  2.1978859398518087e-05 -1.5936260862236158e-03 0.0000000000000000e+00  2.0788148970118394e-05 -1.6501826921712947e-03 0.0000000000000000e+00  4.0475728458051206e-05 -1.2529392083653773e-03 0.0000000000000000e+00  6.2272464282715924e-07 -1.8337293040152269e-03 0.0000000000000000e+00  -8.8436665373151113e-06 -1.8619085879826342e-03 0.0000000000000000e+00  1.0116882757847492e-05 -1.7649311959169183e-03 0.0000000000000000e+00  -6.8267291822887616e-06 -8.6549026448918154e-06 0.0000000000000000e+00  5.2357495802105355e-06 -6.8331264903297914e-06 0.0000000000000000e+00  -8.2158388881410731e-06 -1.8631829157648280e-03 0.0000000000000000e+00  -5.4894228741521126e-05 -1.4334177663525270e-03 0.0000000000000000e+00  -6.3324642202660942e-05 -9.7024951089861211e-04 0.0000000000000000e+00  -3.6827040836652607e-05 -1.7679719647190360e-04 0.0000000000000000e+00  -4.3889551560342124e-05 -2.8353325096280098e-04 0.0000000000000000e+00  -5.2720933854902745e-08 -1.8372231382613997e-03 0.0000000000000000e+00  -6.3192178012473523e-05 -1.1084970676814711e-03 0.0000000000000000e+00  -5.2993031736442270e-05 -1.5483321950977888e-03 0.0000000000000000e+00  -5.7090801398933804e-05 -6.1807947981474089e-04 0.0000000000000000e+00  -8.1778381947733995e-05 -6.4953497090049596e-04 0.0000000000000000e+00  3.8943029354300887e-05 -6.4409384922427065e-04 0.0000000000000000e+00  4.8434497812805495e-05 -6.1305392974500647e-04 0.0000000000000000e+00  -2.8238269955754500e-05 -8.9807969519922179e-05 0.0000000000000000e+00  -1.0146096568183606e-04 -2.4766787366741735e-04 0.0000000000000000e+00  -2.0060162898639711e-05 -1.8623674014052532e-03 0.0000000000000000e+00  -2.7967863533646108e-05 -1.8367640782624860e-03 0.0000000000000000e+00  6.0415057019780340e-05 -9.6555104501297396e-04 0.0000000000000000e+00  4.1373685529460406e-05 -1.7347323868122552e-04 0.0000000000000000e+00  5.0340591686010858e-05 -2.8624040384334781e-04 0.0000000000000000e+00  4.1335586323907113e-05 -1.4351938321797832e-03 0.0000000000000000e+00  6.2771678305753280e-05 -1.1053902255539305e-03 0.0000000000000000e+00  4.1510968729658733e-05 -1.5450639449077464e-03 0.0000000000000000e+00  -1.8493955949260035e-05 -4.9458018627624257e-05 0.0000000000000000e+00  -9.1609318627038352e-05 -1.3506509505655754e-04 0.0000000000000000e+00  4.3239530968236810e-05 -1.1090296406774738e-03 0.0000000000000000e+00  3.8875695177244372e-05 -1.3147685027758323e-03 0.0000000000000000e+00  5.2736864709043557e-05 -4.8384676995638398e-04 0.0000000000000000e+00  3.2339956228068376e-05 -1.4968273275447867e-03 0.0000000000000000e+00  -9.2676380484636953e-05 -4.9812608022392851e-04 0.0000000000000000e+00  2.3731593694166623e-05 -1.6487597783714852e-03 0.0000000000000000e+00  1.3107811832046561e-05 -1.7643855573593879e-03 0.0000000000000000e+00  4.4449373036961070e-05 -1.3297790766963274e-03 0.0000000000000000e+00  6.4015153716790032e-06 -1.8082726631866700e-03 0.0000000000000000e+00  2.1312541774593116e-05 -1.6995691877288088e-03 0.0000000000000000e+00  -1.2064211722730427e-05 -1.8669517070113496e-03 0.0000000000000000e+00  8.7752609637985035e-06 -1.7981644093945741e-03 0.0000000000000000e+00  4.2873351067197287e-05 -2.5925713952526215e-04 0.0000000000000000e+00  -8.9688587168363328e-05 -7.7552822630147305e-04 0.0000000000000000e+00  -6.7861650771322050e-05 -7.3241417438435876e-04 0.0000000000000000e+00  3.3023111086024052e-05 -9.6114039251642350e-05 0.0000000000000000e+00  1.7937046982739752e-05 -3.9889515413941321e-05 0.0000000000000000e+00  -2.8405754089807067e-05 -1.8425131163014371e-03 0.0000000000000000e+00  -3.5698508963965513e-05 -1.8032696803268510e-03 0.0000000000000000e+00  -4.2373593529112017e-05 -1.7721875965908249e-03 0.0000000000000000e+00  -7.4961651328376395e-05 -1.3307408075694811e-03 0.0000000000000000e+00  -5.4274490753196357e-05 -1.6595968192025655e-03 0.0000000000000000e+00  -6.5397251258451014e-05 -1.5104749679327961e-03 0.0000000000000000e+00  -4.1978538187842853e-05 -1.7104854768485182e-03 0.0000000000000000e+00  -1.4335189960086593e-05 -1.8671402024795689e-03 0.0000000000000000e+00  -6.5622190166942960e-05 -1.3428153039270580e-03 0.0000000000000000e+00  -5.5490381970961004e-05 -1.6254144727517101e-03 0.0000000000000000e+00  -8.8272172531089294e-05 -9.8541391099090671e-04 0.0000000000000000e+00  -7.1463732614189884e-05 -1.2166907196597364e-03 0.0000000000000000e+00  -7.2845594227444118e-05 -1.1295138563758660e-03 0.0000000000000000e+00  -6.1317653410060510e-05 -4.9669360771694402e-04 0.0000000000000000e+00  -5.8146992683398883e-05 -3.7277197599230161e-04 0.0000000000000000e+00  4.6012970661159061e-05 -3.6879795078301230e-04 0.0000000000000000e+00  4.9903599172400056e-05 -5.1553216693488732e-04 0.0000000000000000e+00  -6.0089373414309104e-05 -1.3930200887042128e-03 0.0000000000000000e+00  -5.1977944841782735e-05 -1.5635225435224409e-03 0.0000000000000000e+00  -3.4000699459645050e-05 -1.8016744001122182e-03 0.0000000000000000e+00  -7.0087623863136886e-05 -1.1981580651053668e-03 0.0000000000000000e+00  -4.2778738345574164e-05 -1.7014529126665812e-03 0.0000000000000000e+00  -2.2635708390103005e-05 -1.8564475638514493e-03 0.0000000000000000e+00  -3.8672991722141316e-05 -1.7462183626383895e-03 0.0000000000000000e+00  6.0706603731115615e-05 -7.1835500803323874e-04 0.0000000000000000e+00  5.0997048401994950e-05 -7.5870094937394552e-04 0.0000000000000000e+00  4.8249989153230317e-05 -9.0446713547464230e-04 0.0000000000000000e+00  5.8935490349412317e-05 -8.5760933542858113e-04 0.0000000000000000e+00 