<?xml version="1.0"?>
<VTKFile type="UnstructuredGrid"  version="0.1"  >
<UnstructuredGrid>
<Piece  NumberOfPoints="439" NumberOfCells="725">
<Points>
<DataArray  type="Float64"  NumberOfComponents="3"  format="ascii">0.6 0.19 0  0.6 0.21 0  0.2489897949 0.21 0  0.2489897949 0.19 0  0.6 0.2 0  0.2496355385699469 0.2060260530378829 0  0.249959460510575 0.2020130349814059 0  0.2499594605105767 0.1979869650186357 0  0.24963553856995 0.1939739469621422 0  0.2539336006056293 0.21 0  0.2588774063112542 0.21 0  0.2638212120168921 0.21 0  0.26876501772253 0.21 0  0.2737088234281569 0.21 0  0.2786526291337753 0.21 0  0.2835964348393937 0.21 0  0.2885402405450166 0.21 0  0.2934840462506522 0.21 0  0.2984278519562708 0.21 0  0.3033716576618997 0.21 0  0.3083154633675181 0.21 0  0.3132592690731365 0.21 0  0.3182030747787549 0.21 0  0.3231468804843732 0.21 0  0.3280906861899917 0.21 0  0.3330344918956208 0.21 0  0.3379782976012284 0.21 0  0.3429221033068576 0.21 0  0.347865909012476 0.21 0  0.3528097147180944 0.21 0  0.3577535204237128 0.21 0  0.3626973261293311 0.21 0  0.3676411318349495 0.21 0  0.3725849375405788 0.21 0  0.3775287432461877 0.21 0  0.382472548951812 0.21 0  0.3874163546574338 0.21 0  0.3923601603630631 0.21 0  0.3973039660686706 0.21 0  0.4022477717742986 0.21 0  0.4071915774799107 0.21 0  0.4121353831855311 0.21 0  0.4170791888911518 0.21 0  0.4220229945967636 0.21 0  0.4269668003023918 0.21 0  0.4319106060080253 0.21 0  0.4368544117136773 0.21 0  0.4417982174193329 0.21 0  0.4467420231249967 0.21 0  0.4516858288306445 0.21 0  0.4566296345362864 0.21 0  0.461573440241916 0.21 0  0.4665172459475665 0.21 0  0.4714610516531998 0.21 0  0.4764048573588668 0.21 0  0.4813486630645134 0.21 0  0.486292468770176 0.21 0  0.4912362744758066 0.21 0  0.4961800801814611 0.21 0  0.5011238858870897 0.21 0  0.5060676915927493 0.21 0  0.5110114972983872 0.21 0  0.5159553030040036 0.21 0  0.5208991087096415 0.21 0  0.5258429144153002 0.21 0  0.5307867201209391 0.21 0  0.5357305258265987 0.21 0  0.5406743315322367 0.21 0  0.5456181372378529 0.21 0  0.5505619429434908 0.21 0  0.5555057486491456 0.21 0  0.5604495543547885 0.21 0  0.565393360060448 0.21 0  0.5703371657661116 0.21 0  0.5752809714717458 0.21 0  0.5802247771773834 0.21 0  0.5851685828830341 0.21 0  0.5901123885886809 0.21 0  0.5950561942943404 0.21 0  0.5950561942943833 0.19 0  0.590112388588758 0.19 0  0.5851685828831193 0.19 0  0.5802247771774727 0.19 0  0.5752809714718514 0.19 0  0.5703371657662308 0.19 0  0.565393360060618 0.19 0  0.5604495543549889 0.19 0  0.5555057486493581 0.19 0  0.5505619429437035 0.19 0  0.5456181372381043 0.19 0  0.540674331532505 0.19 0  0.5357305258268962 0.19 0  0.530786720121263 0.19 0  0.5258429144156628 0.19 0  0.5208991087100244 0.19 0  0.5159553030044218 0.19 0  0.5110114972988226 0.19 0  0.5060676915932177 0.19 0  0.5011238858875806 0.19 0  0.496180080181972 0.19 0  0.4912362744763531 0.19 0  0.4862924687707343 0.19 0  0.4813486630651046 0.19 0  0.4764048573594966 0.19 0  0.4714610516538683 0.19 0  0.4665172459482555 0.19 0  0.4615734402426349 0.19 0  0.4566296345370104 0.19 0  0.4516858288313808 0.19 0  0.4467420231257716 0.19 0  0.4417982174201465 0.19 0  0.4368544117145297 0.19 0  0.4319106060089131 0.19 0  0.4269668003032866 0.19 0  0.4220229945976482 0.19 0  0.4170791888920056 0.19 0  0.4121353831863594 0.19 0  0.4071915774806995 0.19 0  0.4022477717750478 0.19 0  0.3973039660693901 0.19 0  0.3923601603637548 0.19 0  0.3874163546581082 0.19 0  0.3824725489524824 0.19 0  0.3775287432468258 0.19 0  0.3725849375411773 0.19 0  0.3676411318355085 0.19 0  0.3626973261298614 0.19 0  0.3577535204242108 0.19 0  0.352809714718589 0.19 0  0.347865909012931 0.19 0  0.342922103307292 0.19 0  0.3379782976016536 0.19 0  0.3330344918960152 0.19 0  0.3280906861903751 0.19 0  0.3231468804847171 0.19 0  0.3182030747790592 0.19 0  0.3132592690734012 0.19 0  0.3083154633677581 0.19 0  0.3033716576621197 0.19 0  0.2984278519564813 0.19 0  0.2934840462508429 0.19 0  0.2885402405451874 0.19 0  0.2835964348395295 0.19 0  0.2786526291338716 0.19 0  0.2737088234282243 0.19 0  0.268765017722586 0.19 0  0.2638212120169476 0.19 0  0.2588774063113093 0.19 0  0.2539336006056579 0.19 0  0.6 0.1949999999999783 0  0.6 0.2049999999999729 0  0.2589734265316493 0.2005523893428403 0  0.5431462343853077 0.199999999999969 0  0.5682397894768162 0.1999704585808987 0  0.2774513927118024 0.2007941919421926 0  0.513849583376897 0.1999023426490919 0  0.5286810004937381 0.1999023426490969 0  0.2945108952057646 0.1992911908405386 0  0.5827780831384927 0.1995429801003349 0  0.3104128396569256 0.1999704585808978 0  0.3370001755418551 0.2008294612433967 0  0.4990181662600459 0.1999023426490902 0  0.3552816175709044 0.2000000000000608 0  0.4841867491431925 0.1999023426490849 0  0.3707373713905551 0.2000142376953689 0  0.3898882575102495 0.2000000000000828 0  0.4689857550492734 0.1995416724256694 0  0.4541577316841967 0.1999999999999098 0  0.4043534914018331 0.2000976573509244 0  0.4195510917439569 0.2000000000001057 0  0.4387019778644512 0.1999857623046772 0  0.3202472750256703 0.2000088842146399 0  0.5584053541080851 0.1999911157853577 0  0.4280667146887134 0.1998489048208241 0  0.3467659946265474 0.2001510951794375 0  0.3813726345658908 0.200151095179452 0  0.2860683376922098 0.2000415445706182 0  0.5911223811781194 0.1982449159348744 0  0.2679893161458627 0.201675125646729 0  0.4615734402426278 0.2022503633288003 0  0.4912362744763454 0.2022503633288091 0  0.5060676915931983 0.2022503633288118 0  0.3973039660686774 0.1977496366711965 0  0.4764048573594896 0.2022503633288051 0  0.5208991087100455 0.2022503633288184 0  0.4467420231257656 0.2022503633288 0  0.5357305258268849 0.2022503633288198 0  0.4121353831855317 0.1977496366711976 0  0.3626973261293352 0.1977496366711919 0  0.3033716576618961 0.1977496366711869 0  0.5752809714718229 0.1977496366711503 0  0.550459855919056 0.1971284784737667 0  0.3281927732146841 0.2028715215262406 0  0.5484179020497461 0.2038403215694763 0  0.3302347270839988 0.1961596784305491 0  0.5379210852238114 0.196125181664411 0  0.5230896681069652 0.1961251816644058 0  0.5082582509901222 0.1961251816644098 0  0.5774715308687094 0.2038748183355887 0  0.3011810982649548 0.2038748183355937 0  0.4785954167564111 0.196125181664404 0  0.4934268338732671 0.1961251816644063 0  0.395113406671763 0.2038748183355966 0  0.3605067667324117 0.2038748183355951 0  0.4593828808457146 0.1961251816643993 0  0.4489325825226805 0.1961251816644007 0  0.4099448237886219 0.2038748183355991 0  0.2557862999801971 0.1960858370257295 0  0.2550147360309399 0.2034426429991114 0  0.4348031476464689 0.2037737577641554 0  0.37463620160841 0.1962262422358553 0  0.3406258365864304 0.196046792193989 0  0.2813001681189834 0.1960467921940502 0  0.2912686387439893 0.1960816328649282 0  0.4246705335819892 0.2039532078059544 0  0.350162175732913 0.1960467921941878 0  0.3847688156722694 0.1960467921942359 0  0.316632368538356 0.19615945856337 0  0.5621550011053409 0.2037816492598991 0  0.5624413877019769 0.1960761923611377 0  0.3162395035833128 0.2038679557424692 0  0.2710887134207622 0.1959696443325838 0  0.5873014376403604 0.2047227881030823 0  0.4346679566442709 0.1954651459552513 0  0.4243296504077986 0.1958756980939062 0  0.3402559510833523 0.2047940500290923 0  0.2808684926760933 0.2047742417812656 0  0.2914077033138723 0.2047809517070955 0  0.3747713926104932 0.2045348540448554 0  0.3499216488898867 0.2051753413186305 0  0.3845282888292298 0.205175341318636 0  0.2648144865455052 0.1962089742986374 0  0.5943247643662894 0.2040415423589182 0  0.5320972610456145 0.1956445099050872 0  0.5172658439287727 0.1956445099050854 0  0.3069923255602658 0.2043468033872551 0  0.5024344268119265 0.1956445099050864 0  0.5716603035734351 0.2043468033872761 0  0.4876030096950741 0.1956445099050831 0  0.4728151975296263 0.1956402468909894 0  0.3663301776527538 0.20436745486386 0  0.4651631000724991 0.1956402468909893 0  0.4009372308499527 0.2043554900949198 0  0.4431091716023345 0.1956325451361429 0  0.4157593408842466 0.2043565497109067 0  0.5865057328865416 0.1956918868509067 0  0.5541600609760193 0.2044335994013721 0  0.3244925681577497 0.1955664005986376 0  0.272008018888917 0.2049327968152409 0  0.2633407725863902 0.2042483236346266 0  0.4567948413982566 0.2046536472831198 0  0.4167680012832803 0.1955060004091903 0  0.4716262585151221 0.2046536472831242 0  0.5161054367030595 0.2045563706470633 0  0.4864426024693469 0.2045563706470604 0  0.5012740195862044 0.2045563706470634 0  0.4022810343427545 0.1961423961483001 0  0.4420739040821668 0.2044853411424516 0  0.3673807293464664 0.1955677741328205 0  0.3925253672243162 0.195346352716901 0  0.5405091246712254 0.2046536472831267 0  0.357918727284983 0.1953463527168901 0  0.5307534575528717 0.2038576038516682 0  0.3079697655029555 0.1955637092892754 0  0.2985930588175599 0.1953463527168728 0  0.579671714346879 0.1955441268455555 0  0.5705023726275059 0.1953463527168462 0  0.5112451461103119 0.2035640580783926 0  0.4964137289934448 0.2035640580783915 0  0.4665727251511405 0.2038238154617746 0  0.5259274680675793 0.2038006696000127 0  0.4815823118765752 0.2035640580783898 0  0.4517504165552094 0.2039070625502732 0  0.4071070238280551 0.1961993303999926 0  0.3234846806957546 0.2047001437739977 0  0.5551679484379799 0.1952998562260008 0  0.5457754356464107 0.1954447171286166 0  0.3329307555206357 0.2046017509710421 0  0.4541577316841968 0.1960357661898101 0  0.3358300776141575 0.1950765652117375 0  0.2539718587514912 0.200011552766824 0  0.5826472073721517 0.2039971170156656 0  0.2761021761080182 0.1946948236183283 0  0.3898581462796225 0.2041572776584344 0  0.3552515063402743 0.2041572776584256 0  0.2965028074750666 0.2046578268138723 0  0.4299158836614793 0.1951782397873778 0  0.379426563923736 0.2049969334481307 0  0.2860882692072842 0.2042624797643994 0  0.3449948044168807 0.2051793676155613 0  0.2603922435707652 0.1950997711614917 0  0.5949856943860
[...]
<PointData  Vectors="f_18-1"> 
<DataArray  type="Float64"  Name="f_18-1"  NumberOfComponents="3" format="ascii">-1.9128762436674017e-02 -9.4502011569080099e-02 0.0000000000000000e+00  -1.1681281598086584e-02 -9.5940461229954588e-02 0.0000000000000000e+00  0.0000000000000000e+00 0.0000000000000000e+00 0.0000000000000000e+00  0.0000000000000000e+00 0.0000000000000000e+00 0.0000000000000000e+00  -1.5404961247296949e-02 -9.5221200619630617e-02 0.0000000000000000e+00  0.0000000000000000e+00 0.0000000000000000e+00 0.0000000000000000e+00  0.0000000000000000e+00 0.0000000000000000e+00 0.0000000000000000e+00  0.0000000000000000e+00 0.0000000000000000e+00 0.0000000000000000e+00  0.0000000000000000e+00 0.0000000000000000e+00 0.0000000000000000e+00  1.2110423014839199e-04 -1.0543169139211653e-04 0.0000000000000000e+00  2.5426050260001079e-04 -2.2134233148130548e-04 0.0000000000000000e+00  3.8562562641469324e-04 -3.6962822217070343e-04 0.0000000000000000e+00  5.0778385412818467e-04 -6.1731426954158891e-04 0.0000000000000000e+00  6.2123552367312194e-04 -9.1909088417592422e-04 0.0000000000000000e+00  7.3606656652593268e-04 -1.2973445979835524e-03 0.0000000000000000e+00  8.3560063560904091e-04 -1.7154029517596132e-03 0.0000000000000000e+00  9.1891409998330598e-04 -2.2031393582410330e-03 0.0000000000000000e+00  9.9879928761132959e-04 -2.7460976007590873e-03 0.0000000000000000e+00  1.0660805915665120e-03 -3.3440205826657950e-03 0.0000000000000000e+00  1.1318166686493482e-03 -4.0162645295126155e-03 0.0000000000000000e+00  1.1953064396183662e-03 -4.7006417763660368e-03 0.0000000000000000e+00  1.2323269965091299e-03 -5.4672441953399487e-03 0.0000000000000000e+00  1.2806320648066423e-03 -6.2798084568068020e-03 0.0000000000000000e+00  1.2999963210649594e-03 -7.1318845989101539e-03 0.0000000000000000e+00  1.3144294836717838e-03 -8.0447105193346431e-03 0.0000000000000000e+00  1.3172025774629797e-03 -8.9919712238693064e-03 0.0000000000000000e+00  1.3055475728023735e-03 -9.9979545468609522e-03 0.0000000000000000e+00  1.2804239248539423e-03 -1.1028045355658767e-02 0.0000000000000000e+00  1.2447438845091480e-03 -1.2108791793095630e-02 0.0000000000000000e+00  1.1960311833865307e-03 -1.3224373054496780e-02 0.0000000000000000e+00  1.1333239458433454e-03 -1.4374559242959543e-02 0.0000000000000000e+00  1.0645674570384021e-03 -1.5582801832019436e-02 0.0000000000000000e+00  9.9394257073084718e-04 -1.6799805747050325e-02 0.0000000000000000e+00  9.0249478501503941e-04 -1.8067867439518170e-02 0.0000000000000000e+00  7.9958992941607900e-04 -1.9357391708898986e-02 0.0000000000000000e+00  6.8578046819763819e-04 -2.0686034218371761e-02 0.0000000000000000e+00  5.6047503764359869e-04 -2.2042767881922231e-02 0.0000000000000000e+00  4.2183114920103760e-04 -2.3426233373682208e-02 0.0000000000000000e+00  2.7577218584871280e-04 -2.4854968558688077e-02 0.0000000000000000e+00  1.2811947664221997e-04 -2.6288269856511056e-02 0.0000000000000000e+00  -4.2309810320368881e-05 -2.7759713206672310e-02 0.0000000000000000e+00  -2.1996527063053117e-04 -2.9263162374109329e-02 0.0000000000000000e+00  -4.0047578643928426e-04 -3.0774056900201616e-02 0.0000000000000000e+00  -6.0080499233026909e-04 -3.2319347012879591e-02 0.0000000000000000e+00  -8.0051074666710785e-04 -3.3883306722609641e-02 0.0000000000000000e+00  -1.0172618364076018e-03 -3.5467320781665486e-02 0.0000000000000000e+00  -1.2363492675023697e-03 -3.7076377472989884e-02 0.0000000000000000e+00  -1.4687634611457901e-03 -3.8698480361841994e-02 0.0000000000000000e+00  -1.7106207135112899e-03 -4.0341844431630212e-02 0.0000000000000000e+00  -1.9571159209726199e-03 -4.2000674656596848e-02 0.0000000000000000e+00  -2.2105660963576803e-03 -4.3677109683370935e-02 0.0000000000000000e+00  -2.4751781018441813e-03 -4.5368496129234638e-02 0.0000000000000000e+00  -2.7436827319721750e-03 -4.7073532746163251e-02 0.0000000000000000e+00  -3.0189362104575648e-03 -4.8793964495289069e-02 0.0000000000000000e+00  -3.3038942734199320e-03 -5.0526985839089884e-02 0.0000000000000000e+00  -3.5930806800639468e-03 -5.2271216305370100e-02 0.0000000000000000e+00  -3.8881707087068300e-03 -5.4028213165297337e-02 0.0000000000000000e+00  -4.1911116270951128e-03 -5.5794677661292758e-02 0.0000000000000000e+00  -4.4977778381969135e-03 -5.7570117680785529e-02 0.0000000000000000e+00  -4.8093785208396913e-03 -5.9355570916954183e-02 0.0000000000000000e+00  -5.1274361578991746e-03 -6.1148438114573461e-02 0.0000000000000000e+00  -5.4486158849801659e-03 -6.2948128937919859e-02 0.0000000000000000e+00  -5.7739169654941955e-03 -6.4755426575067457e-02 0.0000000000000000e+00  -6.1043459679232092e-03 -6.6568116177674400e-02 0.0000000000000000e+00  -6.4370810161006823e-03 -6.8386009515062421e-02 0.0000000000000000e+00  -6.7731497157159813e-03 -7.0209163882758482e-02 0.0000000000000000e+00  -7.1127046193905060e-03 -7.2036204722064706e-02 0.0000000000000000e+00  -7.4552178134521937e-03 -7.3866045041138181e-02 0.0000000000000000e+00  -7.8007304710475713e-03 -7.5699327942870612e-02 0.0000000000000000e+00  -8.1481546398665897e-03 -7.7535576132798184e-02 0.0000000000000000e+00  -8.4962686920723850e-03 -7.9372177700599900e-02 0.0000000000000000e+00  -8.8470505145257037e-03 -8.1211360108311301e-02 0.0000000000000000e+00  -9.1984346966821357e-03 -8.3051586274426797e-02 0.0000000000000000e+00  -9.5513518298945971e-03 -8.4892281161079705e-02 0.0000000000000000e+00  -9.9053634485527040e-03 -8.6733764205235334e-02 0.0000000000000000e+00  -1.0259776000271757e-02 -8.8575170414479321e-02 0.0000000000000000e+00  -1.0614861352295588e-02 -9.0416680585694437e-02 0.0000000000000000e+00  -1.0970257540108670e-02 -9.2258184307575777e-02 0.0000000000000000e+00  -1.1325711818456733e-02 -9.4099359714816283e-02 0.0000000000000000e+00  -1.8773140974537094e-02 -9.2660957674269476e-02 0.0000000000000000e+00  -1.8417357132312687e-02 -9.0819834308375938e-02 0.0000000000000000e+00  -1.8061365634405670e-02 -8.8978574953201911e-02 0.0000000000000000e+00  -1.7705076771543961e-02 -8.7137468659367501e-02 0.0000000000000000e+00  -1.7348558896497730e-02 -8.5296809489157216e-02 0.0000000000000000e+00  -1.6991674485574829e-02 -8.3456451084382752e-02 0.0000000000000000e+00  -1.6634519452836963e-02 -8.1617381442350173e-02 0.0000000000000000e+00  -1.6276691653196899e-02 -7.9779756593208712e-02 0.0000000000000000e+00  -1.5919054303195332e-02 -7.7943266534819824e-02 0.0000000000000000e+00  -1.5561188235857887e-02 -7.6109750879358659e-02 0.0000000000000000e+00  -1.5203044545375974e-02 -7.4278006053705034e-02 0.0000000000000000e+00  -1.4845876433069427e-02 -7.2449976696796120e-02 0.0000000000000000e+00  -1.4488669887559273e-02 -7.0627021845910562e-02 0.0000000000000000e+00  -1.4130627359832329e-02 -6.8805523698455495e-02 0.0000000000000000e+00  -1.3774797959730944e-02 -6.6990447537971620e-02 0.0000000000000000e+00  -1.3419236353638063e-02 -6.5183211194662721e-02 0.0000000000000000e+00  -1.3062939104827927e-02 -6.3378174867070591e-02 0.0000000000000000e+00  -1.2710565431858098e-02 -6.1582177047954510e-02 0.0000000000000000e+00  -1.2358703365115563e-02 -5.9796500032469835e-02 0.0000000000000000e+00  -1.2006061712923144e-02 -5.8013710475712382e-02 0.0000000000000000e+00  -1.1658964273940146e-02 -5.6242873951995870e-02 0.0000000000000000e+00  -1.1312730596120622e-02 -5.4485277035292504e-02 0.0000000000000000e+00  -1.0965687206524898e-02 -5.2731310249953353e-02 0.0000000000000000e+00  -1.0625952582959413e-02 -5.0992441069425888e-02 0.0000000000000000e+00  -1.0287426173392978e-02 -4.9270253534353041e-02 0.0000000000000000e+00  -9.9487989059718809e-03 -4.7554114515090569e-02 0.0000000000000000e+00  -9.6165201784898010e-03 -4.5854184317571295e-02 0.0000000000000000e+00  -9.2870793073182665e-03 -4.4175137363917524e-02 0.0000000000000000e+00  -8.9582532084859952e-03 -4.2500141220793333e-02 0.0000000000000000e+00  -8.6409551120744839e-03 -4.0846477065548129e-02 0.0000000000000000e+00  -8.3239176184909201e-03 -3.9219253383241677e-02 0.0000000000000000e+00  -8.0063332494374109e-03 -3.7598064855849787e-02 0.0000000000000000e+00  -7.6986140553199512e-03 -3.6003383107146708e-02 0.0000000000000000e+00  -7.3962104521143011e-03 -3.4421769584049820e-02 0.0000000000000000e+00  -7.0986058170926687e-03 -3.2862922094388687e-02 0.0000000000000000e+00  -6.8098840131507604e-03 -3.1331410514351093e-02 0.0000000000000000e+00  -6.5186829914476285e-03 -2.9816108903809445e-02 0.0000000000000000e+00  -6.2379737924320496e-03 -2.8328151428093522e-02 0.0000000000000000e+00  -5.9584803025630722e-03 -2.6864303080628118e-02 0.0000000000000000e+00  -5.6832556407417200e-03 -2.5428445969313585e-02 0.0000000000000000e+00  -5.4165472599933071e-03 -2.4021451897929456e-02 0.0000000000000000e+00  -5.1609028401341309e-03 -2.2635383804939280e-02 0.0000000000000000e+00  -4.9133592934913596e-03 -2.1281938257304525e-02 0.0000000000000000e+00  -4.6570000973940404e-03 -1.9954627595079124e-02 0.0000000000000000e+00  -4.4204917359086503e-03 -1.8661654935386407e-02 0.0000000000000000e+00  -4.1787887764029967e-03 -1.7407341853063543e-02 0.0000000000000000e+00  -3.9534202742138478e-03 -1.6177830638682254e-02 0.0000000000000000e+00  -3.7314166373261970e-03 -1.4991633683854290e-02 0.0000000000000000e+00  -3.5209229668680129e-03 -1.3830549651886922e-02 0.0000000000000000e+00  -3.3191798018505172e-03 -1.2711188378659524e-02 0.0000000000000000e+00  -3.1050380787381567e-03 -1.1623303899706698e-02 0.0000000000000000e+00  -2.9136603755985382e-03 -1.0577088875434593e-02 0.0000000000000000e+00  -2.7123659725556463e-03 -9.5796052613065716e-03 0.0000000000000000e+00  -2.5354001813361589e-03 -8.6159971613487315e-03 0.0000000000000000e+00  -2.3601008494052588e-03 -7.7140274448844288e-03 0.0000000000000000e+00  -2.1814204826620213e-03 -6.8259873759424433e-03 0.0000000000000000e+00  -2.0189415481495256e-03 -6.0037611808108132e-03 0.0000000000000000e+00  -1.8390411721008499e-03 -5.2267419404709581e-03 0.0000000000000000e+00  -1.6847701581705423e-03 -4.4929545984184697e-03 0.0000000000000000e+00  -1.5303648462352177e-03 -3.8247076457356114e-03 0.0000000000000000e+00  -1.3847295029450579e-03 -3.1924951217197615e-03 0.0000000000000000e+00  -1.2455028394956183e-03 -2.6233465559899268e-03 0.0000000000000000e+00  -1.0893052424251460e-03 -2.0975628158508143e-03 0.0000000000000000e+00  -9.5939446665060642e-04 -1.6296786010550936e-03 0.0000000000000000e+00  -8.0879460000758837e-04 -1.2202026339880581e-03 0.0000000000000000e+00  -6.7822865197711543e-04 -8.7986186683897604e-04 0.0000000000000000e+00  -5.2987435066872588e-04 -5.9889921537883549e-04 0.0000000000000000e+00  -3.9586003888647146e-04 -3.6227094154540874e-04 0.0000000000000000e+00  -2.6406262567624797e-04 -1.9693287307879037e-04 0.0000000000000000e+00  -1.3112282876918391e-04 -1.1238054506942751e-04 0.0000000000000000e+00  -1.7266801383854922e-02 -9.4861624321802951e-02 0.0000000000000000e+00  -1.3543170470301623e-02 -9.5580807437143395e-02 0.0000000000000000e+00  1.3105543886971865e-05 -1.0788414107369052e-04 0.0000000000000000e+00  -1.1324868481430675e-02 -7.4068718021027838e-02 0.0000000000000000e+00  -1.3131234742553356e-02 -8.3390191604311867e-02 0.0000000000000000e+00  2.0754351273510847e-05 -1.0782454312711122e-03 0.0000000000000000e+00  -9.3060031424981992e-03 -6.3282619227512035e-02 0.0000000000000000e+00  -1.0337721759424955e-02 -6.8718400639214083e-02 0.0000000000000000e+00  -1.9488958815377602e-04 -2.7166753826146466e-03 0.0000000000000000e+00  -1.4336034546294741e-02 -8.8774026352750973e-02 0.0000000000000000e+00  -2.5948464497136021e-04 -4.8395479231179662e-03 0.0000000000000000e+00  -5.1623055612245203e-04 -9.5443095039315657e-03 0.0000000000000000e+00  -8.2978110439048975e-03 -5.7907504788652898e-02 0.0000000000000000e+00  -1.1103463430819915e-03 -1.3484531266875594e-02 0.0000000000000000e+00  -7.3203831233501883e-03 -5.2612290278461163e-02 0.0000000000000000e+00  -1.5652360854990300e-03 -1.7213670531862329e-02 0.0000000000000000e+00  -2.2566919269144366e-03 -2.2307808789994478e-02 0.0000000000000000e+00  -6.4823581737326972e-03 -4.7267640950999772e-02 0.0000000000000000e+00  -5.4337738514277246e-03 -4.2234248739685870e-02 0.0000000000000000e+00  -2.8315635918646272e-03 -2.6442293528948720e-02 0.0000000000000000e+00  -3.5686010797879751e-03 -3.1024315866308716e-02 0.0000000000000000e+00  -4.5646471271025722e-03 -3.7107612170951668e-02 0.0000000000000000e+00  -3.8107185575811939e-04 -6.4117320317750200e-03 0.0000000000000000e+00  -1.2417467758181661e-02 -7.9732147816271096e-02 0.0000000000000000e+00  -4.0429269219032947e-03 -3.3685181747374490e-02 0.0000000000000000e+00  -8.6519127009981065e-04 -1.1575365829795894e-02 0.0000000000000000e+00  -1.8959046240803190e-03 -1.9989087761186998e-02 0.0000000000000000e+00  -6.9612022635135801e-05 -1.8431585570769717e-03 0.0000000000000000e+00  -1.5419841536092112e-02 -9.1788766146839451e-02 0.0000000000000000e+00  6.6858148595437213e-05 -4.7830008871951743e-04 0.0000000000000000e+00  -5.1072397685024166e-03 -4.4884397563939464e-02 0.0000000000000000e+00  -6.9457142189436735e-03 -5.5273066574336262e-02 0.0000000000000000e+00  -7.9256434184634614e-03 -6.0613406116909983e-02 0.0000000000000000e+00  -3.1990032610311487e-03 -2.4305135144689467e-02 0.0000000000000000e+00  -6.0034657454969397e-03 -5.0022289606790546e-02 0.0000000000000000e+00  -8.9359606795865187e-03 -6.6023160385186255e-02 0.0000000000000000e+00  -4.2653774407828918e-03 -3.9881820835612841e-02 0.0000000000000000e+00  -9.9695049194815123e-03 -7.1484303913991146e-02 0.0000000000000000e+00  -3.8914128393336272e-03 -2.8658253665340298e-02 0.0000000000000000e+00  -1.8612890429400078e-03 -1.5169687193252221e-02 0.0000000000000000e+00  -4.8366456448497810e-04 -3.8264020422870164e-03 0.0000000000000000e+00  -1.4463799158841406e-02 -8.5852743142003182e-02 0.0000000000000000e+00  -1.2909932949933792e-02 -7.6576690499553707e-02 0.0000000000000000e+00  1.0706682619561561e-05 -7.8815974107210290e-03 0.0000000000000000e+00  -1.0278230258198490e-02 -7.6297212800835845e-02 0.0000000000000000e+00  -1.2684928984904884e-03 -8.1557576224355176e-03 0.0000000000000000e+00  -1.2383426202910807e-02 -7.1862348783227739e-02 0.0000000000000000e+00  -1.1328908541582611e-02 -6.6402215141195181e-02 0.0000000000000000e+00  -1.0289859961547843e-02 -6.0993649204595858e-02 0.0000000000000000e+00  -1.2342260759089963e-02 -8.7108622525518500e-02 0.0000000000000000e+00  3.3716914806645879e-04 -3.5943133681270536e-03 0.0000000000000000e+00  -8.2828965576026529e-03 -5.0405255806851637e-02 0.0000000000000000e+00  -9.2722595327577942e-03 -5.5654537594505463e-02 0.0000000000000000e+00  -1.3729314453441257e-03 -2.3935779138182886e-02 0.0000000000000000e+00  -3.3760174527259476e-04 -1.4825582944125230e-02 0.0000000000000000e+00  -7.0587679144281171e-03 -4.3775029565211961e-02 0.0000000000000000e+00  -6.4164317272819476e-03 -4.0266105558219266e-02 0.0000000000000000e+00  -1.9552149930847857e-03 -2.8282825324323548e-02 0.0000000000000000e+00  -5.7750391346771450e-05 -4.6091910041277812e-05 0.0000000000000000e+00  4.1797555460018896e-05 -3.5451797523544197e-05 0.0000000000000000e+00  -3.1407825763174928e-03 -3.6049301915868900e-02 0.0000000000000000e+00  -2.6717666579524966e-03 -1.8091470826037542e-02 0.0000000000000000e+00  -1.5704880117566255e-03 -1.0191842356343702e-02 0.0000000000000000e+00  -3.7847550786622284e-04 -1.3906333617596744e-03 0.0000000000000000e+00  -5.0592484040132930e-04 -2.3511326484782075e-03 0.0000000000000000e+00  -2.5914102320736140e-03 -3.2826776299553460e-02 0.0000000000000000e+00  -1.8487320299367344e-03 -1.2227546236141747e-02 0.0000000000000000e+00  -3.1267401474442892e-03 -2.0756632487882006e-02 0.0000000000000000e+00  -9.4966820466771125e-04 -5.7739545447774484e-03 0.0000000000000000e+00  -1.1278240121264832e-02 -8.1398703658753166e-02 0.0000000000000000e+00  -1.4161905748092944e-02 -8.0953434841005756e-02 0.0000000000000000e+00  2.8452304947341816e-04 -5.8099448832793733e-03 0.0000000000000000e+00  -2.6301035638126254e-04 -6.6173596498135870e-04 0.0000000000000000e+00  -1.2733138671663591e-02 -9.0831467120782258e-02 0.0000000000000000e+00  -5.8014433094582905e-03 -3.5568497045476752e-02 0.0000000000000000e+00  -5.0950416119585626e-03 -3.2312240673348480e-02 0.0000000000000000e+00  2.3244752774676810e-04 -1.0308493180906052e-02 0.0000000000000000e+00  3.4506901093826916e-04 -1.3914663480677537e-03 0.0000000000000000e+00  4.1514666969530683e-04 -2.4241667347032416e-03 0.0000000000000000e+00  -5.4028406174683890e-04 -1.8410112769735348e-02 0.0000000000000000e+00  1.6454322165943865e-04 -1.2412576075202372e-02 0.0000000000000000e+00  -6.6075772937248297e-04 -2.1039309610431628e-02 0.0000000000000000e+00  -1.6428415479281057e-04 -3.4522250686750772e-04 0.0000000000000000e+00  -1.3491863762769138e-02 -9.3398361278114544e-02 0.0000000000000000e+00  -1.2145808524873744e-02 -6.9679904198822015e-02 0.0000000000000000e+00  -1.1095662170574507e-02 -6.4238765095542202e-02 0.0000000000000000e+00  3.8807486456423799e-04 -4.4022849192505223e-03 0.0000000000000000e+00  -1.0062575635591139e-02 -5.8856172562965423e-02 0.0000000000000000e+00  -1.1749396514942063e-02 -8.4978194727743844e-02 0.0000000000000000e+00  -9.0529357726113497e-03 -5.3550958055150685e-02 0.0000000000000000e+00  -8.0775467488824939e-03 -4.8359029162438581e-02 0.0000000000000000e+00  -3.6525680801374088e-04 -1.6260245508152599e-02 0.0000000000000000e+00  -7.5844887926558640e-03 -4.5718841322313464e-02 0.0000000000000000e+00  -1.4591142244177637e-03 -2.5634435008493311e-02 0.0000000000000000e+00  -6.2380531117794263e-03 -3.8317110372128968e-02 0.0000000000000000e+00  -2.0627005993688326e-03 -3.0074778449554598e-02 0.0000000000000000e+00  -1.6038138117701384e-02 -8.9885708823373475e-02 0.0000000000000000e+00  -1.0466156086221411e-02 -7.8471952919786425e-02 0.0000000000000000e+00  -1.2346793626875356e-03 -7.0987445287382578e-03 0.0000000000000000e+00  2.7510045690211696e-04 -7.2728783247723999e-04 0.0000000000000000e+00  1.4709484711694491e-04 -2.7676822075982843e-04 0.0000000000000000e+00  -4.0206258024785878e-03 -4.3400704718506128e-02 0.0000000000000000e+00  -4.8068700914178997e-03 -2.9962689015564457e-02 0.0000000000000000e+00  -4.8778392250631557e-03 -4.8504663357296272e-02 0.0000000000000000e+00  -7.7666277175597069e-03 -6.4428053049500875e-02 0.0000000000000000e+00  -5.8214077204388577e-03 -5.3716375682301275e-02 0.0000000000000000e+00  -6.7760993262806369e-03 -5.9034880634014054e-02 0.0000000000000000e+00  -3.8920626195592619e-03 -2.5671059920012968e-02 0.0000000000000000e+00  -3.2817226656782820e-03 -3.8465244889772571e-02 0.0000000000000000e+00  -2.5589858380490813e-03 -1.6249863211516915e-02 0.0000000000000000e+00  -3.6613631080353883e-03 -2.2866672014661252e-02 0.0000000000000000e+00  -9.4190726779518185e-03 -7.3422516208221641e-02 0.0000000000000000e+00  -2.2661310677779267e-03 -1.3980057473257562e-02 0.0000000000000000e+00  -9.0295336715761620e-03 -6.9759995971873601e-02 0.0000000000000000e+00  -8.6865462274028366e-04 -4.4533525674228169e-03 0.0000000000000000e+00  -7.1918735835496976e-04 -3.1972528817571051e-03 0.0000000000000000e+00  -1.5601007718294624e-02 -8.7329642212442077e-02 0.0000000000000000e+00  -1.5013810898082947e-02 -8.3901109574992166e-02 0.0000000000000000e+00  -7.7979292085360525e-03 -6.2584964359707687e-02 0.0000000000000000e+00  -6.8130543200417152e-03 -5.7215705129737837e-02 0.0000000000000000e+00  -4.8624014304154842e-03 -4.6699464428137681e-02 0.0000000000000000e+00  -8.7152824596610657e-03 -6.7978197432388934e-02 0.0000000000000000e+00  -5.8651837663034551e-03 -5.1928204602973566e-02 0.0000000000000000e+00  -3.9886629070053064e-03 -4.1652591910188538e-02 0.0000000000000000e+00  -4.1073245813808505e-03 -2.7086687142262530e-02 0.0000000000000000e+00  3.8172840834510379e-04 -7.0627611970517324e-03 0.0000000000000000e+00  -1.3926430116902859e-02 -7.8194666892269130e-02 0.0000000000000000e+00  -1.3197761702382550e-02 -7.4720496179001269e-02 0.0000000000000000e+00  2.