<?xml version="1.0"?>
<VTKFile type="UnstructuredGrid"  version="0.1"  >
<UnstructuredGrid>
<Piece  NumberOfPoints="439" NumberOfCells="725">
<Points>
<DataArray  type="Float64"  NumberOfComponents="3"  format="ascii">0.6 0.19 0  0.6 0.21 0  0.2489897949 0.21 0  0.2489897949 0.19 0  0.6 0.2 0  0.2496355385699469 0.2060260530378829 0  0.249959460510575 0.2020130349814059 0  0.2499594605105767 0.1979869650186357 0  0.24963553856995 0.1939739469621422 0  0.2539336006056293 0.21 0  0.2588774063112542 0.21 0  0.2638212120168921 0.21 0  0.26876501772253 0.21 0  0.2737088234281569 0.21 0  0.2786526291337753 0.21 0  0.2835964348393937 0.21 0  0.2885402405450166 0.21 0  0.2934840462506522 0.21 0  0.2984278519562708 0.21 0  0.3033716576618997 0.21 0  0.3083154633675181 0.21 0  0.3132592690731365 0.21 0  0.3182030747787549 0.21 0  0.3231468804843732 0.21 0  0.3280906861899917 0.21 0  0.3330344918956208 0.21 0  0.3379782976012284 0.21 0  0.3429221033068576 0.21 0  0.347865909012476 0.21 0  0.3528097147180944 0.21 0  0.3577535204237128 0.21 0  0.3626973261293311 0.21 0  0.3676411318349495 0.21 0  0.3725849375405788 0.21 0  0.3775287432461877 0.21 0  0.382472548951812 0.21 0  0.3874163546574338 0.21 0  0.3923601603630631 0.21 0  0.3973039660686706 0.21 0  0.4022477717742986 0.21 0  0.4071915774799107 0.21 0  0.4121353831855311 0.21 0  0.4170791888911518 0.21 0  0.4220229945967636 0.21 0  0.4269668003023918 0.21 0  0.4319106060080253 0.21 0  0.4368544117136773 0.21 0  0.4417982174193329 0.21 0  0.4467420231249967 0.21 0  0.4516858288306445 0.21 0  0.4566296345362864 0.21 0  0.461573440241916 0.21 0  0.4665172459475665 0.21 0  0.4714610516531998 0.21 0  0.4764048573588668 0.21 0  0.4813486630645134 0.21 0  0.486292468770176 0.21 0  0.4912362744758066 0.21 0  0.4961800801814611 0.21 0  0.5011238858870897 0.21 0  0.5060676915927493 0.21 0  0.5110114972983872 0.21 0  0.5159553030040036 0.21 0  0.5208991087096415 0.21 0  0.5258429144153002 0.21 0  0.5307867201209391 0.21 0  0.5357305258265987 0.21 0  0.5406743315322367 0.21 0  0.5456181372378529 0.21 0  0.5505619429434908 0.21 0  0.5555057486491456 0.21 0  0.5604495543547885 0.21 0  0.565393360060448 0.21 0  0.5703371657661116 0.21 0  0.5752809714717458 0.21 0  0.5802247771773834 0.21 0  0.5851685828830341 0.21 0  0.5901123885886809 0.21 0  0.5950561942943404 0.21 0  0.5950561942943833 0.19 0  0.590112388588758 0.19 0  0.5851685828831193 0.19 0  0.5802247771774727 0.19 0  0.5752809714718514 0.19 0  0.5703371657662308 0.19 0  0.565393360060618 0.19 0  0.5604495543549889 0.19 0  0.5555057486493581 0.19 0  0.5505619429437035 0.19 0  0.5456181372381043 0.19 0  0.540674331532505 0.19 0  0.5357305258268962 0.19 0  0.530786720121263 0.19 0  0.5258429144156628 0.19 0  0.5208991087100244 0.19 0  0.5159553030044218 0.19 0  0.5110114972988226 0.19 0  0.5060676915932177 0.19 0  0.5011238858875806 0.19 0  0.496180080181972 0.19 0  0.4912362744763531 0.19 0  0.4862924687707343 0.19 0  0.4813486630651046 0.19 0  0.4764048573594966 0.19 0  0.4714610516538683 0.19 0  0.4665172459482555 0.19 0  0.4615734402426349 0.19 0  0.4566296345370104 0.19 0  0.4516858288313808 0.19 0  0.4467420231257716 0.19 0  0.4417982174201465 0.19 0  0.4368544117145297 0.19 0  0.4319106060089131 0.19 0  0.4269668003032866 0.19 0  0.4220229945976482 0.19 0  0.4170791888920056 0.19 0  0.4121353831863594 0.19 0  0.4071915774806995 0.19 0  0.4022477717750478 0.19 0  0.3973039660693901 0.19 0  0.3923601603637548 0.19 0  0.3874163546581082 0.19 0  0.3824725489524824 0.19 0  0.3775287432468258 0.19 0  0.3725849375411773 0.19 0  0.3676411318355085 0.19 0  0.3626973261298614 0.19 0  0.3577535204242108 0.19 0  0.352809714718589 0.19 0  0.347865909012931 0.19 0  0.342922103307292 0.19 0  0.3379782976016536 0.19 0  0.3330344918960152 0.19 0  0.3280906861903751 0.19 0  0.3231468804847171 0.19 0  0.3182030747790592 0.19 0  0.3132592690734012 0.19 0  0.3083154633677581 0.19 0  0.3033716576621197 0.19 0  0.2984278519564813 0.19 0  0.2934840462508429 0.19 0  0.2885402405451874 0.19 0  0.2835964348395295 0.19 0  0.2786526291338716 0.19 0  0.2737088234282243 0.19 0  0.268765017722586 0.19 0  0.2638212120169476 0.19 0  0.2588774063113093 0.19 0  0.2539336006056579 0.19 0  0.6 0.1949999999999783 0  0.6 0.2049999999999729 0  0.2589734265316493 0.2005523893428403 0  0.5431462343853077 0.199999999999969 0  0.5682397894768162 0.1999704585808987 0  0.2774513927118024 0.2007941919421926 0  0.513849583376897 0.1999023426490919 0  0.5286810004937381 0.1999023426490969 0  0.2945108952057646 0.1992911908405386 0  0.5827780831384927 0.1995429801003349 0  0.3104128396569256 0.1999704585808978 0  0.3370001755418551 0.2008294612433967 0  0.4990181662600459 0.1999023426490902 0  0.3552816175709044 0.2000000000000608 0  0.4841867491431925 0.1999023426490849 0  0.3707373713905551 0.2000142376953689 0  0.3898882575102495 0.2000000000000828 0  0.4689857550492734 0.1995416724256694 0  0.4541577316841967 0.1999999999999098 0  0.4043534914018331 0.2000976573509244 0  0.4195510917439569 0.2000000000001057 0  0.4387019778644512 0.1999857623046772 0  0.3202472750256703 0.2000088842146399 0  0.5584053541080851 0.1999911157853577 0  0.4280667146887134 0.1998489048208241 0  0.3467659946265474 0.2001510951794375 0  0.3813726345658908 0.200151095179452 0  0.2860683376922098 0.2000415445706182 0  0.5911223811781194 0.1982449159348744 0  0.2679893161458627 0.201675125646729 0  0.4615734402426278 0.2022503633288003 0  0.4912362744763454 0.2022503633288091 0  0.5060676915931983 0.2022503633288118 0  0.3973039660686774 0.1977496366711965 0  0.4764048573594896 0.2022503633288051 0  0.5208991087100455 0.2022503633288184 0  0.4467420231257656 0.2022503633288 0  0.5357305258268849 0.2022503633288198 0  0.4121353831855317 0.1977496366711976 0  0.3626973261293352 0.1977496366711919 0  0.3033716576618961 0.1977496366711869 0  0.5752809714718229 0.1977496366711503 0  0.550459855919056 0.1971284784737667 0  0.3281927732146841 0.2028715215262406 0  0.5484179020497461 0.2038403215694763 0  0.3302347270839988 0.1961596784305491 0  0.5379210852238114 0.196125181664411 0  0.5230896681069652 0.1961251816644058 0  0.5082582509901222 0.1961251816644098 0  0.5774715308687094 0.2038748183355887 0  0.3011810982649548 0.2038748183355937 0  0.4785954167564111 0.196125181664404 0  0.4934268338732671 0.1961251816644063 0  0.395113406671763 0.2038748183355966 0  0.3605067667324117 0.2038748183355951 0  0.4593828808457146 0.1961251816643993 0  0.4489325825226805 0.1961251816644007 0  0.4099448237886219 0.2038748183355991 0  0.2557862999801971 0.1960858370257295 0  0.2550147360309399 0.2034426429991114 0  0.4348031476464689 0.2037737577641554 0  0.37463620160841 0.1962262422358553 0  0.3406258365864304 0.196046792193989 0  0.2813001681189834 0.1960467921940502 0  0.2912686387439893 0.1960816328649282 0  0.4246705335819892 0.2039532078059544 0  0.350162175732913 0.1960467921941878 0  0.3847688156722694 0.1960467921942359 0  0.316632368538356 0.19615945856337 0  0.5621550011053409 0.2037816492598991 0  0.5624413877019769 0.1960761923611377 0  0.3162395035833128 0.2038679557424692 0  0.2710887134207622 0.1959696443325838 0  0.5873014376403604 0.2047227881030823 0  0.4346679566442709 0.1954651459552513 0  0.4243296504077986 0.1958756980939062 0  0.3402559510833523 0.2047940500290923 0  0.2808684926760933 0.2047742417812656 0  0.2914077033138723 0.2047809517070955 0  0.3747713926104932 0.2045348540448554 0  0.3499216488898867 0.2051753413186305 0  0.3845282888292298 0.205175341318636 0  0.2648144865455052 0.1962089742986374 0  0.5943247643662894 0.2040415423589182 0  0.5320972610456145 0.1956445099050872 0  0.5172658439287727 0.1956445099050854 0  0.3069923255602658 0.2043468033872551 0  0.5024344268119265 0.1956445099050864 0  0.5716603035734351 0.2043468033872761 0  0.4876030096950741 0.1956445099050831 0  0.4728151975296263 0.1956402468909894 0  0.3663301776527538 0.20436745486386 0  0.4651631000724991 0.1956402468909893 0  0.4009372308499527 0.2043554900949198 0  0.4431091716023345 0.1956325451361429 0  0.4157593408842466 0.2043565497109067 0  0.5865057328865416 0.1956918868509067 0  0.5541600609760193 0.2044335994013721 0  0.3244925681577497 0.1955664005986376 0  0.272008018888917 0.2049327968152409 0  0.2633407725863902 0.2042483236346266 0  0.4567948413982566 0.2046536472831198 0  0.4167680012832803 0.1955060004091903 0  0.4716262585151221 0.2046536472831242 0  0.5161054367030595 0.2045563706470633 0  0.4864426024693469 0.2045563706470604 0  0.5012740195862044 0.2045563706470634 0  0.4022810343427545 0.1961423961483001 0  0.4420739040821668 0.2044853411424516 0  0.3673807293464664 0.1955677741328205 0  0.3925253672243162 0.195346352716901 0  0.5405091246712254 0.2046536472831267 0  0.357918727284983 0.1953463527168901 0  0.5307534575528717 0.2038576038516682 0  0.3079697655029555 0.1955637092892754 0  0.2985930588175599 0.1953463527168728 0  0.579671714346879 0.1955441268455555 0  0.5705023726275059 0.1953463527168462 0  0.5112451461103119 0.2035640580783926 0  0.4964137289934448 0.2035640580783915 0  0.4665727251511405 0.2038238154617746 0  0.5259274680675793 0.2038006696000127 0  0.4815823118765752 0.2035640580783898 0  0.4517504165552094 0.2039070625502732 0  0.4071070238280551 0.1961993303999926 0  0.3234846806957546 0.2047001437739977 0  0.5551679484379799 0.1952998562260008 0  0.5457754356464107 0.1954447171286166 0  0.3329307555206357 0.2046017509710421 0  0.4541577316841968 0.1960357661898101 0  0.3358300776141575 0.1950765652117375 0  0.2539718587514912 0.200011552766824 0  0.5826472073721517 0.2039971170156656 0  0.2761021761080182 0.1946948236183283 0  0.3898581462796225 0.2041572776584344 0  0.3552515063402743 0.2041572776584256 0  0.2965028074750666 0.2046578268138723 0  0.4299158836614793 0.1951782397873778 0  0.379426563923736 0.2049969334481307 0  0.2860882692072842 0.2042624797643994 0  0.3449948044168807 0.2051793676155613 0  0.2603922435707652 0.1950997711614917 0  0.5949856943860
[...]
<PointData  Vectors="f_18-1"> 
<DataArray  type="Float64"  Name="f_18-1"  NumberOfComponents="3" format="ascii">-2.4133966757426545e-03 -2.8993432055777774e-02 0.0000000000000000e+00  -2.7381241151176576e-04 -2.9108309161430746e-02 0.0000000000000000e+00  0.0000000000000000e+00 0.0000000000000000e+00 0.0000000000000000e+00  0.0000000000000000e+00 0.0000000000000000e+00 0.0000000000000000e+00  -1.3435792932062415e-03 -2.9050841144069809e-02 0.0000000000000000e+00  0.0000000000000000e+00 0.0000000000000000e+00 0.0000000000000000e+00  0.0000000000000000e+00 0.0000000000000000e+00 0.0000000000000000e+00  0.0000000000000000e+00 0.0000000000000000e+00 0.0000000000000000e+00  0.0000000000000000e+00 0.0000000000000000e+00 0.0000000000000000e+00  4.7656801116022748e-05 -4.1948469040259810e-05 0.0000000000000000e+00  9.9057485372808118e-05 -8.7245261689150312e-05 0.0000000000000000e+00  1.4948051376056817e-04 -1.4465109200055443e-04 0.0000000000000000e+00  1.9649678632149676e-04 -2.3885220613727628e-04 0.0000000000000000e+00  2.4015570451723907e-04 -3.5227777204750195e-04 0.0000000000000000e+00  2.8472326132993519e-04 -4.9315385750852531e-04 0.0000000000000000e+00  3.2389607515831881e-04 -6.4764165833335258e-04 0.0000000000000000e+00  3.5797276841518003e-04 -8.2652004997651768e-04 0.0000000000000000e+00  3.9147472455914283e-04 -1.0239906569223095e-03 0.0000000000000000e+00  4.2142871156791267e-04 -1.2398253869204054e-03 0.0000000000000000e+00  4.5222190306004698e-04 -1.4797281231804867e-03 0.0000000000000000e+00  4.8214318235769696e-04 -1.7231947167272489e-03 0.0000000000000000e+00  5.0517870918031496e-04 -1.9933641875883343e-03 0.0000000000000000e+00  5.3274382483992923e-04 -2.2770655832162617e-03 0.0000000000000000e+00  5.5200723380004527e-04 -2.5734914238146958e-03 0.0000000000000000e+00  5.7131890221484658e-04 -2.8878142793088402e-03 0.0000000000000000e+00  5.8778613440163031e-04 -3.2123620023298961e-03 0.0000000000000000e+00  6.0161990143458785e-04 -3.5540145207263825e-03 0.0000000000000000e+00  6.1208390456224827e-04 -3.9022932873403831e-03 0.0000000000000000e+00  6.2099207317045863e-04 -4.2645680895986833e-03 0.0000000000000000e+00  6.2727081538581581e-04 -4.6362738872844575e-03 0.0000000000000000e+00  6.3086659794126757e-04 -5.0170093557152960e-03 0.0000000000000000e+00  6.3474398790798621e-04 -5.4120916266766671e-03 0.0000000000000000e+00  6.3817372511730389e-04 -5.8090474202874259e-03 0.0000000000000000e+00  6.3821788148186076e-04 -6.2187828765371241e-03 0.0000000000000000e+00  6.3625064083588998e-04 -6.6334962907501818e-03 0.0000000000000000e+00  6.3308618110429415e-04 -7.0573937569147994e-03 0.0000000000000000e+00  6.2827238974390027e-04 -7.4878026448601982e-03 0.0000000000000000e+00  6.2144341951395835e-04 -7.9243193468026812e-03 0.0000000000000000e+00  6.1463764126444673e-04 -8.3705578681608842e-03 0.0000000000000000e+00  6.0747335031512259e-04 -8.8176473497392476e-03 0.0000000000000000e+00  5.9692946748554881e-04 -9.2733071995901740e-03 0.0000000000000000e+00  5.8603706343100337e-04 -9.7352615670481119e-03 0.0000000000000000e+00  5.7472012441743157e-04 -1.0198620186352304e-02 0.0000000000000000e+00  5.6081454928885114e-04 -1.0669057794041604e-02 0.0000000000000000e+00  5.4761133374316552e-04 -1.1142691474709589e-02 0.0000000000000000e+00  5.3202069303688983e-04 -1.1620344407631652e-02 0.0000000000000000e+00  5.1689068701832894e-04 -1.2102312483790871e-02 0.0000000000000000e+00  4.9994718740228026e-04 -1.2586862719289280e-02 0.0000000000000000e+00  4.8222927292073618e-04 -1.3075216858954439e-02 0.0000000000000000e+00  4.6433909256375167e-04 -1.3566225245417769e-02 0.0000000000000000e+00  4.4600671757516675e-04 -1.4060365410568123e-02 0.0000000000000000e+00  4.2645012168570663e-04 -1.4557379524444428e-02 0.0000000000000000e+00  4.0682177926762176e-04 -1.5056773670099050e-02 0.0000000000000000e+00  3.8670676049377766e-04 -1.5558958196767980e-02 0.0000000000000000e+00  3.6550587478242496e-04 -1.6063597417086312e-02 0.0000000000000000e+00  3.4404735114943954e-04 -1.6570188039045454e-02 0.0000000000000000e+00  3.2212348837639391e-04 -1.7079023639804743e-02 0.0000000000000000e+00  2.9932937994350876e-04 -1.7589595436660548e-02 0.0000000000000000e+00  2.7632619708272939e-04 -1.8101661491036338e-02 0.0000000000000000e+00  2.5301779669382790e-04 -1.8615464744707554e-02 0.0000000000000000e+00  2.2906567593655041e-04 -1.9130649080139932e-02 0.0000000000000000e+00  2.0502497456921005e-04 -1.9647117194632847e-02 0.0000000000000000e+00  1.8081563576717401e-04 -2.0165117414841456e-02 0.0000000000000000e+00  1.5606175162285790e-04 -2.0684402966241459e-02 0.0000000000000000e+00  1.3129612206418822e-04 -2.1204934705838997e-02 0.0000000000000000e+00  1.0632095644589443e-04 -2.1726821350315215e-02 0.0000000000000000e+00  8.0963656080730261e-05 -2.2249884837503300e-02 0.0000000000000000e+00  5.5196624721650860e-05 -2.2773844986383913e-02 0.0000000000000000e+00  2.9007615234787539e-05 -2.3298953680240882e-02 0.0000000000000000e+00  2.6165694109551091e-06 -2.3825067453584810e-02 0.0000000000000000e+00  -2.3880145735545544e-05 -2.4351367528066652e-02 0.0000000000000000e+00  -5.0846567848684985e-05 -2.4878685075526728e-02 0.0000000000000000e+00  -7.7840675657788833e-05 -2.5406482823496612e-02 0.0000000000000000e+00  -1.0526611826525747e-04 -2.5934665734813456e-02 0.0000000000000000e+00  -1.3294214964607371e-04 -2.6463381048719627e-02 0.0000000000000000e+00  -1.6077458869084843e-04 -2.6992172331958476e-02 0.0000000000000000e+00  -1.8887782761668086e-04 -2.7521207510776288e-02 0.0000000000000000e+00  -2.1711726504245615e-04 -2.8050352034274285e-02 0.0000000000000000e+00  -2.4543315474616747e-04 -2.8579342805063111e-02 0.0000000000000000e+00  -2.3849798958295166e-03 -2.8464484094090286e-02 0.0000000000000000e+00  -2.3564683551103604e-03 -2.7935485140695049e-02 0.0000000000000000e+00  -2.3278719554666060e-03 -2.7406400241917733e-02 0.0000000000000000e+00  -2.2991143558865421e-03 -2.6877416122802641e-02 0.0000000000000000e+00  -2.2702215854373659e-03 -2.6348674030135071e-02 0.0000000000000000e+00  -2.2412086518206514e-03 -2.5820101905236828e-02 0.0000000000000000e+00  -2.2120775939016195e-03 -2.5292084740546832e-02 0.0000000000000000e+00  -2.1826637243983348e-03 -2.4764562272911423e-02 0.0000000000000000e+00  -2.1533390842197395e-03 -2.4237493514887257e-02 0.0000000000000000e+00  -2.1238187030111883e-03 -2.3711319613399305e-02 0.0000000000000000e+00  -2.0941965245367812e-03 -2.3185663926500399e-02 0.0000000000000000e+00  -2.0646683986610564e-03 -2.2661103194759811e-02 0.0000000000000000e+00  -2.0348914874456577e-03 -2.2137818156141000e-02 0.0000000000000000e+00  -2.0049040738075712e-03 -2.1614849072361664e-02 0.0000000000000000e+00  -1.9751614108587763e-03 -2.1093533890847952e-02 0.0000000000000000e+00  -1.9451713463727372e-03 -2.0573871373281049e-02 0.0000000000000000e+00  -1.9150203002631103e-03 -2.0054607278098421e-02 0.0000000000000000e+00  -1.8853372482706251e-03 -1.9537289826093800e-02 0.0000000000000000e+00  -1.8554033863424010e-03 -1.9021735017956461e-02 0.0000000000000000e+00  -1.8252960229240287e-03 -1.8506588225460641e-02 0.0000000000000000e+00  -1.7957014454099798e-03 -1.7993601555200855e-02 0.0000000000000000e+00  -1.7657324919235977e-03 -1.7482664665285374e-02 0.0000000000000000e+00  -1.7355028827172154e-03 -1.6972233728716441e-02 0.0000000000000000e+00  -1.7057865931238742e-03 -1.6464445249547256e-02 0.0000000000000000e+00  -1.6755362998729748e-03 -1.5959358700418768e-02 0.0000000000000000e+00  -1.6449998582354177e-03 -1.5455260721992079e-02 0.0000000000000000e+00  -1.6147674327912039e-03 -1.4954046859411971e-02 0.0000000000000000e+00  -1.5841139734326323e-03 -1.4456366671140641e-02 0.0000000000000000e+00  -1.5533843367222966e-03 -1.3959391204660537e-02 0.0000000000000000e+00  -1.5236349473363880e-03 -1.3466361295770113e-02 0.0000000000000000e+00  -1.4928347043925525e-03 -1.2977643832198500e-02 0.0000000000000000e+00  -1.4616593890149283e-03 -1.2489912667789193e-02 0.0000000000000000e+00  -1.4309784411283084e-03 -1.2006902898573875e-02 0.0000000000000000e+00  -1.4005765196075759e-03 -1.1526307794754220e-02 0.0000000000000000e+00  -1.3699470104349034e-03 -1.1049748252090635e-02 0.0000000000000000e+00  -1.3396102438252488e-03 -1.0578375213837133e-02 0.0000000000000000e+00  -1.3079869169847042e-03 -1.0109759814937138e-02 0.0000000000000000e+00  -1.2769900794693161e-03 -9.6465877529833578e-03 0.0000000000000000e+00  -1.2449870844437473e-03 -9.1880738448298430e-03 0.0000000000000000e+00  -1.2123444632551289e-03 -8.7351864637116305e-03 0.0000000000000000e+00  -1.1798705391522981e-03 -8.2885155046117723e-03 0.0000000000000000e+00  -1.1485186620895831e-03 -7.8466248761829248e-03 0.0000000000000000e+00  -1.1172695368098901e-03 -7.4119776555235531e-03 0.0000000000000000e+00  -1.0828140123634142e-03 -6.9825710548595014e-03 0.0000000000000000e+00  -1.0509141638469582e-03 -6.5616703883207596e-03 0.0000000000000000e+00  -1.0159013150490947e-03 -6.1491806769589522e-03 0.0000000000000000e+00  -9.8325806031247559e-04 -5.7431281659566210e-03 0.0000000000000000e+00  -9.4931150470017769e-04 -5.3475008574246814e-03 0.0000000000000000e+00  -9.1662436864011648e-04 -4.9583630459500471e-03 0.0000000000000000e+00  -8.8399670083423414e-04 -4.5799323787247158e-03 0.0000000000000000e+00  -8.4656320639432843e-04 -4.2089678969651871e-03 0.0000000000000000e+00  -8.1277822861398961e-04 -3.8500129757580845e-03 0.0000000000000000e+00  -7.7384293490304491e-04 -3.5037233338250807e-03 0.0000000000000000e+00  -7.3975555411117083e-04 -3.1679765220023275e-03 0.0000000000000000e+00  -7.0327416562725024e-04 -2.8500974941682317e-03 0.0000000000000000e+00  -6.6492553249085807e-04 -2.5364322596957822e-03 0.0000000000000000e+00  -6.2837792955815468e-04 -2.2428876298904005e-03 0.0000000000000000e+00  -5.8458421517743639e-04 -1.9628728663135695e-03 0.0000000000000000e+00  -5.4672319538732464e-04 -1.6972294790395532e-03 0.0000000000000000e+00  -5.0625410304844286e-04 -1.4525837145046262e-03 0.0000000000000000e+00  -4.6693804966613321e-04 -1.2200483236791924e-03 0.0000000000000000e+00  -4.2744726150158012e-04 -1.0085924059898756e-03 0.0000000000000000e+00  -3.8074946605419876e-04 -8.1149483052485425e-04 0.0000000000000000e+00  -3.4084973694624936e-04 -6.3521405763864998e-04 0.0000000000000000e+00  -2.9198235055724999e-04 -4.7880206347661455e-04 0.0000000000000000e+00  -2.4814329314455451e-04 -3.4788631913385844e-04 0.0000000000000000e+00  -1.9624956703787484e-04 -2.3837026973248508e-04 0.0000000000000000e+00  -1.4835878972201943e-04 -1.4572984639966822e-04 0.0000000000000000e+00  -1.0001381706057941e-04 -8.0068584568503338e-05 0.0000000000000000e+00  -5.0099298481981680e-05 -4.4924219684364001e-05 0.0000000000000000e+00  -1.8784653643399167e-03 -2.9022134283448731e-02 0.0000000000000000e+00  -8.0872106085402601e-04 -2.9079570765126045e-02 0.0000000000000000e+00  5.7467921636197395e-06 -4.5375365309964352e-05 0.0000000000000000e+00  -1.0186800995043370e-03 -2.2978626293275729e-02 0.0000000000000000e+00  -1.1642927364934289e-03 -2.5652554418401825e-02 0.0000000000000000e+00  1.5391919156965305e-05 -4.1935048067512620e-04 0.0000000000000000e+00  -8.6567602717713631e-04 -1.9886807840784892e-02 0.0000000000000000e+00  -9.4780883649851907e-04 -2.1446375114819723e-02 0.0000000000000000e+00  -4.4824327585738920e-05 -1.0313400238651641e-03 0.0000000000000000e+00  -1.2934256493560981e-03 -2.7205155934333120e-02 0.0000000000000000e+00  -3.4736114988987693e-05 -1.7997159268500953e-03 0.0000000000000000e+00  -2.9016887463828582e-05 -3.4452249606582558e-03 0.0000000000000000e+00  -7.8481720559576539e-04 -1.8339487830531017e-02 0.0000000000000000e+00  -1.3320174587531144e-04 -4.7844279749939067e-03 0.0000000000000000e+00  -7.0551642314350244e-04 -1.6805722965042097e-02 0.0000000000000000e+00  -1.8156482968850252e-04 -6.0177694407820646e-03 0.0000000000000000e+00  -2.5215075389419200e-04 -7.6587461915667678e-03 0.0000000000000000e+00  -6.6268367146511947e-04 -1.5249672146521485e-02 0.0000000000000000e+00  -5.4124807733958941e-04 -1.3759171407814932e-02 0.0000000000000000e+00  -3.0189931566469431e-04 -8.9619727310320564e-03 0.0000000000000000e+00  -3.7697145884583571e-04 -1.0381824371738905e-02 0.0000000000000000e+00  -4.6723038080468565e-04 -1.2229513327337462e-02 0.0000000000000000e+00  -4.8590552158295798e-05 -2.3583727344598329e-03 0.0000000000000000e+00  -1.1059210472451786e-03 -2.4602601073249193e-02 0.0000000000000000e+00  -4.2999983891102867e-04 -1.1195965357618224e-02 0.0000000000000000e+00  -9.9319557021602551e-05 -4.1415143692980190e-03 0.0000000000000000e+00  -2.0757494649049630e-04 -6.9161980442936470e-03 0.0000000000000000e+00  -9.9007195482695751e-06 -7.0661955551270129e-04 0.0000000000000000e+00  -1.4802908650823681e-03 -2.8090804819591361e-02 0.0000000000000000e+00  2.8046326208426647e-05 -1.8973878369447369e-04 0.0000000000000000e+00  -3.5229324772390611e-04 -1.4514376410213898e-02 0.0000000000000000e+00  -5.0066385078741430e-04 -1.7545723558464048e-02 0.0000000000000000e+00  -5.7842251239789103e-04 -1.9086422096601541e-02 0.0000000000000000e+00  -4.8356965792808147e-04 -8.3117363256664523e-03 0.0000000000000000e+00  -4.2510585026874848e-04 -1.6020084816508687e-02 0.0000000000000000e+00  -6.5796028697749794e-04 -2.0639799003443780e-02 0.0000000000000000e+00  -2.8281654894013811e-04 -1.3032941774852327e-02 0.0000000000000000e+00  -7.3896219322209839e-04 -2.2204993420641788e-02 0.0000000000000000e+00  -5.5352592752128582e-04 -9.6742638139102801e-03 0.0000000000000000e+00  -3.3443748728571415e-04 -5.3596871224712191e-03 0.0000000000000000e+00  -1.3160103005394676e-04 -1.4392318264451164e-03 0.0000000000000000e+00  -1.4419007536155761e-03 -2.6392690132773320e-02 0.0000000000000000e+00  -1.3651644565912898e-03 -2.3739934519363400e-02 0.0000000000000000e+00  1.1647366702788347e-04 -2.8619973809883275e-03 0.0000000000000000e+00  -6.4039107671209948e-04 -2.3560907628889884e-02 0.0000000000000000e+00  -3.1762650534680753e-04 -2.9834664287033109e-03 0.0000000000000000e+00  -1.3993444620057497e-03 -2.2402748561524875e-02 0.0000000000000000e+00  -1.3137976288423131e-03 -2.0836359734807682e-02 0.0000000000000000e+00  -1.2289571678047494e-03 -1.9281658653006201e-02 0.0000000000000000e+00  -8.0004948584289949e-04 -2.6662165477745137e-02 0.0000000000000000e+00  1.5923387434852243e-04 -1.3425013342246270e-03 0.0000000000000000e+00  -1.0618903898618433e-03 -1.6212361116403128e-02 0.0000000000000000e+00  -1.1449993948214070e-03 -1.7739596356638052e-02 0.0000000000000000e+00  7.2863357862110737e-05 -8.1400804994048691e-03 0.0000000000000000e+00  1.5491277062335400e-04 -5.2058933161071488e-03 0.0000000000000000e+00  -9.5628214890369268e-04 -1.4263426861166011e-02 0.0000000000000000e+00  -8.9857010141209726e-04 -1.3220187151635291e-02 0.0000000000000000e+00  2.4586562448339847e-05 -9.4969076167319578e-03 0.0000000000000000e+00  -2.1538269006184901e-05 -2.0348856894129447e-05 0.0000000000000000e+00  1.6401709601439600e-05 -1.5756454829611673e-05 0.0000000000000000e+00  -8.1516857671348910e-05 -1.1867653059321763e-02 0.0000000000000000e+00  -5.1126951625546011e-04 -6.3313616662703763e-03 0.0000000000000000e+00  -3.7076737217166863e-04 -3.6897875374862451e-03 0.0000000000000000e+00  -1.2929937861943513e-04 -5.4066380695558562e-04 0.0000000000000000e+00  -1.6325934872948064e-04 -9.0021553201291300e-04 0.0000000000000000e+00  -2.3355451035306128e-05 -1.0889941619137766e-02 0.0000000000000000e+00  -4.1132626397768801e-04 -4.3841315060316188e-03 0.0000000000000000e+00  -5.7399318079887280e-04 -7.1955064790186866e-03 0.0000000000000000e+00  -2.6016718476974736e-04 -2.1437688599029326e-03 0.0000000000000000e+00  -7.2315228444033079e-04 -2.5024504114365197e-02 0.0000000000000000e+00  -1.5464285566640144e-03 -2.5011077537898843e-02 0.0000000000000000e+00  1.7413382924987049e-04 -2.1336178698417407e-03 0.0000000000000000e+00  -9.4237017715693847e-05 -2.6235036200475637e-04 0.0000000000000000e+00  -7.6552598682080571e-04 -2.7719098008062965e-02 0.0000000000000000e+00  -8.8675301327353895e-04 -1.1815649533049099e-02 0.0000000000000000e+00  -7.9181919137373536e-04 -1.0819660283914302e-02 0.0000000000000000e+00  2.4180245144640185e-04 -3.6868999126562448e-03 0.0000000000000000e+00  1.3871564356267768e-04 -5.3352698640916061e-04 0.0000000000000000e+00  1.7392858752807557e-04 -9.1532250292118396e-04 0.0000000000000000e+00  1.8124670618852249e-04 -6.3726783002675327e-03 0.0000000000000000e+00  2.6487968773201731e-04 -4.3949918540110034e-03 0.0000000000000000e+00  2.1435189310229337e-04 -7.2110307949490573e-03 0.0000000000000000e+00  -5.9981966099329293e-05 -1.3902097399597318e-04 0.0000000000000000e+00  -8.7865701164325442e-04 -2.8466823383605053e-02 0.0000000000000000e+00  -1.4166517596646490e-03 -2.1783828103946596e-02 0.0000000000000000e+00  -1.3310591873300754e-03 -2.0221931540194252e-02 0.0000000000000000e+00  1.8890609522356921e-04 -1.6319463376210253e-03 0.0000000000000000e+00  -1.2461817497115061e-03 -1.8672137757211885e-02 0.0000000000000000e+00  -7.1656380539104718e-04 -2.6043381879991848e-02 0.0000000000000000e+00  -1.1621339293451977e-03 -1.7135587824383382e-02 0.0000000000000000e+00  -1.0794574417454141e-03 -1.5619800476460518e-02 0.0000000000000000e+00  1.8239056186471913e-04 -5.6746963909305777e-03 0.0000000000000000e+00  -1.0364796014151181e-03 -1.4843414190749490e-02 0.0000000000000000e+00  9.7105075331645787e-05 -8.6689515676296337e-03 0.0000000000000000e+00  -9.1638894705893612e-04 -1.2642628904407816e-02 0.0000000000000000e+00  4.8252487329867309e-05 -1.0044414006055510e-02 0.0000000000000000e+00  -1.7267435608741880e-03 -2.7582061932181250e-02 0.0000000000000000e+00  -6.0912994677143450e-04 -2.4175564234166641e-02 0.0000000000000000e+00  -3.3036639832450680e-04 -2.6151964788277576e-03 0.0000000000000000e+00  1.0806545817351889e-04 -2.8357235396932282e-04 0.0000000000000000e+00  5.7495838657515888e-05 -1.1086947799419827e-04 0.0000000000000000e+00  -8.9457017983569367e-05 -1.4046864769519931e-02 0.0000000000000000e+00  -7.8677324614565209e-04 -1.0100324495393442e-02 0.0000000000000000e+00  -1.5729884258019650e-04 -1.5545408287816358e-02 0.0000000000000000e+00  -3.9043610011004718e-04 -2.0149336179605744e-02 0.0000000000000000e+00  -2.3878512738814483e-04 -1.7063402342072750e-02 0.0000000000000000e+00  -3.1347771144741465e-04 -1.8599805151182331e-02 0.0000000000000000e+00  -6.5314390057481634e-04 -8.7570147818661452e-03 0.0000000000000000e+00  -4.2303312418105984e-05 -1.2583637039529492e-02 0.0000000000000000e+00  -5.3015018789775450e-04 -5.7313509553738829e-03 0.0000000000000000e+00  -6.7403177378148936e-04 -7.8759677125345168e-03 0.0000000000000000e+00  -5.1075195078701633e-04 -2.2725234662146442e-02 0.0000000000000000e+00  -5.0069826449791906e-04 -4.9776998718359822e-03 0.0000000000000000e+00  -5.4199752203114467e-04 -2.1687567343964608e-02 0.0000000000000000e+00  -2.5749988222360711e-04 -1.6712021663665272e-03 0.0000000000000000e+00  -2.2677248551606168e-04 -1.2139481339465991e-03 0.0000000000000000e+00  -1.7030434374091926e-03 -2.6849829625187886e-02 0.0000000000000000e+00  -1.6709860134773268e-03 -2.5868044558811323e-02 0.0000000000000000e+00  -4.6862069284674807e-04 -1.9634529700572775e-02 0.0000000000000000e+00  -3.9139575089767098e-04 -1.8089161079233956e-02 0.0000000000000000e+00  -2.1730317191272279e-04 -1.5027651313547568e-02 0.0000000000000000e+00  -5.2194962296568529e-04 -2.1177863458928855e-02 0.0000000000000000e+00  -3.1646084661255753e-04 -1.6557690966877595e-02 0.0000000000000000e+00  -1.4097185142475442e-04 -1.3538905530228398e-02 0.0000000000000000e+00  -6.7215663630295274e-04 -9.2002620519367247e-03 0.0000000000000000e+00  2.2975137752790013e-04 -2.5699305597786789e-03 0.0000000000000000e+00  -1.5869014802453410e-03 -2.4231035457962909e-02 0.0000000000000000e+00  -1.5170208591022013e-03 -2.3232416326955687e-02 0.0000000000000000e+00  2.2756551476194219e-04 -3.18027147829362