<?xml version="1.0"?>
<VTKFile type="UnstructuredGrid"  version="0.1"  >
<UnstructuredGrid>
<Piece  NumberOfPoints="439" NumberOfCells="725">
<Points>
<DataArray  type="Float64"  NumberOfComponents="3"  format="ascii">0.6 0.19 0  0.6 0.21 0  0.2489897949 0.21 0  0.2489897949 0.19 0  0.6 0.2 0  0.2496355385699469 0.2060260530378829 0  0.249959460510575 0.2020130349814059 0  0.2499594605105767 0.1979869650186357 0  0.24963553856995 0.1939739469621422 0  0.2539336006056293 0.21 0  0.2588774063112542 0.21 0  0.2638212120168921 0.21 0  0.26876501772253 0.21 0  0.2737088234281569 0.21 0  0.2786526291337753 0.21 0  0.2835964348393937 0.21 0  0.2885402405450166 0.21 0  0.2934840462506522 0.21 0  0.2984278519562708 0.21 0  0.3033716576618997 0.21 0  0.3083154633675181 0.21 0  0.3132592690731365 0.21 0  0.3182030747787549 0.21 0  0.3231468804843732 0.21 0  0.3280906861899917 0.21 0  0.3330344918956208 0.21 0  0.3379782976012284 0.21 0  0.3429221033068576 0.21 0  0.347865909012476 0.21 0  0.3528097147180944 0.21 0  0.3577535204237128 0.21 0  0.3626973261293311 0.21 0  0.3676411318349495 0.21 0  0.3725849375405788 0.21 0  0.3775287432461877 0.21 0  0.382472548951812 0.21 0  0.3874163546574338 0.21 0  0.3923601603630631 0.21 0  0.3973039660686706 0.21 0  0.4022477717742986 0.21 0  0.4071915774799107 0.21 0  0.4121353831855311 0.21 0  0.4170791888911518 0.21 0  0.4220229945967636 0.21 0  0.4269668003023918 0.21 0  0.4319106060080253 0.21 0  0.4368544117136773 0.21 0  0.4417982174193329 0.21 0  0.4467420231249967 0.21 0  0.4516858288306445 0.21 0  0.4566296345362864 0.21 0  0.461573440241916 0.21 0  0.4665172459475665 0.21 0  0.4714610516531998 0.21 0  0.4764048573588668 0.21 0  0.4813486630645134 0.21 0  0.486292468770176 0.21 0  0.4912362744758066 0.21 0  0.4961800801814611 0.21 0  0.5011238858870897 0.21 0  0.5060676915927493 0.21 0  0.5110114972983872 0.21 0  0.5159553030040036 0.21 0  0.5208991087096415 0.21 0  0.5258429144153002 0.21 0  0.5307867201209391 0.21 0  0.5357305258265987 0.21 0  0.5406743315322367 0.21 0  0.5456181372378529 0.21 0  0.5505619429434908 0.21 0  0.5555057486491456 0.21 0  0.5604495543547885 0.21 0  0.565393360060448 0.21 0  0.5703371657661116 0.21 0  0.5752809714717458 0.21 0  0.5802247771773834 0.21 0  0.5851685828830341 0.21 0  0.5901123885886809 0.21 0  0.5950561942943404 0.21 0  0.5950561942943833 0.19 0  0.590112388588758 0.19 0  0.5851685828831193 0.19 0  0.5802247771774727 0.19 0  0.5752809714718514 0.19 0  0.5703371657662308 0.19 0  0.565393360060618 0.19 0  0.5604495543549889 0.19 0  0.5555057486493581 0.19 0  0.5505619429437035 0.19 0  0.5456181372381043 0.19 0  0.540674331532505 0.19 0  0.5357305258268962 0.19 0  0.530786720121263 0.19 0  0.5258429144156628 0.19 0  0.5208991087100244 0.19 0  0.5159553030044218 0.19 0  0.5110114972988226 0.19 0  0.5060676915932177 0.19 0  0.5011238858875806 0.19 0  0.496180080181972 0.19 0  0.4912362744763531 0.19 0  0.4862924687707343 0.19 0  0.4813486630651046 0.19 0  0.4764048573594966 0.19 0  0.4714610516538683 0.19 0  0.4665172459482555 0.19 0  0.4615734402426349 0.19 0  0.4566296345370104 0.19 0  0.4516858288313808 0.19 0  0.4467420231257716 0.19 0  0.4417982174201465 0.19 0  0.4368544117145297 0.19 0  0.4319106060089131 0.19 0  0.4269668003032866 0.19 0  0.4220229945976482 0.19 0  0.4170791888920056 0.19 0  0.4121353831863594 0.19 0  0.4071915774806995 0.19 0  0.4022477717750478 0.19 0  0.3973039660693901 0.19 0  0.3923601603637548 0.19 0  0.3874163546581082 0.19 0  0.3824725489524824 0.19 0  0.3775287432468258 0.19 0  0.3725849375411773 0.19 0  0.3676411318355085 0.19 0  0.3626973261298614 0.19 0  0.3577535204242108 0.19 0  0.352809714718589 0.19 0  0.347865909012931 0.19 0  0.342922103307292 0.19 0  0.3379782976016536 0.19 0  0.3330344918960152 0.19 0  0.3280906861903751 0.19 0  0.3231468804847171 0.19 0  0.3182030747790592 0.19 0  0.3132592690734012 0.19 0  0.3083154633677581 0.19 0  0.3033716576621197 0.19 0  0.2984278519564813 0.19 0  0.2934840462508429 0.19 0  0.2885402405451874 0.19 0  0.2835964348395295 0.19 0  0.2786526291338716 0.19 0  0.2737088234282243 0.19 0  0.268765017722586 0.19 0  0.2638212120169476 0.19 0  0.2588774063113093 0.19 0  0.2539336006056579 0.19 0  0.6 0.1949999999999783 0  0.6 0.2049999999999729 0  0.2589734265316493 0.2005523893428403 0  0.5431462343853077 0.199999999999969 0  0.5682397894768162 0.1999704585808987 0  0.2774513927118024 0.2007941919421926 0  0.513849583376897 0.1999023426490919 0  0.5286810004937381 0.1999023426490969 0  0.2945108952057646 0.1992911908405386 0  0.5827780831384927 0.1995429801003349 0  0.3104128396569256 0.1999704585808978 0  0.3370001755418551 0.2008294612433967 0  0.4990181662600459 0.1999023426490902 0  0.3552816175709044 0.2000000000000608 0  0.4841867491431925 0.1999023426490849 0  0.3707373713905551 0.2000142376953689 0  0.3898882575102495 0.2000000000000828 0  0.4689857550492734 0.1995416724256694 0  0.4541577316841967 0.1999999999999098 0  0.4043534914018331 0.2000976573509244 0  0.4195510917439569 0.2000000000001057 0  0.4387019778644512 0.1999857623046772 0  0.3202472750256703 0.2000088842146399 0  0.5584053541080851 0.1999911157853577 0  0.4280667146887134 0.1998489048208241 0  0.3467659946265474 0.2001510951794375 0  0.3813726345658908 0.200151095179452 0  0.2860683376922098 0.2000415445706182 0  0.5911223811781194 0.1982449159348744 0  0.2679893161458627 0.201675125646729 0  0.4615734402426278 0.2022503633288003 0  0.4912362744763454 0.2022503633288091 0  0.5060676915931983 0.2022503633288118 0  0.3973039660686774 0.1977496366711965 0  0.4764048573594896 0.2022503633288051 0  0.5208991087100455 0.2022503633288184 0  0.4467420231257656 0.2022503633288 0  0.5357305258268849 0.2022503633288198 0  0.4121353831855317 0.1977496366711976 0  0.3626973261293352 0.1977496366711919 0  0.3033716576618961 0.1977496366711869 0  0.5752809714718229 0.1977496366711503 0  0.550459855919056 0.1971284784737667 0  0.3281927732146841 0.2028715215262406 0  0.5484179020497461 0.2038403215694763 0  0.3302347270839988 0.1961596784305491 0  0.5379210852238114 0.196125181664411 0  0.5230896681069652 0.1961251816644058 0  0.5082582509901222 0.1961251816644098 0  0.5774715308687094 0.2038748183355887 0  0.3011810982649548 0.2038748183355937 0  0.4785954167564111 0.196125181664404 0  0.4934268338732671 0.1961251816644063 0  0.395113406671763 0.2038748183355966 0  0.3605067667324117 0.2038748183355951 0  0.4593828808457146 0.1961251816643993 0  0.4489325825226805 0.1961251816644007 0  0.4099448237886219 0.2038748183355991 0  0.2557862999801971 0.1960858370257295 0  0.2550147360309399 0.2034426429991114 0  0.4348031476464689 0.2037737577641554 0  0.37463620160841 0.1962262422358553 0  0.3406258365864304 0.196046792193989 0  0.2813001681189834 0.1960467921940502 0  0.2912686387439893 0.1960816328649282 0  0.4246705335819892 0.2039532078059544 0  0.350162175732913 0.1960467921941878 0  0.3847688156722694 0.1960467921942359 0  0.316632368538356 0.19615945856337 0  0.5621550011053409 0.2037816492598991 0  0.5624413877019769 0.1960761923611377 0  0.3162395035833128 0.2038679557424692 0  0.2710887134207622 0.1959696443325838 0  0.5873014376403604 0.2047227881030823 0  0.4346679566442709 0.1954651459552513 0  0.4243296504077986 0.1958756980939062 0  0.3402559510833523 0.2047940500290923 0  0.2808684926760933 0.2047742417812656 0  0.2914077033138723 0.2047809517070955 0  0.3747713926104932 0.2045348540448554 0  0.3499216488898867 0.2051753413186305 0  0.3845282888292298 0.205175341318636 0  0.2648144865455052 0.1962089742986374 0  0.5943247643662894 0.2040415423589182 0  0.5320972610456145 0.1956445099050872 0  0.5172658439287727 0.1956445099050854 0  0.3069923255602658 0.2043468033872551 0  0.5024344268119265 0.1956445099050864 0  0.5716603035734351 0.2043468033872761 0  0.4876030096950741 0.1956445099050831 0  0.4728151975296263 0.1956402468909894 0  0.3663301776527538 0.20436745486386 0  0.4651631000724991 0.1956402468909893 0  0.4009372308499527 0.2043554900949198 0  0.4431091716023345 0.1956325451361429 0  0.4157593408842466 0.2043565497109067 0  0.5865057328865416 0.1956918868509067 0  0.5541600609760193 0.2044335994013721 0  0.3244925681577497 0.1955664005986376 0  0.272008018888917 0.2049327968152409 0  0.2633407725863902 0.2042483236346266 0  0.4567948413982566 0.2046536472831198 0  0.4167680012832803 0.1955060004091903 0  0.4716262585151221 0.2046536472831242 0  0.5161054367030595 0.2045563706470633 0  0.4864426024693469 0.2045563706470604 0  0.5012740195862044 0.2045563706470634 0  0.4022810343427545 0.1961423961483001 0  0.4420739040821668 0.2044853411424516 0  0.3673807293464664 0.1955677741328205 0  0.3925253672243162 0.195346352716901 0  0.5405091246712254 0.2046536472831267 0  0.357918727284983 0.1953463527168901 0  0.5307534575528717 0.2038576038516682 0  0.3079697655029555 0.1955637092892754 0  0.2985930588175599 0.1953463527168728 0  0.579671714346879 0.1955441268455555 0  0.5705023726275059 0.1953463527168462 0  0.5112451461103119 0.2035640580783926 0  0.4964137289934448 0.2035640580783915 0  0.4665727251511405 0.2038238154617746 0  0.5259274680675793 0.2038006696000127 0  0.4815823118765752 0.2035640580783898 0  0.4517504165552094 0.2039070625502732 0  0.4071070238280551 0.1961993303999926 0  0.3234846806957546 0.2047001437739977 0  0.5551679484379799 0.1952998562260008 0  0.5457754356464107 0.1954447171286166 0  0.3329307555206357 0.2046017509710421 0  0.4541577316841968 0.1960357661898101 0  0.3358300776141575 0.1950765652117375 0  0.2539718587514912 0.200011552766824 0  0.5826472073721517 0.2039971170156656 0  0.2761021761080182 0.1946948236183283 0  0.3898581462796225 0.2041572776584344 0  0.3552515063402743 0.2041572776584256 0  0.2965028074750666 0.2046578268138723 0  0.4299158836614793 0.1951782397873778 0  0.379426563923736 0.2049969334481307 0  0.2860882692072842 0.2042624797643994 0  0.3449948044168807 0.2051793676155613 0  0.2603922435707652 0.1950997711614917 0  0.5949856943860
[...]
<PointData  Vectors="f_18-1"> 
<DataArray  type="Float64"  Name="f_18-1"  NumberOfComponents="3" format="ascii">-8.9102994514020655e-04 -1.4174461342555601e-02 0.0000000000000000e+00  2.4777457288938044e-04 -1.4206975970420572e-02 0.0000000000000000e+00  0.0000000000000000e+00 0.0000000000000000e+00 0.0000000000000000e+00  0.0000000000000000e+00 0.0000000000000000e+00 0.0000000000000000e+00  -3.2162795636333006e-04 -1.4190698438531922e-02 0.0000000000000000e+00  0.0000000000000000e+00 0.0000000000000000e+00 0.0000000000000000e+00  0.0000000000000000e+00 0.0000000000000000e+00 0.0000000000000000e+00  0.0000000000000000e+00 0.0000000000000000e+00 0.0000000000000000e+00  0.0000000000000000e+00 0.0000000000000000e+00 0.0000000000000000e+00  2.1405675037150173e-05 -1.9053098007333913e-05 0.0000000000000000e+00  4.4224940460714942e-05 -3.9309609736183458e-05 0.0000000000000000e+00  6.6544642862325187e-05 -6.4780261321753380e-05 0.0000000000000000e+00  8.7363342501756865e-05 -1.0612958062203142e-04 0.0000000000000000e+00  1.0669125677764584e-04 -1.5567581254838882e-04 0.0000000000000000e+00  1.2645358515612980e-04 -2.1694659516239198e-04 0.0000000000000000e+00  1.4392349666369215e-04 -2.8390394138290968e-04 0.0000000000000000e+00  1.5933599136684572e-04 -3.6121127104291512e-04 0.0000000000000000e+00  1.7461554795894613e-04 -4.4632858884965628e-04 0.0000000000000000e+00  1.8852435134509397e-04 -5.3916372772372996e-04 0.0000000000000000e+00  2.0301063583120111e-04 -6.4200584061771613e-04 0.0000000000000000e+00  2.1715409845855040e-04 -7.4628458333849399e-04 0.0000000000000000e+00  2.2876092872824001e-04 -8.6175217907719017e-04 0.0000000000000000e+00  2.4251158814631843e-04 -9.8276993297353120e-04 0.0000000000000000e+00  2.5301494870178090e-04 -1.1091814542203628e-03 0.0000000000000000e+00  2.6394923037876124e-04 -1.2431779701535892e-03 0.0000000000000000e+00  2.7398016178741366e-04 -1.3815737373117575e-03 0.0000000000000000e+00  2.8333140405233852e-04 -1.5274068758872150e-03 0.0000000000000000e+00  2.9148639223675749e-04 -1.6762631837507445e-03 0.0000000000000000e+00  2.9943960268374918e-04 -1.8314445802887593e-03 0.0000000000000000e+00  3.0659355531224722e-04 -1.9910043340314134e-03 0.0000000000000000e+00  3.1290577145773107e-04 -2.1549853827750130e-03 0.0000000000000000e+00  3.2001173184961523e-04 -2.3261011694189525e-03 0.0000000000000000e+00  3.2716858709168063e-04 -2.4982688218825331e-03 0.0000000000000000e+00  3.3322518716852225e-04 -2.6771509434371076e-03 0.0000000000000000e+00  3.3856013328225075e-04 -2.8589588709904208e-03 0.0000000000000000e+00  3.4380360798082281e-04 -3.0459304350884103e-03 0.0000000000000000e+00  3.4858051764868198e-04 -3.2367236531129352e-03 0.0000000000000000e+00  3.5265014862511697e-04 -3.4313942974450429e-03 0.0000000000000000e+00  3.5749165313847374e-04 -3.6323349732895684e-03 0.0000000000000000e+00  3.6244232712471836e-04 -3.8339504277169418e-03 0.0000000000000000e+00  3.6584737406714026e-04 -4.0416873940254767e-03 0.0000000000000000e+00  3.6965618259916490e-04 -4.2544416214217642e-03 0.0000000000000000e+00  3.7347911388029898e-04 -4.4684374929459076e-03 0.0000000000000000e+00  3.7594584035910016e-04 -4.6884680133678939e-03 0.0000000000000000e+00  3.7945251096721349e-04 -4.9113875765524175e-03 0.0000000000000000e+00  3.8131887732926220e-04 -5.1382971979421375e-03 0.0000000000000000e+00  3.8412818393321986e-04 -5.3693288812164085e-03 0.0000000000000000e+00  3.8547906163941475e-04 -5.6031622906490249e-03 0.0000000000000000e+00  3.8641446862476472e-04 -5.8410192581066179e-03 0.0000000000000000e+00  3.8747401305509451e-04 -6.0817615157619086e-03 0.0000000000000000e+00  3.8840744662245089e-04 -6.3259278505350186e-03 0.0000000000000000e+00  3.8825685571092824e-04 -6.5733655508722405e-03 0.0000000000000000e+00  3.8825260832495341e-04 -6.8235360206316004e-03 0.0000000000000000e+00  3.8796796351845368e-04 -7.0769149845813792e-03 0.0000000000000000e+00  3.8663763674791807e-04 -7.3332259680345463e-03 0.0000000000000000e+00  3.8518450035652965e-04 -7.5918806418743363e-03 0.0000000000000000e+00  3.8336895679148635e-04 -7.8532402047949042e-03 0.0000000000000000e+00  3.8062817334670238e-04 -8.1168029185130497e-03 0.0000000000000000e+00  3.7769596245394791e-04 -8.3821800597697772e-03 0.0000000000000000e+00  3.7441786079191164e-04 -8.6496155233518821e-03 0.0000000000000000e+00  3.7039728618352692e-04 -8.9186911669073918e-03 0.0000000000000000e+00  3.6621974354985524e-04 -9.1891154088486679e-03 0.0000000000000000e+00  3.6178222337744859e-04 -9.4611054590071214e-03 0.0000000000000000e+00  3.5677752519357804e-04 -9.7343302896789104e-03 0.0000000000000000e+00  3.5172721490360053e-04 -1.0008657603979496e-02 0.0000000000000000e+00  3.4646764813802105e-04 -1.0284197119727792e-02 0.0000000000000000e+00  3.4087259522701420e-04 -1.0560768044490012e-02 0.0000000000000000e+00  3.3493424883078942e-04 -1.0838138982048351e-02 0.0000000000000000e+00  3.2866492257052301e-04 -1.1116532649316224e-02 0.0000000000000000e+00  3.2225520732967212e-04 -1.1395830539045150e-02 0.0000000000000000e+00  3.1575010895506064e-04 -1.1675301331425372e-02 0.0000000000000000e+00  3.0885866043346808e-04 -1.1955686651604455e-02 0.0000000000000000e+00  3.0193442260151993e-04 -1.2236462939527291e-02 0.0000000000000000e+00  2.9464944586073398e-04 -1.2517554151934864e-02 0.0000000000000000e+00  2.8714987673993504e-04 -1.2799023728545248e-02 0.0000000000000000e+00  2.7952272817861722e-04 -1.3080537897192214e-02 0.0000000000000000e+00  2.7169901750126549e-04 -1.3362180323174669e-02 0.0000000000000000e+00  2.6377261912275665e-04 -1.3643851726925629e-02 0.0000000000000000e+00  2.5579231641507152e-04 -1.3925419513511537e-02 0.0000000000000000e+00  -8.8299346980787803e-04 -1.3892924441019701e-02 0.0000000000000000e+00  -8.7490874617748978e-04 -1.3611322915107847e-02 0.0000000000000000e+00  -8.6676894897932250e-04 -1.3329645556758491e-02 0.0000000000000000e+00  -8.5852414933179101e-04 -1.3047996989781270e-02 0.0000000000000000e+00  -8.5017044969120205e-04 -1.2766485407784576e-02 0.0000000000000000e+00  -8.4169202827944834e-04 -1.2485057164516882e-02 0.0000000000000000e+00  -8.3305528445627936e-04 -1.2204021569789811e-02 0.0000000000000000e+00  -8.2413307344387154e-04 -1.1923362849401460e-02 0.0000000000000000e+00  -8.1522116555464441e-04 -1.1643083641939760e-02 0.0000000000000000e+00  -8.0607172769755304e-04 -1.1363576385249267e-02 0.0000000000000000e+00  -7.9678716123130757e-04 -1.1084515883464477e-02 0.0000000000000000e+00  -7.8753033576473507e-04 -1.0806430789897866e-02 0.0000000000000000e+00  -7.7799250572671520e-04 -1.0529463528277471e-02 0.0000000000000000e+00  -7.6824665789958235e-04 -1.0252750330444536e-02 0.0000000000000000e+00  -7.5862875208210722e-04 -9.9775010704078095e-03 0.0000000000000000e+00  -7.4865487837385755e-04 -9.7037324001369701e-03 0.0000000000000000e+00  -7.3846310512089037e-04 -9.4303149069263348e-03 0.0000000000000000e+00  -7.2851254782820842e-04 -9.1587565548631490e-03 0.0000000000000000e+00  -7.1807716918190797e-04 -8.8890152883781270e-03 0.0000000000000000e+00  -7.0734430968651802e-04 -8.6197254872465764e-03 0.0000000000000000e+00  -6.9689044561038944e-04 -8.3528456940613963e-03 0.0000000000000000e+00  -6.8579154925800555e-04 -8.0883809343693380e-03 0.0000000000000000e+00  -6.7431266770238128e-04 -7.8245352340505763e-03 0.0000000000000000e+00  -6.6324416116240591e-04 -7.5638816345041096e-03 0.0000000000000000e+00  -6.5142110246231349e-04 -7.3064240294075057e-03 0.0000000000000000e+00  -6.3923746169962620e-04 -7.0501047079166044e-03 0.0000000000000000e+00  -6.2732422470425343e-04 -6.7972316737402319e-03 0.0000000000000000e+00  -6.1484733411034591e-04 -6.5483671844818632e-03 0.0000000000000000e+00  -6.0233785935285503e-04 -6.3003373193052234e-03 0.0000000000000000e+00  -5.9084796804322796e-04 -6.0567876228910071e-03 0.0000000000000000e+00  -5.7819093907981707e-04 -5.8178709678335791e-03 0.0000000000000000e+00  -5.6524213127830450e-04 -5.5799502971584855e-03 0.0000000000000000e+00  -5.5280919376008320e-04 -5.3470563600779494e-03 0.0000000000000000e+00  -5.4074422134929589e-04 -5.1165614769563420e-03 0.0000000000000000e+00  -5.2855060702804537e-04 -4.8900482470263240e-03 0.0000000000000000e+00  -5.1669314767962984e-04 -4.6682493860750697e-03 0.0000000000000000e+00  -5.0391789854592581e-04 -4.4489705400518826e-03 0.0000000000000000e+00  -4.9173995943187384e-04 -4.2343717246014498e-03 0.0000000000000000e+00  -4.7900487466692162e-04 -4.0234547474907231e-03 0.0000000000000000e+00  -4.6609216152650987e-04 -3.8168430277120352e-03 0.0000000000000000e+00  -4.5360094482002568e-04 -3.6146287216967314e-03 0.0000000000000000e+00  -4.4209829614369554e-04 -3.4157548214076312e-03 0.0000000000000000e+00  -4.3077960833516789e-04 -3.2215326117929679e-03 0.0000000000000000e+00  -4.1769866255675483e-04 -3.0305028452998731e-03 0.0000000000000000e+00  -4.0628883662556845e-04 -2.8444261078264086e-03 0.0000000000000000e+00  -3.9327953643894542e-04 -2.6631159074141171e-03 0.0000000000000000e+00  -3.8168979709862560e-04 -2.4853453842005688e-03 0.0000000000000000e+00  -3.6944203917661138e-04 -2.3129842486754437e-03 0.0000000000000000e+00  -3.5800927807859428e-04 -2.1440430093150604e-03 0.0000000000000000e+00  -3.4664562692984107e-04 -1.9804004325569371e-03 0.0000000000000000e+00  -3.3310009155516191e-04 -1.8202998864591496e-03 0.0000000000000000e+00  -3.2132004847282064e-04 -1.6657924654577506e-03 0.0000000000000000e+00  -3.0724610520562731e-04 -1.5170028073229532e-03 0.0000000000000000e+00  -2.9533088682800373e-04 -1.3729300834372622e-03 0.0000000000000000e+00  -2.8227165796523677e-04 -1.2365624043540846e-03 0.0000000000000000e+00  -2.6844373918271871e-04 -1.1019621868962959e-03 0.0000000000000000e+00  -2.5522746236021675e-04 -9.7597151806976109e-04 0.0000000000000000e+00  -2.3885943097872931e-04 -8.5555125703491524e-04 0.0000000000000000e+00  -2.2482910914092103e-04 -7.4121806379564550e-04 0.0000000000000000e+00  -2.0947723043587360e-04 -6.3561377190988404e-04 0.0000000000000000e+00  -1.9445035927994744e-04 -5.3508102599669012e-04 0.0000000000000000e+00  -1.7908629091121359e-04 -4.4337517305146159e-04 0.0000000000000000e+00  -1.6051377847631570e-04 -3.5765717638876774e-04 0.0000000000000000e+00  -1.4455105383926151e-04 -2.8083461917465078e-04 0.0000000000000000e+00  -1.2457095908821733e-04 -2.1234713018798712e-04 0.0000000000000000e+00  -1.0644444362502104e-04 -1.5480815822487348e-04 0.0000000000000000e+00  -8.4609460648876712e-05 -1.0640216700781036e-04 0.0000000000000000e+00  -6.4297960568040797e-05 -6.5346395293050253e-05 0.0000000000000000e+00  -4.3572139957292624e-05 -3.6018729682003581e-05 0.0000000000000000e+00  -2.1925539172010103e-05 -2.0026806514174467e-05 0.0000000000000000e+00  -6.0631181492002220e-04 -1.4182575293986522e-02 0.0000000000000000e+00  -3.6945774173381210e-05 -1.4198838288189266e-02 0.0000000000000000e+00  2.9177322550395779e-06 -2.0935819559904102e-05 0.0000000000000000e+00  -2.3020501134000227e-04 -1.0960284344997072e-02 0.0000000000000000e+00  -2.7178031449946689e-04 -1.2381531958548421e-02 0.0000000000000000e+00  8.8465706296681542e-06 -1.8581352242778398e-04 0.0000000000000000e+00  -1.9056367774259993e-04 -9.3277694484168918e-03 0.0000000000000000e+00  -2.1307046077576603e-04 -1.0149426517213987e-02 0.0000000000000000e+00  -1.3867707530132680e-05 -4.5174725045520379e-04 0.0000000000000000e+00  -3.1963348436365617e-04 -1.3208831738925944e-02 0.0000000000000000e+00  -4.3772226503309493e-06 -7.8233081472336584e-04 0.0000000000000000e+00  1.1560911743877627e-05 -1.4856739422092547e-03 0.0000000000000000e+00  -1.6874033132869152e-04 -8.5180963865454217e-03 0.0000000000000000e+00  -2.0445464541255799e-05 -2.0610176179894288e-03 0.0000000000000000e+00  -1.4779064974814000e-04 -7.7241857160537516e-03 0.0000000000000000e+00  -2.8834050342673239e-05 -2.5960633016663247e-03 0.0000000000000000e+00  -4.2055923990498110e-05 -3.3206929547268237e-03 0.0000000000000000e+00  -1.4585474588842324e-04 -6.9317236489197928e-03 0.0000000000000000e+00  -1.0408546521889748e-04 -6.1869531955353625e-03 0.0000000000000000e+00  -4.9500435339365682e-05 -3.9076487020038523e-03 0.0000000000000000e+00  -6.7191774406072892e-05 -4.5624498594080687e-03 0.0000000000000000e+00  -8.7262078321244502e-05 -5.4395987865246548e-03 0.0000000000000000e+00  -6.0883490089473552e-06 -1.0215073011093424e-03 0.0000000000000000e+00  -2.5479496023938434e-04 -1.1822752484790767e-02 0.0000000000000000e+00  -8.2097489919517088e-05 -4.9457589977193288e-03 0.0000000000000000e+00  -1.2152709848192369e-05 -1.7843203365081072e-03 0.0000000000000000e+00  -3.0574020830236809e-05 -2.9907370347407314e-03 0.0000000000000000e+00  -6.3029406658060974e-07 -3.1090501767961124e-04 0.0000000000000000e+00  -4.0711494728670999e-04 -1.3682196113482054e-02 0.0000000000000000e+00  1.3326104278594756e-05 -8.4981499141211292e-05 0.0000000000000000e+00  -2.4208063184740222e-07 -6.5593881928241535e-03 0.0000000000000000e+00  -3.2553930944439360e-05 -8.1029237093694657e-03 0.0000000000000000e+00  -5.1329728749577640e-05 -8.9049899349382833e-03 0.0000000000000000e+00  -1.3918311911348259e-04 -3.6156947470077747e-03 0.0000000000000000e+00  -1.5436999033658147e-05 -7.3192071115753231e-03 0.0000000000000000e+00  -7.1494164901606818e-05 -9.7207742143501346e-03 0.0000000000000000e+00  1.2778783519969156e-05 -5.8274062504295931e-03 0.0000000000000000e+00  -9.2755360624392031e-05 -1.0547335555023463e-02 0.0000000000000000e+00  -1.5718170282982055e-04 -4.2367692984238902e-03 0.0000000000000000e+00  -1.0221689899438524e-04 -2.3115146703590844e-03 0.0000000000000000e+00  -4.8536640200267952e-05 -6.2803179215200808e-04 0.0000000000000000e+00  -4.0937703068062958e-04 -1.2778771115391580e-02 0.0000000000000000e+00  -4.0361677236776380e-04 -1.1368360810146742e-02 0.0000000000000000e+00  6.8825180298779696e-05 -1.2354486729558524e-03 0.0000000000000000e+00  -2.2104942875639358e-05 -1.1263904699541952e-02 0.0000000000000000e+00  -1.1622666827913519e-04 -1.2906101522691465e-03 0.0000000000000000e+00  -4.3889287389365018e-04 -1.0660616984056771e-02 0.0000000000000000e+00  -4.1347308564680337e-04 -9.8328351145639172e-03 0.0000000000000000e+00  -3.8802373056201825e-04 -9.0155932870103258e-03 0.0000000000000000e+00  -6.4735659142049409e-05 -1.2913533417929930e-02 0.0000000000000000e+00  7.5971795376522723e-05 -5.8483692492298633e-04 0.0000000000000000e+00  -3.3661140628302605e-04 -7.4254019343296855e-03 0.0000000000000000e+00  -3.6241431947481100e-04 -8.2116205092557307e-03 0.0000000000000000e+00  1.1002696841185862e-04 -3.5326605287157569e-03 0.0000000000000000e+00  1.0910571301472370e-04 -2.2403666106406814e-03 0.0000000000000000e+00  -3.0405144471658008e-04 -6.4421204921607678e-03 0.0000000000000000e+00  -2.8547102610990529e-04 -5.9265928771611541e-03 0.0000000000000000e+00  1.0743579572818329e-04 -4.1487888660089404e-03 0.0000000000000000e+00  -9.2225901340307782e-06 -9.5080731949482657e-06 0.0000000000000000e+00  7.4301556821110888e-06 -7.5114105106157159e-06 0.0000000000000000e+00  9.2817920041605526e-05 -5.2616263369973859e-03 0.0000000000000000e+00  -1.7058328039401557e-04 -2.7367473085821814e-03 0.0000000000000000e+00  -1.3301602315679223e-04 -1.5931264061591313e-03 0.0000000000000000e+00  -5.3365076915407415e-05 -2.3912521116422326e-04 0.0000000000000000e+00  -6.5847703549021608e-05 -3.9546493721013225e-04 0.0000000000000000e+00  1.0563788231272193e-04 -4.7971122885266644e-03 0.0000000000000000e+00  -1.4436399392203159e-04 -1.8912521551725087e-03 0.0000000000000000e+00  -1.9035196115978082e-04 -3.1182182631026055e-03 0.0000000000000000e+00  -9.8442921905619339e-05 -9.3110760194103925e-04 0.0000000000000000e+00  -4.5992330796550887e-05 -1.2041864937553689e-02 0.0000000000000000e+00  -4.8319122058491389e-04 -1.2045664587854403e-02 0.0000000000000000e+00  8.7689951779795568e-05 -9.2394121739203413e-04 0.0000000000000000e+00  -3.9695878312560606e-05 -1.1710107506845115e-04 0.0000000000000000e+00  -3.2179510358854473e-05 -1.3475065138984325e-02 0.0000000000000000e+00  -2.9325836704223354e-04 -5.2466452084968139e-03 0.0000000000000000e+00  -2.5712553862970033e-04 -4.7727985604053445e-03 0.0000000000000000e+00  1.3021078729288319e-04 -1.5868883068881929e-03 0.0000000000000000e+00  6.2988261668730494e-05 -2.3516341429299440e-04 0.0000000000000000e+00  7.9981814936229466e-05 -4.0054929516080892e-04 0.0000000000000000e+00  1.3466172389821910e-04 -2.7480250446264049e-03 0.0000000000000000e+00  1.4750954541772773e-04 -1.8901464092232593e-03 0.0000000000000000e+00  1.6037156503570038e-04 -3.1172791177233546e-03 0.0000000000000000e+00  -2.5418977290646361e-05 -6.2545960866035194e-05 0.0000000000000000e+00  -8.2306133645221145e-05 -1.3874058682835526e-02 0.0000000000000000e+00  -4.5590428285354081e-04 -1.0333827939887351e-02 0.0000000000000000e+00  -4.3022188914091281e-04 -9.5100020247820913e-03 0.0000000000000000e+00  9.0570134518883454e-05 -7.0901779086644128e-04 0.0000000000000000e+00  -4.0435775674400111e-04 -8.6976337665695472e-03 0.0000000000000000e+00  -2.8713769140940287e-05 -1.2583406519359332e-02 0.0000000000000000e+00  -3.7818831411775335e-04 -7.9000941952762152e-03 0.0000000000000000e+00  -3.5197574694767811e-04 -7.1245948015506086e-03 0.0000000000000000e+00  1.2644068397918616e-04 -2.4434447406060764e-03 0.0000000000000000e+00  -3.3796971309824032e-04 -6.7327809569728211e-03 0.0000000000000000e+00  1.2819004154611825e-04 -3.7708458986878790e-03 0.0000000000000000e+00  -3.0009955052832639e-04 -5.6455199833409745e-03 0.0000000000000000e+00  1.2635272727503944e-04 -4.4013115978643897e-03 0.0000000000000000e+00  -5.4489644099379238e-04 -1.3415010163647928e-02 0.0000000000000000e+00  2.8820297881889330e-06 -1.1589513988972800e-02 0.0000000000000000e+00  -1.2473018428495202e-04 -1.1332612071941854e-03 0.0000000000000000e+00  4.8680373735408352e-05 -1.2609220082402813e-04 0.0000000000000000e+00  2.5926928592402643e-05 -5.0059978367157990e-05 0.0000000000000000e+00  1.2309531721195127e-04 -6.3239833335144236e-03 0.0000000000000000e+00  -2.6118450405143376e-04 -4.4368546259032273e-03 0.0000000000000000e+00  1.1301603680759749e-04 -7.0752450196552089e-03 0.0000000000000000e+00  6.1989370134482938e-05 -9.4595787833603277e-03 0.0000000000000000e+00  9.5083943501634660e-05 -7.8510157606509687e-03 0.0000000000000000e+00  7.9596680568114574e-05 -8.6477877657156130e-03 0.0000000000000000e+00  -2.1182574054692208e-04 -3.8187881049318514e-03 0.0000000000000000e+00  1.2293846207333923e-04 -5.6062999255376209e-03 0.0000000000000000e+00  -1.8413223535560568e-04 -2.4749330713149669e-03 0.0000000000000000e+00  -2.2896515190303976e-04 -3.4225092601188460e-03 0.0000000000000000e+00  3.4934799752608201e-05 -1.0819547575783281e-02 0.0000000000000000e+00  -1.7780348548469360e-04 -2.1479365002454649e-03 0.0000000000000000e+00  4.0276890967560326e-06 -1.0271471263517030e-02 0.0000000000000000e+00  -1.0093746291743680e-04 -7.2846016320975561e-04 0.0000000000000000e+00  -9.1072932321485732e-05 -5.3142500553425261e-04 0.0000000000000000e+00  -5.4207123929500924e-04 -1.3025351080898282e-02 0.0000000000000000e+00  -5.3804272728381430e-04 -1.2502873229702727e-02 0.0000000000000000e+00  1.3754911960799294e-05 -9.1904187666071308e-03 0.0000000000000000e+00  3.1752091062274539e-05 -8.3830585116321070e-03 0.0000000000000000e+00  7.4946476104286919e-05 -6.8148114095464476e-03 0.0000000000000000e+00  7.5019919342616740e-06 -1.0002362108485891e-02 0.0000000000000000e+00  4.7778505118879790e-05 -7.5922597277356067e-03 0.0000000000000000e+00  8.9942291612399118e-05 -6.0737396743781227e-03 0.0000000000000000e+00  -2.1637849440446583e-04 -4.0206699088130874e-03 0.0000000000000000e+00  1.1493361043194506e-04 -1.1099494109220007e-03 0.0000000000000000e+00  -5.1479253045194271e-04 -1.1631929842277193e-02 0.0000000000000000e+00  -4.9059625018899901e-04 -1.1101381408291108e-02 0.0000000000000000e+00  1.1926271492964958e-04 -1.3705243522701802e-03 0.0000000000000000e+00