<?xml version="1.0"?>
<VTKFile type="UnstructuredGrid"  version="0.1"  >
<UnstructuredGrid>
<Piece  NumberOfPoints="439" NumberOfCells="725">
<Points>
<DataArray  type="Float64"  NumberOfComponents="3"  format="ascii">0.6 0.19 0  0.6 0.21 0  0.2489897949 0.21 0  0.2489897949 0.19 0  0.6 0.2 0  0.2496355385699469 0.2060260530378829 0  0.249959460510575 0.2020130349814059 0  0.2499594605105767 0.1979869650186357 0  0.24963553856995 0.1939739469621422 0  0.2539336006056293 0.21 0  0.2588774063112542 0.21 0  0.2638212120168921 0.21 0  0.26876501772253 0.21 0  0.2737088234281569 0.21 0  0.2786526291337753 0.21 0  0.2835964348393937 0.21 0  0.2885402405450166 0.21 0  0.2934840462506522 0.21 0  0.2984278519562708 0.21 0  0.3033716576618997 0.21 0  0.3083154633675181 0.21 0  0.3132592690731365 0.21 0  0.3182030747787549 0.21 0  0.3231468804843732 0.21 0  0.3280906861899917 0.21 0  0.3330344918956208 0.21 0  0.3379782976012284 0.21 0  0.3429221033068576 0.21 0  0.347865909012476 0.21 0  0.3528097147180944 0.21 0  0.3577535204237128 0.21 0  0.3626973261293311 0.21 0  0.3676411318349495 0.21 0  0.3725849375405788 0.21 0  0.3775287432461877 0.21 0  0.382472548951812 0.21 0  0.3874163546574338 0.21 0  0.3923601603630631 0.21 0  0.3973039660686706 0.21 0  0.4022477717742986 0.21 0  0.4071915774799107 0.21 0  0.4121353831855311 0.21 0  0.4170791888911518 0.21 0  0.4220229945967636 0.21 0  0.4269668003023918 0.21 0  0.4319106060080253 0.21 0  0.4368544117136773 0.21 0  0.4417982174193329 0.21 0  0.4467420231249967 0.21 0  0.4516858288306445 0.21 0  0.4566296345362864 0.21 0  0.461573440241916 0.21 0  0.4665172459475665 0.21 0  0.4714610516531998 0.21 0  0.4764048573588668 0.21 0  0.4813486630645134 0.21 0  0.486292468770176 0.21 0  0.4912362744758066 0.21 0  0.4961800801814611 0.21 0  0.5011238858870897 0.21 0  0.5060676915927493 0.21 0  0.5110114972983872 0.21 0  0.5159553030040036 0.21 0  0.5208991087096415 0.21 0  0.5258429144153002 0.21 0  0.5307867201209391 0.21 0  0.5357305258265987 0.21 0  0.5406743315322367 0.21 0  0.5456181372378529 0.21 0  0.5505619429434908 0.21 0  0.5555057486491456 0.21 0  0.5604495543547885 0.21 0  0.565393360060448 0.21 0  0.5703371657661116 0.21 0  0.5752809714717458 0.21 0  0.5802247771773834 0.21 0  0.5851685828830341 0.21 0  0.5901123885886809 0.21 0  0.5950561942943404 0.21 0  0.5950561942943833 0.19 0  0.590112388588758 0.19 0  0.5851685828831193 0.19 0  0.5802247771774727 0.19 0  0.5752809714718514 0.19 0  0.5703371657662308 0.19 0  0.565393360060618 0.19 0  0.5604495543549889 0.19 0  0.5555057486493581 0.19 0  0.5505619429437035 0.19 0  0.5456181372381043 0.19 0  0.540674331532505 0.19 0  0.5357305258268962 0.19 0  0.530786720121263 0.19 0  0.5258429144156628 0.19 0  0.5208991087100244 0.19 0  0.5159553030044218 0.19 0  0.5110114972988226 0.19 0  0.5060676915932177 0.19 0  0.5011238858875806 0.19 0  0.496180080181972 0.19 0  0.4912362744763531 0.19 0  0.4862924687707343 0.19 0  0.4813486630651046 0.19 0  0.4764048573594966 0.19 0  0.4714610516538683 0.19 0  0.4665172459482555 0.19 0  0.4615734402426349 0.19 0  0.4566296345370104 0.19 0  0.4516858288313808 0.19 0  0.4467420231257716 0.19 0  0.4417982174201465 0.19 0  0.4368544117145297 0.19 0  0.4319106060089131 0.19 0  0.4269668003032866 0.19 0  0.4220229945976482 0.19 0  0.4170791888920056 0.19 0  0.4121353831863594 0.19 0  0.4071915774806995 0.19 0  0.4022477717750478 0.19 0  0.3973039660693901 0.19 0  0.3923601603637548 0.19 0  0.3874163546581082 0.19 0  0.3824725489524824 0.19 0  0.3775287432468258 0.19 0  0.3725849375411773 0.19 0  0.3676411318355085 0.19 0  0.3626973261298614 0.19 0  0.3577535204242108 0.19 0  0.352809714718589 0.19 0  0.347865909012931 0.19 0  0.342922103307292 0.19 0  0.3379782976016536 0.19 0  0.3330344918960152 0.19 0  0.3280906861903751 0.19 0  0.3231468804847171 0.19 0  0.3182030747790592 0.19 0  0.3132592690734012 0.19 0  0.3083154633677581 0.19 0  0.3033716576621197 0.19 0  0.2984278519564813 0.19 0  0.2934840462508429 0.19 0  0.2885402405451874 0.19 0  0.2835964348395295 0.19 0  0.2786526291338716 0.19 0  0.2737088234282243 0.19 0  0.268765017722586 0.19 0  0.2638212120169476 0.19 0  0.2588774063113093 0.19 0  0.2539336006056579 0.19 0  0.6 0.1949999999999783 0  0.6 0.2049999999999729 0  0.2589734265316493 0.2005523893428403 0  0.5431462343853077 0.199999999999969 0  0.5682397894768162 0.1999704585808987 0  0.2774513927118024 0.2007941919421926 0  0.513849583376897 0.1999023426490919 0  0.5286810004937381 0.1999023426490969 0  0.2945108952057646 0.1992911908405386 0  0.5827780831384927 0.1995429801003349 0  0.3104128396569256 0.1999704585808978 0  0.3370001755418551 0.2008294612433967 0  0.4990181662600459 0.1999023426490902 0  0.3552816175709044 0.2000000000000608 0  0.4841867491431925 0.1999023426490849 0  0.3707373713905551 0.2000142376953689 0  0.3898882575102495 0.2000000000000828 0  0.4689857550492734 0.1995416724256694 0  0.4541577316841967 0.1999999999999098 0  0.4043534914018331 0.2000976573509244 0  0.4195510917439569 0.2000000000001057 0  0.4387019778644512 0.1999857623046772 0  0.3202472750256703 0.2000088842146399 0  0.5584053541080851 0.1999911157853577 0  0.4280667146887134 0.1998489048208241 0  0.3467659946265474 0.2001510951794375 0  0.3813726345658908 0.200151095179452 0  0.2860683376922098 0.2000415445706182 0  0.5911223811781194 0.1982449159348744 0  0.2679893161458627 0.201675125646729 0  0.4615734402426278 0.2022503633288003 0  0.4912362744763454 0.2022503633288091 0  0.5060676915931983 0.2022503633288118 0  0.3973039660686774 0.1977496366711965 0  0.4764048573594896 0.2022503633288051 0  0.5208991087100455 0.2022503633288184 0  0.4467420231257656 0.2022503633288 0  0.5357305258268849 0.2022503633288198 0  0.4121353831855317 0.1977496366711976 0  0.3626973261293352 0.1977496366711919 0  0.3033716576618961 0.1977496366711869 0  0.5752809714718229 0.1977496366711503 0  0.550459855919056 0.1971284784737667 0  0.3281927732146841 0.2028715215262406 0  0.5484179020497461 0.2038403215694763 0  0.3302347270839988 0.1961596784305491 0  0.5379210852238114 0.196125181664411 0  0.5230896681069652 0.1961251816644058 0  0.5082582509901222 0.1961251816644098 0  0.5774715308687094 0.2038748183355887 0  0.3011810982649548 0.2038748183355937 0  0.4785954167564111 0.196125181664404 0  0.4934268338732671 0.1961251816644063 0  0.395113406671763 0.2038748183355966 0  0.3605067667324117 0.2038748183355951 0  0.4593828808457146 0.1961251816643993 0  0.4489325825226805 0.1961251816644007 0  0.4099448237886219 0.2038748183355991 0  0.2557862999801971 0.1960858370257295 0  0.2550147360309399 0.2034426429991114 0  0.4348031476464689 0.2037737577641554 0  0.37463620160841 0.1962262422358553 0  0.3406258365864304 0.196046792193989 0  0.2813001681189834 0.1960467921940502 0  0.2912686387439893 0.1960816328649282 0  0.4246705335819892 0.2039532078059544 0  0.350162175732913 0.1960467921941878 0  0.3847688156722694 0.1960467921942359 0  0.316632368538356 0.19615945856337 0  0.5621550011053409 0.2037816492598991 0  0.5624413877019769 0.1960761923611377 0  0.3162395035833128 0.2038679557424692 0  0.2710887134207622 0.1959696443325838 0  0.5873014376403604 0.2047227881030823 0  0.4346679566442709 0.1954651459552513 0  0.4243296504077986 0.1958756980939062 0  0.3402559510833523 0.2047940500290923 0  0.2808684926760933 0.2047742417812656 0  0.2914077033138723 0.2047809517070955 0  0.3747713926104932 0.2045348540448554 0  0.3499216488898867 0.2051753413186305 0  0.3845282888292298 0.205175341318636 0  0.2648144865455052 0.1962089742986374 0  0.5943247643662894 0.2040415423589182 0  0.5320972610456145 0.1956445099050872 0  0.5172658439287727 0.1956445099050854 0  0.3069923255602658 0.2043468033872551 0  0.5024344268119265 0.1956445099050864 0  0.5716603035734351 0.2043468033872761 0  0.4876030096950741 0.1956445099050831 0  0.4728151975296263 0.1956402468909894 0  0.3663301776527538 0.20436745486386 0  0.4651631000724991 0.1956402468909893 0  0.4009372308499527 0.2043554900949198 0  0.4431091716023345 0.1956325451361429 0  0.4157593408842466 0.2043565497109067 0  0.5865057328865416 0.1956918868509067 0  0.5541600609760193 0.2044335994013721 0  0.3244925681577497 0.1955664005986376 0  0.272008018888917 0.2049327968152409 0  0.2633407725863902 0.2042483236346266 0  0.4567948413982566 0.2046536472831198 0  0.4167680012832803 0.1955060004091903 0  0.4716262585151221 0.2046536472831242 0  0.5161054367030595 0.2045563706470633 0  0.4864426024693469 0.2045563706470604 0  0.5012740195862044 0.2045563706470634 0  0.4022810343427545 0.1961423961483001 0  0.4420739040821668 0.2044853411424516 0  0.3673807293464664 0.1955677741328205 0  0.3925253672243162 0.195346352716901 0  0.5405091246712254 0.2046536472831267 0  0.357918727284983 0.1953463527168901 0  0.5307534575528717 0.2038576038516682 0  0.3079697655029555 0.1955637092892754 0  0.2985930588175599 0.1953463527168728 0  0.579671714346879 0.1955441268455555 0  0.5705023726275059 0.1953463527168462 0  0.5112451461103119 0.2035640580783926 0  0.4964137289934448 0.2035640580783915 0  0.4665727251511405 0.2038238154617746 0  0.5259274680675793 0.2038006696000127 0  0.4815823118765752 0.2035640580783898 0  0.4517504165552094 0.2039070625502732 0  0.4071070238280551 0.1961993303999926 0  0.3234846806957546 0.2047001437739977 0  0.5551679484379799 0.1952998562260008 0  0.5457754356464107 0.1954447171286166 0  0.3329307555206357 0.2046017509710421 0  0.4541577316841968 0.1960357661898101 0  0.3358300776141575 0.1950765652117375 0  0.2539718587514912 0.200011552766824 0  0.5826472073721517 0.2039971170156656 0  0.2761021761080182 0.1946948236183283 0  0.3898581462796225 0.2041572776584344 0  0.3552515063402743 0.2041572776584256 0  0.2965028074750666 0.2046578268138723 0  0.4299158836614793 0.1951782397873778 0  0.379426563923736 0.2049969334481307 0  0.2860882692072842 0.2042624797643994 0  0.3449948044168807 0.2051793676155613 0  0.2603922435707652 0.1950997711614917 0  0.5949856943860
[...]
<PointData  Vectors="f_18-1"> 
<DataArray  type="Float64"  Name="f_18-1"  NumberOfComponents="3" format="ascii">-2.9112577349637331e-03 -3.3147879770936584e-02 0.0000000000000000e+00  -5.4967214055590163e-04 -3.3287755723412860e-02 0.0000000000000000e+00  0.0000000000000000e+00 0.0000000000000000e+00 0.0000000000000000e+00  0.0000000000000000e+00 0.0000000000000000e+00 0.0000000000000000e+00  -1.7304383044205946e-03 -3.3217817872332314e-02 0.0000000000000000e+00  0.0000000000000000e+00 0.0000000000000000e+00 0.0000000000000000e+00  0.0000000000000000e+00 0.0000000000000000e+00 0.0000000000000000e+00  0.0000000000000000e+00 0.0000000000000000e+00 0.0000000000000000e+00  0.0000000000000000e+00 0.0000000000000000e+00 0.0000000000000000e+00  5.7769476490892202e-05 -5.1339603304909568e-05 0.0000000000000000e+00  1.1977762381325821e-04 -1.0650362189449222e-04 0.0000000000000000e+00  1.8045808532796172e-04 -1.7626402621655703e-04 0.0000000000000000e+00  2.3676164325637199e-04 -2.9006995210437278e-04 0.0000000000000000e+00  2.8879510696540675e-04 -4.2682337723524332e-04 0.0000000000000000e+00  3.4159784270879371e-04 -5.9635837186987925e-04 0.0000000000000000e+00  3.8778337914939146e-04 -7.8204711646939263e-04 0.0000000000000000e+00  4.2759344197201745e-04 -9.9667630047595873e-04 0.0000000000000000e+00  4.6640916836522962e-04 -1.2333372389613897e-03 0.0000000000000000e+00  5.0072131837365912e-04 -1.4916130016857424e-03 0.0000000000000000e+00  5.3559267176865361e-04 -1.7781467235999475e-03 0.0000000000000000e+00  5.6927923335791709e-04 -2.0688400867229190e-03 0.0000000000000000e+00  5.9438142861202700e-04 -2.3906103131507120e-03 0.0000000000000000e+00  6.2437780550316240e-04 -2.7280682613029716e-03 0.0000000000000000e+00  6.4445227738874110e-04 -3.0800408081982514e-03 0.0000000000000000e+00  6.6420979964553276e-04 -3.4524059792213724e-03 0.0000000000000000e+00  6.8048238209194028e-04 -3.8363595822166184e-03 0.0000000000000000e+00  6.9346587153264086e-04 -4.2396730491405937e-03 0.0000000000000000e+00  7.0251665978755058e-04 -4.6504156060596770e-03 0.0000000000000000e+00  7.0957736169958237e-04 -5.0770139581308871e-03 0.0000000000000000e+00  7.1349701299211769e-04 -5.5142698416042434e-03 0.0000000000000000e+00  7.1420644460889462e-04 -5.9617013998597779e-03 0.0000000000000000e+00  7.1493005742579894e-04 -6.4253540753513088e-03 0.0000000000000000e+00  7.1505423664617977e-04 -6.8911032488168577e-03 0.0000000000000000e+00  7.1103675159397744e-04 -7.3712260328036676e-03 0.0000000000000000e+00  7.0456249487951090e-04 -7.8568491374235560e-03 0.0000000000000000e+00  6.9642963360574777e-04 -8.3526457643248852e-03 0.0000000000000000e+00  6.8620042221974548e-04 -8.8555654026043554e-03 0.0000000000000000e+00  6.7351883931047129e-04 -9.3649894771119652e-03 0.0000000000000000e+00  6.6051877677956647e-04 -9.8846987137552588e-03 0.0000000000000000e+00  6.4700872816828296e-04 -1.0405233712196668e-02 0.0000000000000000e+00  6.2968103271601142e-04 -1.0934598733515564e-02 0.0000000000000000e+00  6.1179748009101520e-04 -1.1470304536248067e-02 0.0000000000000000e+00  5.9339368773929000e-04 -1.2007390551497295e-02 0.0000000000000000e+00  5.7214682196696329e-04 -1.2551564857176090e-02 0.0000000000000000e+00  5.5147463505526005e-04 -1.3098940723533846e-02 0.0000000000000000e+00  5.2824436881345350e-04 -1.3650212794091447e-02 0.0000000000000000e+00  5.0521943071683926e-04 -1.4205725001266488e-02 0.0000000000000000e+00  4.8026697260167110e-04 -1.4763651498861651e-02 0.0000000000000000e+00  4.5433687803880048e-04 -1.5325085840817116e-02 0.0000000000000000e+00  4.2797483649863432e-04 -1.5888825484750561e-02 0.0000000000000000e+00  4.0086080561546177e-04 -1.6455155489587647e-02 0.0000000000000000e+00  3.7251404449430777e-04 -1.7023697291975740e-02 0.0000000000000000e+00  3.4387291083700646e-04 -1.7593857688228531e-02 0.0000000000000000e+00  3.1462844940083833e-04 -1.8165932622124431e-02 0.0000000000000000e+00  2.8452095001617669e-04 -1.8739541417586787e-02 0.0000000000000000e+00  2.5415047257219066e-04 -1.9314325605680745e-02 0.0000000000000000e+00  2.2339751107691637e-04 -1.9890529210103619e-02 0.0000000000000000e+00  1.9206135821012545e-04 -2.0467810121265809e-02 0.0000000000000000e+00  1.6054944448536966e-04 -2.1046036164046787e-02 0.0000000000000000e+00  1.2876141424197899e-04 -2.1625364292585693e-02 0.0000000000000000e+00  9.6498987025582953e-05 -2.2205579012229387e-02 0.0000000000000000e+00  6.4053812568590815e-05 -2.2786504308975049e-02 0.0000000000000000e+00  3.1322035167995106e-05 -2.3368223367220973e-02 0.0000000000000000e+00  -1.8094451101598639e-06 -2.3950524892475556e-02 0.0000000000000000e+00  -3.5110002572801802e-05 -2.4533241471408243e-02 0.0000000000000000e+00  -6.8675223231352026e-05 -2.5116369354433590e-02 0.0000000000000000e+00  -1.0250932197434579e-04 -2.5699733648583134e-02 0.0000000000000000e+00  -1.3653842720563050e-04 -2.6283247701640564e-02 0.0000000000000000e+00  -1.7072489034441679e-04 -2.6866875607810925e-02 0.0000000000000000e+00  -2.0500309641111834e-04 -2.7450552942953333e-02 0.0000000000000000e+00  -2.3932243081649357e-04 -2.8034216073095634e-02 0.0000000000000000e+00  -2.7372660188809255e-04 -2.8617925855369500e-02 0.0000000000000000e+00  -3.0814342923557577e-04 -2.9201628765548923e-02 0.0000000000000000e+00  -3.4259086740897281e-04 -2.9785331613073264e-02 0.0000000000000000e+00  -3.7706391376778802e-04 -3.0369055758207579e-02 0.0000000000000000e+00  -4.1154158369928327e-04 -3.0952768290040556e-02 0.0000000000000000e+00  -4.4604683092646079e-04 -3.1536499252644540e-02 0.0000000000000000e+00  -4.8057014245106623e-04 -3.2120257516540941e-02 0.0000000000000000e+00  -5.1510523813489860e-04 -3.2704006903116214e-02 0.0000000000000000e+00  -2.8766774895042052e-03 -3.2564093475207424e-02 0.0000000000000000e+00  -2.8421142967671254e-03 -3.1980325179431481e-02 0.0000000000000000e+00  -2.8075564393793846e-03 -3.1396567039102763e-02 0.0000000000000000e+00  -2.7730025218174314e-03 -3.0812813672756744e-02 0.0000000000000000e+00  -2.7384561347718519e-03 -3.0229067855044898e-02 0.0000000000000000e+00  -2.7039150834045683e-03 -2.9645332507640568e-02 0.0000000000000000e+00  -2.6693707070569008e-03 -2.9061603056533079e-02 0.0000000000000000e+00  -2.6348104368420287e-03 -2.8477881363419742e-02 0.0000000000000000e+00  -2.6002391410533832e-03 -2.7894153732799579e-02 0.0000000000000000e+00  -2.5656253666487016e-03 -2.7310459060905266e-02 0.0000000000000000e+00  -2.5309573421029353e-03 -2.6726781852368660e-02 0.0000000000000000e+00  -2.4962417862913122e-03 -2.6143195273488289e-02 0.0000000000000000e+00  -2.4613995951480974e-03 -2.5559793970952361e-02 0.0000000000000000e+00  -2.4264348952110185e-03 -2.4976442435457099e-02 0.0000000000000000e+00  -2.3913980968738343e-03 -2.4393467414849636e-02 0.0000000000000000e+00  -2.3561428642183864e-03 -2.3811072756087473e-02 0.0000000000000000e+00  -2.3207194601616537e-03 -2.3228844944096813e-02 0.0000000000000000e+00  -2.2853329361820409e-03 -2.2647463479220240e-02 0.0000000000000000e+00  -2.2496965981529588e-03 -2.2067080728872767e-02 0.0000000000000000e+00  -2.2138820524296343e-03 -2.1486968058725662e-02 0.0000000000000000e+00  -2.1782696330227024e-03 -2.0908154021339654e-02 0.0000000000000000e+00  -2.1423960780469153e-03 -2.0330667068299335e-02 0.0000000000000000e+00  -2.1063300414509347e-03 -1.9753513221532973e-02 0.0000000000000000e+00  -2.0705720775991438e-03 -1.9178013046407889e-02 0.0000000000000000e+00  -2.0344309116355971e-03 -1.8604218634127010e-02 0.0000000000000000e+00  -1.9980434871877495e-03 -1.8031064361696329e-02 0.0000000000000000e+00  -1.9617525724821678e-03 -1.7459703223463414e-02 0.0000000000000000e+00  -1.9249874281158292e-03 -1.6890896389665185e-02 0.0000000000000000e+00  -1.8879937943462558e-03 -1.6322526065606354e-02 0.0000000000000000e+00  -1.8515680856380193e-03 -1.5757219094984211e-02 0.0000000000000000e+00  -1.8140342641697672e-03 -1.5195626313536876e-02 0.0000000000000000e+00  -1.7760119716365573e-03 -1.4634994668111240e-02 0.0000000000000000e+00  -1.7382423511173816e-03 -1.4078653722829706e-02 0.0000000000000000e+00  -1.7006460014350000e-03 -1.3524712502855467e-02 0.0000000000000000e+00  -1.6627350700818152e-03 -1.2974665704164178e-02 0.0000000000000000e+00  -1.6250814727106770e-03 -1.2429781950662425e-02 0.0000000000000000e+00  -1.5860907608436379e-03 -1.1887664027067663e-02 0.0000000000000000e+00  -1.5477366782059984e-03 -1.1351010032186127e-02 0.0000000000000000e+00  -1.5083149611098718e-03 -1.0819104687097245e-02 0.0000000000000000e+00  -1.4681753309392460e-03 -1.0292955298730731e-02 0.0000000000000000e+00  -1.4281365543964463e-03 -9.7732641992352813e-03 0.0000000000000000e+00  -1.3891986308746200e-03 -9.2585250421385063e-03 0.0000000000000000e+00  -1.3503343424326306e-03 -8.7514807507458499e-03 0.0000000000000000e+00  -1.3079156193835828e-03 -8.2500961283650462e-03 0.0000000000000000e+00  -1.2682386430567982e-03 -7.7580390302565251e-03 0.0000000000000000e+00  -1.2250935678615124e-03 -7.2753213908843418e-03 0.0000000000000000e+00  -1.1845930992195586e-03 -6.7998062001848785e-03 0.0000000000000000e+00  -1.1427349375012642e-03 -6.3360784919913003e-03 0.0000000000000000e+00  -1.1023368571133594e-03 -5.8796593700279464e-03 0.0000000000000000e+00  -1.0621383668638499e-03 -5.4353635046683786e-03 0.0000000000000000e+00  -1.0165748692514570e-03 -4.9995932711930152e-03 0.0000000000000000e+00  -9.7528556796219940e-04 -4.5774006768289580e-03 0.0000000000000000e+00  -9.2828551794028966e-04 -4.1696178399007631e-03 0.0000000000000000e+00  -8.8689408220390443e-04 -3.7737139287375380e-03 0.0000000000000000e+00  -8.4291994233947297e-04 -3.3980997129352979e-03 0.0000000000000000e+00  -7.9679116191813334e-04 -3.0272803425269615e-03 0.0000000000000000e+00  -7.5280236882377621e-04 -2.6793175606153932e-03 0.0000000000000000e+00  -7.0041478831411473e-04 -2.3469863210067088e-03 0.0000000000000000e+00  -6.5488967895966179e-04 -2.0311852816832926e-03 0.0000000000000000e+00  -6.0637976615582486e-04 -1.7398750253527315e-03 0.0000000000000000e+00  -5.5918867197411520e-04 -1.4626955663799483e-03 0.0000000000000000e+00  -5.1185438472562154e-04 -1.2102272717697093e-03 0.0000000000000000e+00  -4.5601445415125358e-04 -9.7469759776094237e-04 0.0000000000000000e+00  -4.0824280411713742e-04 -7.6374663191476394e-04 0.0000000000000000e+00  -3.4984425559406542e-04 -5.7632025067490570e-04 0.0000000000000000e+00  -2.9745922018326797e-04 -4.1920320835741844e-04 0.0000000000000000e+00  -2.3542813929764214e-04 -2.8755513173476166e-04 0.0000000000000000e+00  -1.7812720966370099e-04 -1.7597946139635056e-04 0.0000000000000000e+00  -1.2021949267423100e-04 -9.6673405287356112e-05 0.0000000000000000e+00  -6.0307303533544122e-05 -5.4109846895558835e-05 0.0000000000000000e+00  -2.3208373706662955e-03 -3.3182854427870438e-02 0.0000000000000000e+00  -1.1400504998834850e-03 -3.3252781475849397e-02 0.0000000000000000e+00  7.3062826237850284e-06 -5.5627231553513744e-05 0.0000000000000000e+00  -1.3336100152686184e-03 -2.6504815263233551e-02 0.0000000000000000e+00  -1.5120859986206615e-03 -2.9467455579171811e-02 0.0000000000000000e+00  1.9041772286538840e-05 -5.0675955909769855e-04 0.0000000000000000e+00  -1.1415833058784630e-03 -2.3049189177621884e-02 0.0000000000000000e+00  -1.2444115504821242e-03 -2.4796849617884604e-02 0.0000000000000000e+00  -5.4667214570749112e-05 -1.2401461627388269e-03 0.0000000000000000e+00  -1.6640442620068361e-03 -3.1181062629956364e-02 0.0000000000000000e+00  -4.6056811938615213e-05 -2.1571958894501223e-03 0.0000000000000000e+00  -4.9323108502122836e-05 -4.1071844237409779e-03 0.0000000000000000e+00  -1.0394969105821388e-03 -2.1307446641763143e-02 0.0000000000000000e+00  -1.8124407727258839e-04 -5.6825623019182781e-03 0.0000000000000000e+00  -9.3848692290814854e-04 -1.9574231254091193e-02 0.0000000000000000e+00  -2.4703737374758120e-04 -7.1293397531788528e-03 0.0000000000000000e+00  -3.4276535732204969e-04 -9.0480759788745310e-03 0.0000000000000000e+00  -8.7794552627801052e-04 -1.7806438233292456e-02 0.0000000000000000e+00  -7.2729846393568905e-04 -1.6102731823194695e-02 0.0000000000000000e+00  -4.1148949018538270e-04 -1.0565789512531632e-02 0.0000000000000000e+00  -5.1024920488471244e-04 -1.2211950227710796e-02 0.0000000000000000e+00  -6.2966708108347044e-04 -1.4344874769639205e-02 0.0000000000000000e+00  -6.5598956713989814e-05 -2.8213316572978440e-03 0.0000000000000000e+00  -1.4410316039469278e-03 -2.8306408929387575e-02 0.0000000000000000e+00  -5.7828317364303752e-04 -1.3152781483261648e-02 0.0000000000000000e+00  -1.3687785284228275e-04 -4.9269598661213932e-03 0.0000000000000000e+00  -2.8459431006945155e-04 -8.1809179716751373e-03 0.0000000000000000e+00  -1.1927158935938610e-05 -8.5134061866819601e-04 0.0000000000000000e+00  -1.8756078699273878e-03 -3.2157264264339951e-02 0.0000000000000000e+00  3.4378217915932385e-05 -2.3033796504037847e-04 0.0000000000000000e+00  -5.1754704768934220e-04 -1.6969282650744242e-02 0.0000000000000000e+00  -7.1237808829999237e-04 -2.0413122711258586e-02 0.0000000000000000e+00  -8.1255100590641458e-04 -2.2150760332272687e-02 0.0000000000000000e+00  -6.1757471518433045e-04 -9.8074162189521596e-03 0.0000000000000000e+00  -6.1385842789356433e-04 -1.8685015040718286e-02 0.0000000000000000e+00  -9.1407562874862877e-04 -2.3895757104475269e-02 0.0000000000000000e+00  -4.2446393852813155e-04 -1.5270959623164866e-02 0.0000000000000000e+00  -1.0165868204349382e-03 -2.5645175422685070e-02 0.0000000000000000e+00  -7.0919435758792380e-04 -1.1390455226355454e-02 0.0000000000000000e+00  -4.2143339333881673e-04 -6.3562405730947001e-03 0.0000000000000000e+00  -1.5968655647393350e-04 -1.7268238355363200e-03 0.0000000000000000e+00  -1.8234352637578053e-03 -3.0283290784027580e-02 0.0000000000000000e+00  -1.7234740104303192e-03 -2.7348220174259873e-02 0.0000000000000000e+00  1.2654323669555382e-04 -3.4191865895089632e-03 0.0000000000000000e+00  -9.1713302812745131e-04 -2.7154157383745499e-02 0.0000000000000000e+00  -3.8739397707482722e-04 -3.5594923242754993e-03 0.0000000000000000e+00  -1.7541929266677565e-03 -2.5860886035894433e-02 0.0000000000000000e+00  -1.6502280328058322e-03 -2.4111224085668417e-02 0.0000000000000000e+00  -1.5461634168577344e-03 -2.2365657764293886e-02 0.0000000000000000e+00  -1.1155342578130969e-03 -3.0584801184089537e-02 0.0000000000000000e+00  1.8722771798556856e-04 -1.6131169864025457e-03 0.0000000000000000e+00  -1.3388607400719270e-03 -1.8898126613179370e-02 0.0000000000000000e+00  -1.4422950736680208e-03 -2.0627180686884003e-02 0.0000000000000000e+00  3.1740047929799728e-05 -9.6123015129314128e-03 0.0000000000000000e+00  1.5376034933926131e-04 -6.1798716553683819e-03 0.0000000000000000e+00  -1.2060202858601107e-03 -1.6676903370144224e-02 0.0000000000000000e+00  -1.1331965327387511e-03 -1.5480764201639262e-02 0.0000000000000000e+00  -3.7227113739480339e-05 -1.1189803302965554e-02 0.0000000000000000e+00  -2.5696421112611070e-05 -2.4924048417393224e-05 0.0000000000000000e+00  1.9979930080548195e-05 -1.9599684980664163e-05 0.0000000000000000e+00  -1.8198728897419173e-04 -1.3930939062835511e-02 0.0000000000000000e+00  -6.3530188452342120e-04 -7.4937170576772141e-03 0.0000000000000000e+00  -4.5375130202115007e-04 -4.3927297007091476e-03 0.0000000000000000e+00  -1.5453894961207167e-04 -6.5168461839138750e-04 0.0000000000000000e+00  -1.9582211537841386e-04 -1.0824757256181130e-03 0.0000000000000000e+00  -1.0571160427276327e-04 -1.2802526174453998e-02 0.0000000000000000e+00  -5.0552328806469375e-04 -5.2097456267658831e-03 0.0000000000000000e+00  -7.1480235550378489e-04 -8.5041574778161391e-03 0.0000000000000000e+00  -3.1549084370510234e-04 -2.5648464226186232e-03 0.0000000000000000e+00  -1.0197016971906620e-03 -2.8775691494377018e-02 0.0000000000000000e+00  -1.9313722119893217e-03 -2.8755561893506747e-02 0.0000000000000000e+00  2.0004672881792921e-04 -2.5557659314905915e-03 0.0000000000000000e+00  -1.1245341002319446e-04 -3.1721651532508891e-04 0.0000000000000000e+00  -1.0840357148729531e-03 -3.1751408611783369e-02 0.0000000000000000e+00  -1.1098637608444083e-03 -1.3863833601842943e-02 0.0000000000000000e+00  -9.9339665525730969e-04 -1.2714605804261163e-02 0.0000000000000000e+00  2.6816619323534327e-04 -4.3941318870882942e-03 0.0000000000000000e+00  1.6649114942436045e-04 -6.4441050531448784e-04 0.0000000000000000e+00  2.0703574780712848e-04 -1.1023697508535171e-03 0.0000000000000000e+00  1.7469431586343475e-04 -7.5480707303696177e-03 0.0000000000000000e+00  2.8961403588261545e-04 -5.2279326998853340e-03 0.0000000000000000e+00  2.0566752979558103e-04 -8.5290577171117429e-03 0.0000000000000000e+00  -7.1507900140176729e-05 -1.6856761316894241e-04 0.0000000000000000e+00  -1.2135411143346345e-03 -3.2575952586410127e-02 0.0000000000000000e+00  -1.7701192829797457e-03 -2.5170250566757958e-02 0.0000000000000000e+00  -1.6660231913744352e-03 -2.3421880228848658e-02 0.0000000000000000e+00  2.2088634257691313e-04 -1.9585742153062640e-03 0.0000000000000000e+00  -1.5618389914279784e-03 -2.1678819626934968e-02 0.0000000000000000e+00  -1.0192640707271537e-03 -2.9901960220514428e-02 0.0000000000000000e+00  -1.4578845268168972e-03 -1.9943857864340567e-02 0.0000000000000000e+00  -1.3550701752646740e-03 -1.8224205627024048e-02 0.0000000000000000e+00  1.8216773502095136e-04 -6.7300990104482011e-03 0.0000000000000000e+00  -1.3014967525434595e-03 -1.7339332064781915e-02 0.0000000000000000e+00  5.5054230765034907e-05 -1.0228346919523099e-02 0.0000000000000000e+00  -1.1495436283314080e-03 -1.4816371582731389e-02 0.0000000000000000e+00  -1.4885598648047450e-05 -1.1824739060658776e-02 0.0000000000000000e+00  -2.1448088040345536e-03 -3.1594275533491256e-02 0.0000000000000000e+00  -8.8706311304425137e-04 -2.7836278613792780e-02 0.0000000000000000e+00  -4.0071072851599404e-04 -3.1236106501483572e-03 0.0000000000000000e+00  1.3041544696193471e-04 -3.4377869170604502e-04 0.0000000000000000e+00  6.9730645161401934e-05 -1.3518676263820370e-04 0.0000000000000000e+00  -2.1232700689036534e-04 -1.6436210206360782e-02 0.0000000000000000e+00  -9.8257531452987054e-04 -1.1882074161844959e-02 0.0000000000000000e+00  -3.0476898579493019e-04 -1.8147186945275250e-02 0.0000000000000000e+00  -6.0998233269919763e-04 -2.3347295960476890e-02 0.0000000000000000e+00  -4.1177286860729414e-04 -1.9869442735735768e-02 0.0000000000000000e+00  -5.0994547082585913e-04 -2.1604316871726231e-02 0.0000000000000000e+00  -8.1810419294483811e-04 -1.0324174768556444e-02 0.0000000000000000e+00  -1.4373636344712303e-04 -1.4756043772470005e-02 0.0000000000000000e+00  -6.5339315126723523e-04 -6.7904108124956352e-03 0.0000000000000000e+00  -8.3631341157066512e-04 -9.2976165470147771e-03 0.0000000000000000e+00  -7.6625773034032522e-04 -2.6226116467394801e-02 0.0000000000000000e+00  -6.1412187357223562e-04 -5.9063529148321442e-03 0.0000000000000000e+00  -7.9264992261534543e-04 -2.5069081224125170e-02 0.0000000000000000e+00  -3.1043661240703381e-04 -2.0025094920983052e-03 0.0000000000000000e+00  -2.7240181720377581e-04 -1.4572370325043175e-03 0.0000000000000000e+00  -2.1145116453748884e-03 -3.0786299893071072e-02 0.0000000000000000e+00  -2.0738214196771333e-03 -2.9702250300706910e-02 0.0000000000000000e+00  -6.9350461524385939e-04 -2.2768371187303328e-02 0.0000000000000000e+00  -5.9350249178613068e-04 -2.1027803693758514e-02 0.0000000000000000e+00  -3.6823336980867515e-04 -1.7556682151281484e-02 0.0000000000000000e+00  -7.6608798026165054e-04 -2.4499391277504744e-02 0.0000000000000000e+00  -4.9528364653818075e-04 -1.9296060961725509e-02 0.0000000000000000e+00  -2.6647547608669325e-04 -1.5853315766996261e-02 0.0000000000000000e+00  -8.4337001399920704e-04 -1.0839235903744504e-02 0.0000000000000000e+00  2.6275080998204760e-04 -3.0740186195910928e-03 0.0000000000000000e+00  -1.9722053362931260e-03 -2.7891330419870557e-02 0.0000000000000000e+00  -1.8894529002771985e-03 -2.6783373496469486e-02 0.0000000000000000e+00  2.5544286245355463e-04 -3.79622