<?xml version="1.0"?>
<VTKFile type="UnstructuredGrid"  version="0.1"  >
<UnstructuredGrid>
<Piece  NumberOfPoints="439" NumberOfCells="725">
<Points>
<DataArray  type="Float64"  NumberOfComponents="3"  format="ascii">0.6 0.19 0  0.6 0.21 0  0.2489897949 0.21 0  0.2489897949 0.19 0  0.6 0.2 0  0.2496355385699469 0.2060260530378829 0  0.249959460510575 0.2020130349814059 0  0.2499594605105767 0.1979869650186357 0  0.24963553856995 0.1939739469621422 0  0.2539336006056293 0.21 0  0.2588774063112542 0.21 0  0.2638212120168921 0.21 0  0.26876501772253 0.21 0  0.2737088234281569 0.21 0  0.2786526291337753 0.21 0  0.2835964348393937 0.21 0  0.2885402405450166 0.21 0  0.2934840462506522 0.21 0  0.2984278519562708 0.21 0  0.3033716576618997 0.21 0  0.3083154633675181 0.21 0  0.3132592690731365 0.21 0  0.3182030747787549 0.21 0  0.3231468804843732 0.21 0  0.3280906861899917 0.21 0  0.3330344918956208 0.21 0  0.3379782976012284 0.21 0  0.3429221033068576 0.21 0  0.347865909012476 0.21 0  0.3528097147180944 0.21 0  0.3577535204237128 0.21 0  0.3626973261293311 0.21 0  0.3676411318349495 0.21 0  0.3725849375405788 0.21 0  0.3775287432461877 0.21 0  0.382472548951812 0.21 0  0.3874163546574338 0.21 0  0.3923601603630631 0.21 0  0.3973039660686706 0.21 0  0.4022477717742986 0.21 0  0.4071915774799107 0.21 0  0.4121353831855311 0.21 0  0.4170791888911518 0.21 0  0.4220229945967636 0.21 0  0.4269668003023918 0.21 0  0.4319106060080253 0.21 0  0.4368544117136773 0.21 0  0.4417982174193329 0.21 0  0.4467420231249967 0.21 0  0.4516858288306445 0.21 0  0.4566296345362864 0.21 0  0.461573440241916 0.21 0  0.4665172459475665 0.21 0  0.4714610516531998 0.21 0  0.4764048573588668 0.21 0  0.4813486630645134 0.21 0  0.486292468770176 0.21 0  0.4912362744758066 0.21 0  0.4961800801814611 0.21 0  0.5011238858870897 0.21 0  0.5060676915927493 0.21 0  0.5110114972983872 0.21 0  0.5159553030040036 0.21 0  0.5208991087096415 0.21 0  0.5258429144153002 0.21 0  0.5307867201209391 0.21 0  0.5357305258265987 0.21 0  0.5406743315322367 0.21 0  0.5456181372378529 0.21 0  0.5505619429434908 0.21 0  0.5555057486491456 0.21 0  0.5604495543547885 0.21 0  0.565393360060448 0.21 0  0.5703371657661116 0.21 0  0.5752809714717458 0.21 0  0.5802247771773834 0.21 0  0.5851685828830341 0.21 0  0.5901123885886809 0.21 0  0.5950561942943404 0.21 0  0.5950561942943833 0.19 0  0.590112388588758 0.19 0  0.5851685828831193 0.19 0  0.5802247771774727 0.19 0  0.5752809714718514 0.19 0  0.5703371657662308 0.19 0  0.565393360060618 0.19 0  0.5604495543549889 0.19 0  0.5555057486493581 0.19 0  0.5505619429437035 0.19 0  0.5456181372381043 0.19 0  0.540674331532505 0.19 0  0.5357305258268962 0.19 0  0.530786720121263 0.19 0  0.5258429144156628 0.19 0  0.5208991087100244 0.19 0  0.5159553030044218 0.19 0  0.5110114972988226 0.19 0  0.5060676915932177 0.19 0  0.5011238858875806 0.19 0  0.496180080181972 0.19 0  0.4912362744763531 0.19 0  0.4862924687707343 0.19 0  0.4813486630651046 0.19 0  0.4764048573594966 0.19 0  0.4714610516538683 0.19 0  0.4665172459482555 0.19 0  0.4615734402426349 0.19 0  0.4566296345370104 0.19 0  0.4516858288313808 0.19 0  0.4467420231257716 0.19 0  0.4417982174201465 0.19 0  0.4368544117145297 0.19 0  0.4319106060089131 0.19 0  0.4269668003032866 0.19 0  0.4220229945976482 0.19 0  0.4170791888920056 0.19 0  0.4121353831863594 0.19 0  0.4071915774806995 0.19 0  0.4022477717750478 0.19 0  0.3973039660693901 0.19 0  0.3923601603637548 0.19 0  0.3874163546581082 0.19 0  0.3824725489524824 0.19 0  0.3775287432468258 0.19 0  0.3725849375411773 0.19 0  0.3676411318355085 0.19 0  0.3626973261298614 0.19 0  0.3577535204242108 0.19 0  0.352809714718589 0.19 0  0.347865909012931 0.19 0  0.342922103307292 0.19 0  0.3379782976016536 0.19 0  0.3330344918960152 0.19 0  0.3280906861903751 0.19 0  0.3231468804847171 0.19 0  0.3182030747790592 0.19 0  0.3132592690734012 0.19 0  0.3083154633677581 0.19 0  0.3033716576621197 0.19 0  0.2984278519564813 0.19 0  0.2934840462508429 0.19 0  0.2885402405451874 0.19 0  0.2835964348395295 0.19 0  0.2786526291338716 0.19 0  0.2737088234282243 0.19 0  0.268765017722586 0.19 0  0.2638212120169476 0.19 0  0.2588774063113093 0.19 0  0.2539336006056579 0.19 0  0.6 0.1949999999999783 0  0.6 0.2049999999999729 0  0.2589734265316493 0.2005523893428403 0  0.5431462343853077 0.199999999999969 0  0.5682397894768162 0.1999704585808987 0  0.2774513927118024 0.2007941919421926 0  0.513849583376897 0.1999023426490919 0  0.5286810004937381 0.1999023426490969 0  0.2945108952057646 0.1992911908405386 0  0.5827780831384927 0.1995429801003349 0  0.3104128396569256 0.1999704585808978 0  0.3370001755418551 0.2008294612433967 0  0.4990181662600459 0.1999023426490902 0  0.3552816175709044 0.2000000000000608 0  0.4841867491431925 0.1999023426490849 0  0.3707373713905551 0.2000142376953689 0  0.3898882575102495 0.2000000000000828 0  0.4689857550492734 0.1995416724256694 0  0.4541577316841967 0.1999999999999098 0  0.4043534914018331 0.2000976573509244 0  0.4195510917439569 0.2000000000001057 0  0.4387019778644512 0.1999857623046772 0  0.3202472750256703 0.2000088842146399 0  0.5584053541080851 0.1999911157853577 0  0.4280667146887134 0.1998489048208241 0  0.3467659946265474 0.2001510951794375 0  0.3813726345658908 0.200151095179452 0  0.2860683376922098 0.2000415445706182 0  0.5911223811781194 0.1982449159348744 0  0.2679893161458627 0.201675125646729 0  0.4615734402426278 0.2022503633288003 0  0.4912362744763454 0.2022503633288091 0  0.5060676915931983 0.2022503633288118 0  0.3973039660686774 0.1977496366711965 0  0.4764048573594896 0.2022503633288051 0  0.5208991087100455 0.2022503633288184 0  0.4467420231257656 0.2022503633288 0  0.5357305258268849 0.2022503633288198 0  0.4121353831855317 0.1977496366711976 0  0.3626973261293352 0.1977496366711919 0  0.3033716576618961 0.1977496366711869 0  0.5752809714718229 0.1977496366711503 0  0.550459855919056 0.1971284784737667 0  0.3281927732146841 0.2028715215262406 0  0.5484179020497461 0.2038403215694763 0  0.3302347270839988 0.1961596784305491 0  0.5379210852238114 0.196125181664411 0  0.5230896681069652 0.1961251816644058 0  0.5082582509901222 0.1961251816644098 0  0.5774715308687094 0.2038748183355887 0  0.3011810982649548 0.2038748183355937 0  0.4785954167564111 0.196125181664404 0  0.4934268338732671 0.1961251816644063 0  0.395113406671763 0.2038748183355966 0  0.3605067667324117 0.2038748183355951 0  0.4593828808457146 0.1961251816643993 0  0.4489325825226805 0.1961251816644007 0  0.4099448237886219 0.2038748183355991 0  0.2557862999801971 0.1960858370257295 0  0.2550147360309399 0.2034426429991114 0  0.4348031476464689 0.2037737577641554 0  0.37463620160841 0.1962262422358553 0  0.3406258365864304 0.196046792193989 0  0.2813001681189834 0.1960467921940502 0  0.2912686387439893 0.1960816328649282 0  0.4246705335819892 0.2039532078059544 0  0.350162175732913 0.1960467921941878 0  0.3847688156722694 0.1960467921942359 0  0.316632368538356 0.19615945856337 0  0.5621550011053409 0.2037816492598991 0  0.5624413877019769 0.1960761923611377 0  0.3162395035833128 0.2038679557424692 0  0.2710887134207622 0.1959696443325838 0  0.5873014376403604 0.2047227881030823 0  0.4346679566442709 0.1954651459552513 0  0.4243296504077986 0.1958756980939062 0  0.3402559510833523 0.2047940500290923 0  0.2808684926760933 0.2047742417812656 0  0.2914077033138723 0.2047809517070955 0  0.3747713926104932 0.2045348540448554 0  0.3499216488898867 0.2051753413186305 0  0.3845282888292298 0.205175341318636 0  0.2648144865455052 0.1962089742986374 0  0.5943247643662894 0.2040415423589182 0  0.5320972610456145 0.1956445099050872 0  0.5172658439287727 0.1956445099050854 0  0.3069923255602658 0.2043468033872551 0  0.5024344268119265 0.1956445099050864 0  0.5716603035734351 0.2043468033872761 0  0.4876030096950741 0.1956445099050831 0  0.4728151975296263 0.1956402468909894 0  0.3663301776527538 0.20436745486386 0  0.4651631000724991 0.1956402468909893 0  0.4009372308499527 0.2043554900949198 0  0.4431091716023345 0.1956325451361429 0  0.4157593408842466 0.2043565497109067 0  0.5865057328865416 0.1956918868509067 0  0.5541600609760193 0.2044335994013721 0  0.3244925681577497 0.1955664005986376 0  0.272008018888917 0.2049327968152409 0  0.2633407725863902 0.2042483236346266 0  0.4567948413982566 0.2046536472831198 0  0.4167680012832803 0.1955060004091903 0  0.4716262585151221 0.2046536472831242 0  0.5161054367030595 0.2045563706470633 0  0.4864426024693469 0.2045563706470604 0  0.5012740195862044 0.2045563706470634 0  0.4022810343427545 0.1961423961483001 0  0.4420739040821668 0.2044853411424516 0  0.3673807293464664 0.1955677741328205 0  0.3925253672243162 0.195346352716901 0  0.5405091246712254 0.2046536472831267 0  0.357918727284983 0.1953463527168901 0  0.5307534575528717 0.2038576038516682 0  0.3079697655029555 0.1955637092892754 0  0.2985930588175599 0.1953463527168728 0  0.579671714346879 0.1955441268455555 0  0.5705023726275059 0.1953463527168462 0  0.5112451461103119 0.2035640580783926 0  0.4964137289934448 0.2035640580783915 0  0.4665727251511405 0.2038238154617746 0  0.5259274680675793 0.2038006696000127 0  0.4815823118765752 0.2035640580783898 0  0.4517504165552094 0.2039070625502732 0  0.4071070238280551 0.1961993303999926 0  0.3234846806957546 0.2047001437739977 0  0.5551679484379799 0.1952998562260008 0  0.5457754356464107 0.1954447171286166 0  0.3329307555206357 0.2046017509710421 0  0.4541577316841968 0.1960357661898101 0  0.3358300776141575 0.1950765652117375 0  0.2539718587514912 0.200011552766824 0  0.5826472073721517 0.2039971170156656 0  0.2761021761080182 0.1946948236183283 0  0.3898581462796225 0.2041572776584344 0  0.3552515063402743 0.2041572776584256 0  0.2965028074750666 0.2046578268138723 0  0.4299158836614793 0.1951782397873778 0  0.379426563923736 0.2049969334481307 0  0.2860882692072842 0.2042624797643994 0  0.3449948044168807 0.2051793676155613 0  0.2603922435707652 0.1950997711614917 0  0.5949856943860
[...]
<PointData  Vectors="f_18-1"> 
<DataArray  type="Float64"  Name="f_18-1"  NumberOfComponents="3" format="ascii">-2.6963976533381912e-02 -1.1455529845323358e-01 0.0000000000000000e+00  -1.8273060756917366e-02 -1.1654248153082090e-01 0.0000000000000000e+00  0.0000000000000000e+00 0.0000000000000000e+00 0.0000000000000000e+00  0.0000000000000000e+00 0.0000000000000000e+00 0.0000000000000000e+00  -2.2618475273860007e-02 -1.1554889568763857e-01 0.0000000000000000e+00  0.0000000000000000e+00 0.0000000000000000e+00 0.0000000000000000e+00  0.0000000000000000e+00 0.0000000000000000e+00 0.0000000000000000e+00  0.0000000000000000e+00 0.0000000000000000e+00 0.0000000000000000e+00  0.0000000000000000e+00 0.0000000000000000e+00 0.0000000000000000e+00  1.5743781344101481e-04 -1.3867995715278138e-04 0.0000000000000000e+00  3.2999049834442178e-04 -2.9207871486157367e-04 0.0000000000000000e+00  4.9961444410166029e-04 -4.8830460003129641e-04 0.0000000000000000e+00  6.5555396191618832e-04 -8.1438831383057316e-04 0.0000000000000000e+00  7.9875735571323110e-04 -1.2113480333483112e-03 0.0000000000000000e+00  9.4150468400443904e-04 -1.7082061244930637e-03 0.0000000000000000e+00  1.0630332709615560e-03 -2.2570572728117452e-03 0.0000000000000000e+00  1.1609458293531756e-03 -2.8961281787449975e-03 0.0000000000000000e+00  1.2518864098440372e-03 -3.6071962004395391e-03 0.0000000000000000e+00  1.3238263584003924e-03 -4.3892993339681909e-03 0.0000000000000000e+00  1.3896102465425582e-03 -5.2676604764567616e-03 0.0000000000000000e+00  1.4515291942087316e-03 -6.1619517356021978e-03 0.0000000000000000e+00  1.4742687396665055e-03 -7.1606589667588825e-03 0.0000000000000000e+00  1.5079713846135670e-03 -8.2189308191287329e-03 0.0000000000000000e+00  1.5018694810965379e-03 -9.3260366497969864e-03 0.0000000000000000e+00  1.4847365056284870e-03 -1.0509538068906565e-02 0.0000000000000000e+00  1.4498209564705832e-03 -1.1735631459332740e-02 0.0000000000000000e+00  1.3919462226671369e-03 -1.3033953668550367e-02 0.0000000000000000e+00  1.3150349506221518e-03 -1.4360969349760080e-02 0.0000000000000000e+00  1.2205552317387735e-03 -1.5749392180193712e-02 0.0000000000000000e+00  1.1068082944393194e-03 -1.7179344737769824e-02 0.0000000000000000e+00  9.7278456540521535e-04 -1.8649822837479683e-02 0.0000000000000000e+00  8.2602357129893454e-04 -2.0189111274111937e-02 0.0000000000000000e+00  6.7578806414377815e-04 -2.1738431726484837e-02 0.0000000000000000e+00  4.9586718490928253e-04 -2.3346351613177409e-02 0.0000000000000000e+00  3.0024894099707142e-04 -2.4977965885084732e-02 0.0000000000000000e+00  8.7927872312509064e-05 -2.6653758281701925e-02 0.0000000000000000e+00  -1.4064204886477823e-04 -2.8360556151715288e-02 0.0000000000000000e+00  -3.8716123968491370e-04 -3.0095925253577797e-02 0.0000000000000000e+00  -6.4651478956810398e-04 -3.1880536703902840e-02 0.0000000000000000e+00  -9.0853474657723147e-04 -3.3669621446945144e-02 0.0000000000000000e+00  -1.1992957533106263e-03 -3.5497917625166055e-02 0.0000000000000000e+00  -1.5008961145798272e-03 -3.7359132160084275e-02 0.0000000000000000e+00  -1.8065061814154235e-03 -3.9227652368329903e-02 0.0000000000000000e+00  -2.1363081202084382e-03 -4.1130203754651276e-02 0.0000000000000000e+00  -2.4673650141910195e-03 -4.3051784873984124e-02 0.0000000000000000e+00  -2.8178761877940260e-03 -4.4991973167555516e-02 0.0000000000000000e+00  -3.1732749866423223e-03 -4.6956969783150865e-02 0.0000000000000000e+00  -3.5432711067458259e-03 -4.8933550792555590e-02 0.0000000000000000e+00  -3.9245317994087963e-03 -5.0929961044199001e-02 0.0000000000000000e+00  -4.3118579257526608e-03 -5.2940618626930259e-02 0.0000000000000000e+00  -4.7077065207022572e-03 -5.4967125127526342e-02 0.0000000000000000e+00  -5.1154329842054425e-03 -5.7006548405555489e-02 0.0000000000000000e+00  -5.5280500864964008e-03 -5.9057701683868417e-02 0.0000000000000000e+00  -5.9483632558512411e-03 -6.1121867444962383e-02 0.0000000000000000e+00  -6.3783641766687986e-03 -6.3196164942744729e-02 0.0000000000000000e+00  -6.8130549505968875e-03 -6.5279373214660194e-02 0.0000000000000000e+00  -7.2540021934237526e-03 -6.7372681892734876e-02 0.0000000000000000e+00  -7.7022224880257230e-03 -6.9473013233544795e-02 0.0000000000000000e+00  -8.1542332992780905e-03 -7.1580026693960686e-02 0.0000000000000000e+00  -8.6110904464224425e-03 -7.3694466626625654e-02 0.0000000000000000e+00  -9.0735615555484969e-03 -7.5814066029258526e-02 0.0000000000000000e+00  -9.5389690116843891e-03 -7.7938410036313008e-02 0.0000000000000000e+00  -1.0008123359918278e-02 -8.0068025190025802e-02 0.0000000000000000e+00  -1.0481431179753468e-02 -8.2201139535631740e-02 0.0000000000000000e+00  -1.0956768591720395e-02 -8.4337652862461587e-02 0.0000000000000000e+00  -1.1434870162019021e-02 -8.6477556314130830e-02 0.0000000000000000e+00  -1.1915667035023222e-02 -8.8619796360733027e-02 0.0000000000000000e+00  -1.2398671321221227e-02 -9.0763688889957714e-02 0.0000000000000000e+00  -1.2883872526117893e-02 -9.2909560555836115e-02 0.0000000000000000e+00  -1.3370499928687335e-02 -9.5057036880843937e-02 0.0000000000000000e+00  -1.3857652635766328e-02 -9.7204574629896637e-02 0.0000000000000000e+00  -1.4346622493255811e-02 -9.9353305845112344e-02 0.0000000000000000e+00  -1.4836071905209422e-02 -1.0150229848301774e-01 0.0000000000000000e+00  -1.5326332761500427e-02 -1.0365124784277187e-01 0.0000000000000000e+00  -1.5817178895887490e-02 -1.0580012676387238e-01 0.0000000000000000e+00  -1.6308199181084688e-02 -1.0794887109287751e-01 0.0000000000000000e+00  -1.6799378902042413e-02 -1.1009738853173630e-01 0.0000000000000000e+00  -1.7290614018771754e-02 -1.1224579426177997e-01 0.0000000000000000e+00  -1.7781847400763818e-02 -1.1439413689547870e-01 0.0000000000000000e+00  -2.6472765118282060e-02 -1.1240694620455741e-01 0.0000000000000000e+00  -2.5981541159658814e-02 -1.1025860208076649e-01 0.0000000000000000e+00  -2.5490269254097305e-02 -1.0811020392807391e-01 0.0000000000000000e+00  -2.4998878086140239e-02 -1.0596167174463413e-01 0.0000000000000000e+00  -2.4507356616589409e-02 -1.0381311736997480e-01 0.0000000000000000e+00  -2.4015575778329131e-02 -1.0166452201789268e-01 0.0000000000000000e+00  -2.3523534996066579e-02 -9.9516332396302754e-02 0.0000000000000000e+00  -2.3031079545665547e-02 -9.7368753247985440e-02 0.0000000000000000e+00  -2.2538554369062911e-02 -9.5221686739771050e-02 0.0000000000000000e+00  -2.2045858670418937e-02 -9.3076301835383859e-02 0.0000000000000000e+00  -2.1552903897489085e-02 -9.0931988587659704e-02 0.0000000000000000e+00  -2.1060545927513802e-02 -8.8789938945753558e-02 0.0000000000000000e+00  -2.0568250535520603e-02 -8.6651184907387616e-02 0.0000000000000000e+00  -2.0075355077433358e-02 -8.4513477696989012e-02 0.0000000000000000e+00  -1.9584029194135953e-02 -8.2379990885593710e-02 0.0000000000000000e+00  -1.9093080856979770e-02 -8.0252006130890688e-02 0.0000000000000000e+00  -1.8601566026095657e-02 -7.8125668287677016e-02 0.0000000000000000e+00  -1.8113061128113329e-02 -7.6005696783976187e-02 0.0000000000000000e+00  -1.7625232603651699e-02 -7.3893505076507965e-02 0.0000000000000000e+00  -1.7136780613592001e-02 -7.1783597164920956e-02 0.0000000000000000e+00  -1.6652904299650908e-02 -6.9682641350844898e-02 0.0000000000000000e+00  -1.6170161422646153e-02 -6.7592242934209179e-02 0.0000000000000000e+00  -1.5686746339330492e-02 -6.5504874755263037e-02 0.0000000000000000e+00  -1.5209724961114056e-02 -6.3429413863385992e-02 0.0000000000000000e+00  -1.4734331058719234e-02 -6.1368064325095922e-02 0.0000000000000000e+00  -1.4258945156268011e-02 -5.9312085507430320e-02 0.0000000000000000e+00  -1.3789458996231812e-02 -5.7269659272604287e-02 0.0000000000000000e+00  -1.3323415654697109e-02 -5.5246133866959764e-02 0.0000000000000000e+00  -1.2857716458483867e-02 -5.3226257000543613e-02 0.0000000000000000e+00  -1.2403590108745217e-02 -5.1225503582423101e-02 0.0000000000000000e+00  -1.1951013077214851e-02 -4.9250084340175887e-02 0.0000000000000000e+00  -1.1497973983838724e-02 -4.7280839457239841e-02 0.0000000000000000e+00  -1.1055786753835589e-02 -4.5336765550410003e-02 0.0000000000000000e+00  -1.0619480554645733e-02 -4.3405584287655494e-02 0.0000000000000000e+00  -1.0189097086201806e-02 -4.1496902085902794e-02 0.0000000000000000e+00  -9.7693900653534251e-03 -3.9615680958527993e-02 0.0000000000000000e+00  -9.3478027307646230e-03 -3.7751353030635232e-02 0.0000000000000000e+00  -8.9388201548461239e-03 -3.5914726278715114e-02 0.0000000000000000e+00  -8.5323728225388095e-03 -3.4103611021301099e-02 0.0000000000000000e+00  -8.1318563693218542e-03 -3.2322128425641375e-02 0.0000000000000000e+00  -7.7420118095150800e-03 -3.0571491764026095e-02 0.0000000000000000e+00  -7.3652028378081357e-03 -2.8842886155375197e-02 0.0000000000000000e+00  -6.9993179763691571e-03 -2.7149984414188012e-02 0.0000000000000000e+00  -6.6246977868732893e-03 -2.5487215012051218e-02 0.0000000000000000e+00  -6.2746180176091347e-03 -2.3862504444187239e-02 0.0000000000000000e+00  -5.9206173376061049e-03 -2.2282858368862818e-02 0.0000000000000000e+00  -5.5869840196336095e-03 -2.0731059945196917e-02 0.0000000000000000e+00  -5.2601233065023125e-03 -1.9230328402522395e-02 0.0000000000000000e+00  -4.9481087104011143e-03 -1.7758448517089329e-02 0.0000000000000000e+00  -4.6491763824717059e-03 -1.6335942478505044e-02 0.0000000000000000e+00  -4.3367854487387962e-03 -1.4952262894579621e-02 0.0000000000000000e+00  -4.0545386129677242e-03 -1.3617832809803106e-02 0.0000000000000000e+00  -3.7626476490146897e-03 -1.2343787469529235e-02 0.0000000000000000e+00  -3.5027057166202189e-03 -1.1109927932139349e-02 0.0000000000000000e+00  -3.2482390254449135e-03 -9.9528752844149412e-03 0.0000000000000000e+00  -2.9899038424309799e-03 -8.8134771848943048e-03 0.0000000000000000e+00  -2.7554607790966561e-03 -7.7557644518908139e-03 0.0000000000000000e+00  -2.5007443486370876e-03 -6.7565212553940893e-03 0.0000000000000000e+00  -2.2808731021122177e-03 -5.8107390127920579e-03 0.0000000000000000e+00  -2.0638431201050345e-03 -4.9488043008057278e-03 0.0000000000000000e+00  -1.8594696858183647e-03 -4.1324145298023349e-03 0.0000000000000000e+00  -1.6659705810877661e-03 -3.3968910000648825e-03 0.0000000000000000e+00  -1.4518866806027986e-03 -2.7178357819776641e-03 0.0000000000000000e+00  -1.2741249419378538e-03 -2.1124382895651413e-03 0.0000000000000000e+00  -1.0710924358978480e-03 -1.5829296951336109e-03 0.0000000000000000e+00  -8.9606246746053023e-04 -1.1422514300698354e-03 0.0000000000000000e+00  -6.9905441102897372e-04 -7.7853997406758589e-04 0.0000000000000000e+00  -5.2146274648967876e-04 -4.7147520360626093e-04 0.0000000000000000e+00  -3.4754846413127203e-04 -2.5663917023510246e-04 0.0000000000000000e+00  -1.7263542859837834e-04 -1.4686188095260603e-04 0.0000000000000000e+00  -2.4791197205438004e-02 -1.1505210093082407e-01 0.0000000000000000e+00  -2.0445794324573760e-02 -1.1604568190925724e-01 0.0000000000000000e+00  1.5852080870751298e-05 -1.4227516996226025e-04 0.0000000000000000e+00  -1.6972939015924959e-02 -9.0845915901332300e-02 0.0000000000000000e+00  -1.9475051576351540e-02 -1.0174286224964951e-01 0.0000000000000000e+00  1.4064989845823858e-05 -1.4113794711474105e-03 0.0000000000000000e+00  -1.4139614178173134e-02 -7.8175143466278296e-02 0.0000000000000000e+00  -1.5588610317080682e-02 -8.4570997772054068e-02 0.0000000000000000e+00  -2.9900040050216323e-04 -3.5432120091041124e-03 0.0000000000000000e+00  -2.1105761988449732e-02 -1.0801945556917279e-01 0.0000000000000000e+00  -4.3925087249415925e-04 -6.3028973366227713e-03 0.0000000000000000e+00  -9.3284978780425545e-04 -1.2384184162233294e-02 0.0000000000000000e+00  -1.2710750881278640e-02 -7.1821865641317151e-02 0.0000000000000000e+00  -1.8543336094404277e-03 -1.7421319716991492e-02 0.0000000000000000e+00  -1.1310115730733638e-02 -6.5528361195763926e-02 0.0000000000000000e+00  -2.5951722279524605e-03 -2.2158243950658216e-02 0.0000000000000000e+00  -3.7014904019679663e-03 -2.8570332274946635e-02 0.0000000000000000e+00  -1.0062551989581262e-02 -5.9128759865843608e-02 0.0000000000000000e+00  -8.5612041664129505e-03 -5.3069947881787496e-02 0.0000000000000000e+00  -4.6153556746575284e-03 -3.3729732132050008e-02 0.0000000000000000e+00  -5.7477611720927330e-03 -3.9395015423242655e-02 0.0000000000000000e+00  -7.2612591076568903e-03 -4.6846813298536634e-02 0.0000000000000000e+00  -6.4603383505122355e-04 -8.3395027090710123e-03 0.0000000000000000e+00  -1.8488991289468036e-02 -9.7470553766168561e-02 0.0000000000000000e+00  -6.4594777096714457e-03 -4.2661289447964511e-02 0.0000000000000000e+00  -1.4613051505288999e-03 -1.4984126874015664e-02 0.0000000000000000e+00  -3.1394216519433343e-03 -2.5661540478218555e-02 0.0000000000000000e+00  -1.1761608807183183e-04 -2.4074255723740643e-03 0.0000000000000000e+00  -2.2499051487864859e-02 -1.1151671305258712e-01 0.0000000000000000e+00  8.2355395329218695e-05 -6.2798650188786512e-04 0.0000000000000000e+00  -8.2878037368804194e-03 -5.6304955413174151e-02 0.0000000000000000e+00  -1.0978744261293395e-02 -6.8732881310226285e-02 0.0000000000000000e+00  -1.2383813245264630e-02 -7.5061497266549718e-02 0.0000000000000000e+00  -4.9758792518430602e-03 -3.1036685954745648e-02 0.0000000000000000e+00  -9.6096737901725706e-03 -6.2472803079714950e-02 0.0000000000000000e+00  -1.3815971065252968e-02 -8.1440047117389724e-02 0.0000000000000000e+00  -7.0256232105480867e-03 -5.0255344674071695e-02 0.0000000000000000e+00  -1.5267355435883777e-02 -8.7853138217917140e-02 0.0000000000000000e+00  -6.0383162461724298e-03 -3.6441745618670918e-02 0.0000000000000000e+00  -2.8832170048644027e-03 -1.9542254990663505e-02 0.0000000000000000e+00  -7.0209686851595082e-04 -4.9799201475397041e-03 0.0000000000000000e+00  -2.1139716944340657e-02 -1.0458283472249010e-01 0.0000000000000000e+00  -1.8942333946864655e-02 -9.3736078420530874e-02 0.0000000000000000e+00  -1.9132502797483575e-04 -1.0255521735575174e-02 0.0000000000000000e+00  -1.5829867878321191e-02 -9.3513983325397537e-02 0.0000000000000000e+00  -1.8518831413828853e-03 -1.0564576029954880e-02 0.0000000000000000e+00  -1.8133190802344379e-02 -8.8199401070718914e-02 0.0000000000000000e+00  -1.6667437123208208e-02 -8.1788070530220316e-02 0.0000000000000000e+00  -1.5214175910897651e-02 -7.5412012804836490e-02 0.0000000000000000e+00  -1.8696276538668524e-02 -1.0614341670914523e-01 0.0000000000000000e+00  3.7014703373699131e-04 -4.6989679633301128e-03 0.0000000000000000e+00  -1.2371423225023362e-02 -6.2831312504310996e-02 0.0000000000000000e+00  -1.3779624828697365e-02 -6.9086801389090027e-02 0.0000000000000000e+00  -2.6694331376001810e-03 -3.0657221099549627e-02 0.0000000000000000e+00  -9.2669782649543414e-04 -1.9167608918693256e-02 0.0000000000000000e+00  -1.0604742378360746e-02 -5.4868687087363158e-02 0.0000000000000000e+00  -9.6701968711081047e-03 -5.0624332746338312e-02 0.0000000000000000e+00  -3.6123693416068568e-03 -3.6064813744485204e-02 0.0000000000000000e+00  -7.6280162092850069e-05 -6.0727401941782148e-05 0.0000000000000000e+00  5.4024970465551917e-05 -4.7087011846648633e-05 0.0000000000000000e+00  -5.4616406814925892e-03 -4.5613121711669355e-02 0.0000000000000000e+00  -4.0365825488900640e-03 -2.3222811781571064e-02 0.0000000000000000e+00  -2.3133704237981640e-03 -1.3177708483022360e-02 0.0000000000000000e+00  -5.1166109445691230e-04 -1.8121617880752785e-03 0.0000000000000000e+00  -6.9601129529724116e-04 -3.0604107495185496e-03 0.0000000000000000e+00  -4.6257640562898548e-03 -4.1668521521987210e-02 0.0000000000000000e+00  -2.7481134980407874e-03 -1.5781166572708411e-02 0.0000000000000000e+00  -4.7272869138393712e-03 -2.6574834945676532e-02 0.0000000000000000e+00  -1.3621876989561470e-03 -7.4944242053227601e-03 0.0000000000000000e+00  -1.7215530393744103e-02 -9.9476417766176814e-02 0.0000000000000000e+00  -2.0590054194378885e-02 -9.8836221058645035e-02 0.0000000000000000e+00  2.3533689609477528e-04 -7.5791816498350633e-03 0.0000000000000000e+00  -3.5052317400119566e-04 -8.6365523043130247e-04 0.0000000000000000e+00  -1.9304532429490838e-02 -1.1049989452208443e-01 0.0000000000000000e+00  -8.7088890017615571e-03 -4.4896824914578026e-02 0.0000000000000000e+00  -7.6945485680338706e-03 -4.0915869227901039e-02 0.0000000000000000e+00  -7.2952486921336396e-07 -1.3396464543341360e-02 0.0000000000000000e+00  4.3104876592965277e-04 -1.8254795135272317e-03 0.0000000000000000e+00  5.0089678143683692e-04 -3.1750624341590995e-03 0.0000000000000000e+00  -1.3505621849997465e-03 -2.3721285778834970e-02 0.0000000000000000e+00  -1.7721742013920047e-04 -1.6098606745954147e-02 0.0000000000000000e+00  -1.6302428615570348e-03 -2.7042406131188294e-02 0.0000000000000000e+00  -2.1808203710986084e-04 -4.5154241626720000e-04 0.0000000000000000e+00  -2.0298399160719464e-02 -1.1348426782534303e-01 0.0000000000000000e+00  -1.7764934771829249e-02 -8.5631581588849301e-02 0.0000000000000000e+00  -1.6302811242333556e-02 -7.9233035245016542e-02 0.0000000000000000e+00  4.1339911669012664e-04 -5.7520072340559785e-03 0.0000000000000000e+00  -1.4854941979530344e-02 -7.2875749387468339e-02 0.0000000000000000e+00  -1.7913918227757491e-02 -1.0366439406672597e-01 0.0000000000000000e+00  -1.3428113058028683e-02 -6.6576592909645391e-02 0.0000000000000000e+00  -1.2035830809128773e-02 -6.0373463542078100e-02 0.0000000000000000e+00  -1.0268270292576865e-03 -2.0995822859964118e-02 0.0000000000000000e+00  -1.1327199067446865e-02 -5.7202613822945184e-02 0.0000000000000000e+00  -2.8604912419563358e-03 -3.2782018489169028e-02 0.0000000000000000e+00  -9.3650576096077753e-03 -4.8249209897272501e-02 0.0000000000000000e+00  -3.8344525526124973e-03 -3.8286525351082241e-02 0.0000000000000000e+00  -2.3149680258874344e-02 -1.0925682245983646e-01 0.0000000000000000e+00  -1.6140383180317998e-02 -9.6066638804651897e-02 0.0000000000000000e+00  -1.7726934194867980e-03 -9.2000090106291333e-03 0.0000000000000000e+00  3.5079152054365867e-04 -9.5621732669850374e-04 0.0000000000000000e+00  1.8926479862138313e-04 -3.6474483053091733e-04 0.0000000000000000e+00  -6.8966538741461157e-03 -5.4552950317143523e-02 0.0000000000000000e+00  -7.2335341536220480e-03 -3.8018530894293988e-02 0.0000000000000000e+00  -8.1808172730819737e-03 -6.0693608332919230e-02 0.0000000000000000e+00  -1.2360285628022827e-02 -7.9598669115649875e-02 0.0000000000000000e+00  -9.5603819873087501e-03 -6.6917815774651820e-02 0.0000000000000000e+00  -1.0943927293616717e-02 -7.3231079534171198e-02 0.0000000000000000e+00  -5.9041868906774906e-03 -3.2715119001845601e-02 0.0000000000000000e+00  -5.7535589796819282e-03 -4.8568271934294138e-02 0.0000000000000000e+00  -3.8162818921225147e-03 -2.0887638312988215e-02 0.0000000000000000e+00  -5.4921689109138309e-03 -2.9207732863058382e-02 0.0000000000000000e+00  -1.4697699698466979e-02 -9.0161887739184834e-02 0.0000000000000000e+00  -3.3512339458957275e-03 -1.8005823420700822e-02 0.0000000000000000e+00  -1.4084454031746366e-02 -8.5855999635955665e-02 0.0000000000000000e+00  -1.2189710008734340e-03 -5.7836180706155134e-03 0.0000000000000000e+00  -9.9255087457484053e-04 -4.1558183133633929e-03 0.0000000000000000e+00  -2.2534616634029749e-02 -1.0627211127065056e-01 0.0000000000000000e+00  -2.1708719385352588e-02 -1.0226723624810280e-01 0.0000000000000000e+00  -1.2317715275641848e-02 -7.7410541798199811e-02 0.0000000000000000e+00  -1.0907070235446563e-02 -7.1060286803433612e-02 0.0000000000000000e+00  -8.0770399816866480e-03 -5.8513994851753064e-02 0.0000000000000000e+00  -1.3637493262121127e-02 -8.3763048827883241e-02 0.0000000000000000e+00  -9.5310042899057999e-03 -6.4770979681722921e-02 0.0000000000000000e+00  -6.7736162408768121e-03 -5.2427656790436525e-02 0.0000000000000000e+00  -6.2360884822333885e-03 -3.4473733459252962e-02 0.0000000000000000e+00  3.1759187433857543e-04 -9.2075015501766905e-03 0.0000000000000000e+00  -2.0203655839053085e-02 -9.5599561249558082e-02 0.0000000000000000e+00  -1.9207401812151827e-02 -9.1537013346174131e-02 0.0000000000000000e