<?xml version="1.0"?>
<VTKFile type="UnstructuredGrid"  version="0.1"  >
<UnstructuredGrid>
<Piece  NumberOfPoints="439" NumberOfCells="725">
<Points>
<DataArray  type="Float64"  NumberOfComponents="3"  format="ascii">0.6 0.19 0  0.6 0.21 0  0.2489897949 0.21 0  0.2489897949 0.19 0  0.6 0.2 0  0.2496355385699469 0.2060260530378829 0  0.249959460510575 0.2020130349814059 0  0.2499594605105767 0.1979869650186357 0  0.24963553856995 0.1939739469621422 0  0.2539336006056293 0.21 0  0.2588774063112542 0.21 0  0.2638212120168921 0.21 0  0.26876501772253 0.21 0  0.2737088234281569 0.21 0  0.2786526291337753 0.21 0  0.2835964348393937 0.21 0  0.2885402405450166 0.21 0  0.2934840462506522 0.21 0  0.2984278519562708 0.21 0  0.3033716576618997 0.21 0  0.3083154633675181 0.21 0  0.3132592690731365 0.21 0  0.3182030747787549 0.21 0  0.3231468804843732 0.21 0  0.3280906861899917 0.21 0  0.3330344918956208 0.21 0  0.3379782976012284 0.21 0  0.3429221033068576 0.21 0  0.347865909012476 0.21 0  0.3528097147180944 0.21 0  0.3577535204237128 0.21 0  0.3626973261293311 0.21 0  0.3676411318349495 0.21 0  0.3725849375405788 0.21 0  0.3775287432461877 0.21 0  0.382472548951812 0.21 0  0.3874163546574338 0.21 0  0.3923601603630631 0.21 0  0.3973039660686706 0.21 0  0.4022477717742986 0.21 0  0.4071915774799107 0.21 0  0.4121353831855311 0.21 0  0.4170791888911518 0.21 0  0.4220229945967636 0.21 0  0.4269668003023918 0.21 0  0.4319106060080253 0.21 0  0.4368544117136773 0.21 0  0.4417982174193329 0.21 0  0.4467420231249967 0.21 0  0.4516858288306445 0.21 0  0.4566296345362864 0.21 0  0.461573440241916 0.21 0  0.4665172459475665 0.21 0  0.4714610516531998 0.21 0  0.4764048573588668 0.21 0  0.4813486630645134 0.21 0  0.486292468770176 0.21 0  0.4912362744758066 0.21 0  0.4961800801814611 0.21 0  0.5011238858870897 0.21 0  0.5060676915927493 0.21 0  0.5110114972983872 0.21 0  0.5159553030040036 0.21 0  0.5208991087096415 0.21 0  0.5258429144153002 0.21 0  0.5307867201209391 0.21 0  0.5357305258265987 0.21 0  0.5406743315322367 0.21 0  0.5456181372378529 0.21 0  0.5505619429434908 0.21 0  0.5555057486491456 0.21 0  0.5604495543547885 0.21 0  0.565393360060448 0.21 0  0.5703371657661116 0.21 0  0.5752809714717458 0.21 0  0.5802247771773834 0.21 0  0.5851685828830341 0.21 0  0.5901123885886809 0.21 0  0.5950561942943404 0.21 0  0.5950561942943833 0.19 0  0.590112388588758 0.19 0  0.5851685828831193 0.19 0  0.5802247771774727 0.19 0  0.5752809714718514 0.19 0  0.5703371657662308 0.19 0  0.565393360060618 0.19 0  0.5604495543549889 0.19 0  0.5555057486493581 0.19 0  0.5505619429437035 0.19 0  0.5456181372381043 0.19 0  0.540674331532505 0.19 0  0.5357305258268962 0.19 0  0.530786720121263 0.19 0  0.5258429144156628 0.19 0  0.5208991087100244 0.19 0  0.5159553030044218 0.19 0  0.5110114972988226 0.19 0  0.5060676915932177 0.19 0  0.5011238858875806 0.19 0  0.496180080181972 0.19 0  0.4912362744763531 0.19 0  0.4862924687707343 0.19 0  0.4813486630651046 0.19 0  0.4764048573594966 0.19 0  0.4714610516538683 0.19 0  0.4665172459482555 0.19 0  0.4615734402426349 0.19 0  0.4566296345370104 0.19 0  0.4516858288313808 0.19 0  0.4467420231257716 0.19 0  0.4417982174201465 0.19 0  0.4368544117145297 0.19 0  0.4319106060089131 0.19 0  0.4269668003032866 0.19 0  0.4220229945976482 0.19 0  0.4170791888920056 0.19 0  0.4121353831863594 0.19 0  0.4071915774806995 0.19 0  0.4022477717750478 0.19 0  0.3973039660693901 0.19 0  0.3923601603637548 0.19 0  0.3874163546581082 0.19 0  0.3824725489524824 0.19 0  0.3775287432468258 0.19 0  0.3725849375411773 0.19 0  0.3676411318355085 0.19 0  0.3626973261298614 0.19 0  0.3577535204242108 0.19 0  0.352809714718589 0.19 0  0.347865909012931 0.19 0  0.342922103307292 0.19 0  0.3379782976016536 0.19 0  0.3330344918960152 0.19 0  0.3280906861903751 0.19 0  0.3231468804847171 0.19 0  0.3182030747790592 0.19 0  0.3132592690734012 0.19 0  0.3083154633677581 0.19 0  0.3033716576621197 0.19 0  0.2984278519564813 0.19 0  0.2934840462508429 0.19 0  0.2885402405451874 0.19 0  0.2835964348395295 0.19 0  0.2786526291338716 0.19 0  0.2737088234282243 0.19 0  0.268765017722586 0.19 0  0.2638212120169476 0.19 0  0.2588774063113093 0.19 0  0.2539336006056579 0.19 0  0.6 0.1949999999999783 0  0.6 0.2049999999999729 0  0.2589734265316493 0.2005523893428403 0  0.5431462343853077 0.199999999999969 0  0.5682397894768162 0.1999704585808987 0  0.2774513927118024 0.2007941919421926 0  0.513849583376897 0.1999023426490919 0  0.5286810004937381 0.1999023426490969 0  0.2945108952057646 0.1992911908405386 0  0.5827780831384927 0.1995429801003349 0  0.3104128396569256 0.1999704585808978 0  0.3370001755418551 0.2008294612433967 0  0.4990181662600459 0.1999023426490902 0  0.3552816175709044 0.2000000000000608 0  0.4841867491431925 0.1999023426490849 0  0.3707373713905551 0.2000142376953689 0  0.3898882575102495 0.2000000000000828 0  0.4689857550492734 0.1995416724256694 0  0.4541577316841967 0.1999999999999098 0  0.4043534914018331 0.2000976573509244 0  0.4195510917439569 0.2000000000001057 0  0.4387019778644512 0.1999857623046772 0  0.3202472750256703 0.2000088842146399 0  0.5584053541080851 0.1999911157853577 0  0.4280667146887134 0.1998489048208241 0  0.3467659946265474 0.2001510951794375 0  0.3813726345658908 0.200151095179452 0  0.2860683376922098 0.2000415445706182 0  0.5911223811781194 0.1982449159348744 0  0.2679893161458627 0.201675125646729 0  0.4615734402426278 0.2022503633288003 0  0.4912362744763454 0.2022503633288091 0  0.5060676915931983 0.2022503633288118 0  0.3973039660686774 0.1977496366711965 0  0.4764048573594896 0.2022503633288051 0  0.5208991087100455 0.2022503633288184 0  0.4467420231257656 0.2022503633288 0  0.5357305258268849 0.2022503633288198 0  0.4121353831855317 0.1977496366711976 0  0.3626973261293352 0.1977496366711919 0  0.3033716576618961 0.1977496366711869 0  0.5752809714718229 0.1977496366711503 0  0.550459855919056 0.1971284784737667 0  0.3281927732146841 0.2028715215262406 0  0.5484179020497461 0.2038403215694763 0  0.3302347270839988 0.1961596784305491 0  0.5379210852238114 0.196125181664411 0  0.5230896681069652 0.1961251816644058 0  0.5082582509901222 0.1961251816644098 0  0.5774715308687094 0.2038748183355887 0  0.3011810982649548 0.2038748183355937 0  0.4785954167564111 0.196125181664404 0  0.4934268338732671 0.1961251816644063 0  0.395113406671763 0.2038748183355966 0  0.3605067667324117 0.2038748183355951 0  0.4593828808457146 0.1961251816643993 0  0.4489325825226805 0.1961251816644007 0  0.4099448237886219 0.2038748183355991 0  0.2557862999801971 0.1960858370257295 0  0.2550147360309399 0.2034426429991114 0  0.4348031476464689 0.2037737577641554 0  0.37463620160841 0.1962262422358553 0  0.3406258365864304 0.196046792193989 0  0.2813001681189834 0.1960467921940502 0  0.2912686387439893 0.1960816328649282 0  0.4246705335819892 0.2039532078059544 0  0.350162175732913 0.1960467921941878 0  0.3847688156722694 0.1960467921942359 0  0.316632368538356 0.19615945856337 0  0.5621550011053409 0.2037816492598991 0  0.5624413877019769 0.1960761923611377 0  0.3162395035833128 0.2038679557424692 0  0.2710887134207622 0.1959696443325838 0  0.5873014376403604 0.2047227881030823 0  0.4346679566442709 0.1954651459552513 0  0.4243296504077986 0.1958756980939062 0  0.3402559510833523 0.2047940500290923 0  0.2808684926760933 0.2047742417812656 0  0.2914077033138723 0.2047809517070955 0  0.3747713926104932 0.2045348540448554 0  0.3499216488898867 0.2051753413186305 0  0.3845282888292298 0.205175341318636 0  0.2648144865455052 0.1962089742986374 0  0.5943247643662894 0.2040415423589182 0  0.5320972610456145 0.1956445099050872 0  0.5172658439287727 0.1956445099050854 0  0.3069923255602658 0.2043468033872551 0  0.5024344268119265 0.1956445099050864 0  0.5716603035734351 0.2043468033872761 0  0.4876030096950741 0.1956445099050831 0  0.4728151975296263 0.1956402468909894 0  0.3663301776527538 0.20436745486386 0  0.4651631000724991 0.1956402468909893 0  0.4009372308499527 0.2043554900949198 0  0.4431091716023345 0.1956325451361429 0  0.4157593408842466 0.2043565497109067 0  0.5865057328865416 0.1956918868509067 0  0.5541600609760193 0.2044335994013721 0  0.3244925681577497 0.1955664005986376 0  0.272008018888917 0.2049327968152409 0  0.2633407725863902 0.2042483236346266 0  0.4567948413982566 0.2046536472831198 0  0.4167680012832803 0.1955060004091903 0  0.4716262585151221 0.2046536472831242 0  0.5161054367030595 0.2045563706470633 0  0.4864426024693469 0.2045563706470604 0  0.5012740195862044 0.2045563706470634 0  0.4022810343427545 0.1961423961483001 0  0.4420739040821668 0.2044853411424516 0  0.3673807293464664 0.1955677741328205 0  0.3925253672243162 0.195346352716901 0  0.5405091246712254 0.2046536472831267 0  0.357918727284983 0.1953463527168901 0  0.5307534575528717 0.2038576038516682 0  0.3079697655029555 0.1955637092892754 0  0.2985930588175599 0.1953463527168728 0  0.579671714346879 0.1955441268455555 0  0.5705023726275059 0.1953463527168462 0  0.5112451461103119 0.2035640580783926 0  0.4964137289934448 0.2035640580783915 0  0.4665727251511405 0.2038238154617746 0  0.5259274680675793 0.2038006696000127 0  0.4815823118765752 0.2035640580783898 0  0.4517504165552094 0.2039070625502732 0  0.4071070238280551 0.1961993303999926 0  0.3234846806957546 0.2047001437739977 0  0.5551679484379799 0.1952998562260008 0  0.5457754356464107 0.1954447171286166 0  0.3329307555206357 0.2046017509710421 0  0.4541577316841968 0.1960357661898101 0  0.3358300776141575 0.1950765652117375 0  0.2539718587514912 0.200011552766824 0  0.5826472073721517 0.2039971170156656 0  0.2761021761080182 0.1946948236183283 0  0.3898581462796225 0.2041572776584344 0  0.3552515063402743 0.2041572776584256 0  0.2965028074750666 0.2046578268138723 0  0.4299158836614793 0.1951782397873778 0  0.379426563923736 0.2049969334481307 0  0.2860882692072842 0.2042624797643994 0  0.3449948044168807 0.2051793676155613 0  0.2603922435707652 0.1950997711614917 0  0.5949856943860
[...]
<PointData  Vectors="f_18-1"> 
<DataArray  type="Float64"  Name="f_18-1"  NumberOfComponents="3" format="ascii">-1.3080544629268140e-03 -1.8885848854295360e-02 0.0000000000000000e+00  1.5220602626715617e-04 -1.8939302776494537e-02 0.0000000000000000e+00  0.0000000000000000e+00 0.0000000000000000e+00 0.0000000000000000e+00  0.0000000000000000e+00 0.0000000000000000e+00 0.0000000000000000e+00  -5.7792592765830626e-04 -1.8912567867837751e-02 0.0000000000000000e+00  0.0000000000000000e+00 0.0000000000000000e+00 0.0000000000000000e+00  0.0000000000000000e+00 0.0000000000000000e+00 0.0000000000000000e+00  0.0000000000000000e+00 0.0000000000000000e+00 0.0000000000000000e+00  0.0000000000000000e+00 0.0000000000000000e+00 0.0000000000000000e+00  2.6953099588653107e-05 -2.3590459741183795e-05 0.0000000000000000e+00  5.6098831428706391e-05 -4.8765622001105784e-05 0.0000000000000000e+00  8.4799550072769695e-05 -8.0584835045306082e-05 0.0000000000000000e+00  1.1181854140258675e-04 -1.3304371879602079e-04 0.0000000000000000e+00  1.3717485164720350e-04 -1.9634493788636470e-04 0.0000000000000000e+00  1.6336969449411311e-04 -2.7514430966329041e-04 0.0000000000000000e+00  1.8671863269889617e-04 -3.6173450686898201e-04 0.0000000000000000e+00  2.0751065157258278e-04 -4.6240530779001146e-04 0.0000000000000000e+00  2.2831676157683442e-04 -5.7386350311931398e-04 0.0000000000000000e+00  2.4739636861138798e-04 -6.9611044556298950e-04 0.0000000000000000e+00  2.6745638139825300e-04 -8.3258385585450784e-04 0.0000000000000000e+00  2.8718480908257189e-04 -9.7119626507160184e-04 0.0000000000000000e+00  3.0339185767994879e-04 -1.1259401714367181e-03 0.0000000000000000e+00  3.2274734100799936e-04 -1.2888848181437399e-03 0.0000000000000000e+00  3.3740588868115849e-04 -1.4597233642718581e-03 0.0000000000000000e+00  3.5266373840289148e-04 -1.6417583777703013e-03 0.0000000000000000e+00  3.6660991947646692e-04 -1.8302820625774440e-03 0.0000000000000000e+00  3.7951959920895034e-04 -2.0298536069090910e-03 0.0000000000000000e+00  3.9064376363595187e-04 -2.2340084205792312e-03 0.0000000000000000e+00  4.0138599144957053e-04 -2.4476494312889122e-03 0.0000000000000000e+00  4.1084664716501226e-04 -2.6678945644584471e-03 0.0000000000000000e+00  4.1892386655836725e-04 -2.8947598370807062e-03 0.0000000000000000e+00  4.2793813710691056e-04 -3.1322458451201510e-03 0.0000000000000000e+00  4.3692786013587077e-04 -3.3712825443021001e-03 0.0000000000000000e+00  4.4403486107579779e-04 -3.6202106505031587e-03 0.0000000000000000e+00  4.4990784823842046e-04 -3.8733427712557135e-03 0.0000000000000000e+00  4.5535299825037799e-04 -4.1339136129212532e-03 0.0000000000000000e+00  4.5985690242946337e-04 -4.3999246532047780e-03 0.0000000000000000e+00  4.6307074784351454e-04 -4.6712321760227797e-03 0.0000000000000000e+00  4.6689887087245275e-04 -4.9509450272292249e-03 0.0000000000000000e+00  4.7065960546039114e-04 -5.2314728097438076e-03 0.0000000000000000e+00  4.7200872919614514e-04 -5.5198163273977204e-03 0.0000000000000000e+00  4.7355230780556280e-04 -5.8142654957426716e-03 0.0000000000000000e+00  4.7495941419100664e-04 -6.1101775904305322e-03 0.0000000000000000e+00  4.7440176163890250e-04 -6.4133153230212184e-03 0.0000000000000000e+00  4.7490011744559291e-04 -6.7198860935234871e-03 0.0000000000000000e+00  4.7324348977948198e-04 -7.0310291938589778e-03 0.0000000000000000e+00  4.7242322501441148e-04 -7.3469648266802573e-03 0.0000000000000000e+00  4.6977139668290816e-04 -7.6660029783205122e-03 0.0000000000000000e+00  4.6644559428645502e-04 -7.9894741861407294e-03 0.0000000000000000e+00  4.6305771551929085e-04 -8.3160294572545614e-03 0.0000000000000000e+00  4.5930261324375360e-04 -8.6461897878271632e-03 0.0000000000000000e+00  4.5426290617177670e-04 -8.9796771644274475e-03 0.0000000000000000e+00  4.4923833519626389e-04 -9.3158791049253713e-03 0.0000000000000000e+00  4.4379246987288798e-04 -9.6552873708461631e-03 0.0000000000000000e+00  4.3721473237711686e-04 -9.9975671709349560e-03 0.0000000000000000e+00  4.3044661682389612e-04 -1.0342157535103503e-02 0.0000000000000000e+00  4.2324032096237015e-04 -1.0689432752002060e-02 0.0000000000000000e+00  4.1506204004820754e-04 -1.1038910497121138e-02 0.0000000000000000e+00  4.0661901963196976e-04 -1.1390193449523148e-02 0.0000000000000000e+00  3.9771231873749792e-04 -1.1743496363114104e-02 0.0000000000000000e+00  3.8799280218542625e-04 -1.2098408519691793e-02 0.0000000000000000e+00  3.7796460856786667e-04 -1.2454515014271281e-02 0.0000000000000000e+00  3.6746804919197262e-04 -1.2811946748016213e-02 0.0000000000000000e+00  3.5635001949047181e-04 -1.3170318445975588e-02 0.0000000000000000e+00  3.4497854869985591e-04 -1.3529335136294104e-02 0.0000000000000000e+00  3.3321330436682017e-04 -1.3889005739698689e-02 0.0000000000000000e+00  3.2104775886262056e-04 -1.4249058390040601e-02 0.0000000000000000e+00  3.0859309487974812e-04 -1.4609353781621166e-02 0.0000000000000000e+00  2.9590887525794766e-04 -1.4969848040430701e-02 0.0000000000000000e+00  2.8310406736006355e-04 -1.5330460737795083e-02 0.0000000000000000e+00  2.7023758919304770e-04 -1.5691069026764228e-02 0.0000000000000000e+00  2.5724973418665801e-04 -1.6051802755047966e-02 0.0000000000000000e+00  2.4425512683392262e-04 -1.6412583140191228e-02 0.0000000000000000e+00  2.3119372694316634e-04 -1.6773414312024067e-02 0.0000000000000000e+00  2.1810026620566189e-04 -1.7134339245760178e-02 0.0000000000000000e+00  2.0497812003526859e-04 -1.7495293409238430e-02 0.0000000000000000e+00  1.9181345435280065e-04 -1.7856304107945933e-02 0.0000000000000000e+00  1.7862051208727660e-04 -1.8217328239436066e-02 0.0000000000000000e+00  1.6541267717853428e-04 -1.8578319936725228e-02 0.0000000000000000e+00  -1.2948397954148135e-03 -1.8524877189747026e-02 0.0000000000000000e+00  -1.2815930158305291e-03 -1.8163881710613186e-02 0.0000000000000000e+00  -1.2683250495459724e-03 -1.7802858329068673e-02 0.0000000000000000e+00  -1.2550278777531275e-03 -1.7441872702477972e-02 0.0000000000000000e+00  -1.2417088234451799e-03 -1.7080942367487081e-02 0.0000000000000000e+00  -1.2283765142751281e-03 -1.6720044224280358e-02 0.0000000000000000e+00  -1.2150388656587429e-03 -1.6359244339911646e-02 0.0000000000000000e+00  -1.2016719029129788e-03 -1.5998502795516387e-02 0.0000000000000000e+00  -1.1883163978085398e-03 -1.5637793866428797e-02 0.0000000000000000e+00  -1.1749055343180190e-03 -1.5277175196984884e-02 0.0000000000000000e+00  -1.1614257577792521e-03 -1.4916588763272747e-02 0.0000000000000000e+00  -1.1478706384519699e-03 -1.4556147499825135e-02 0.0000000000000000e+00  -1.1341040166555974e-03 -1.4195980584543411e-02 0.0000000000000000e+00  -1.1201423559948959e-03 -1.3835880813835758e-02 0.0000000000000000e+00  -1.1060178247509758e-03 -1.3476348019726393e-02 0.0000000000000000e+00  -1.0914677067418493e-03 -1.3117706782047408e-02 0.0000000000000000e+00  -1.0766118505946840e-03 -1.2759312323233914e-02 0.0000000000000000e+00  -1.0616881000499510e-03 -1.2402271096296701e-02 0.0000000000000000e+00  -1.0461808817200330e-03 -1.2046878835762279e-02 0.0000000000000000e+00  -1.0302959719212688e-03 -1.1691931258377778e-02 0.0000000000000000e+00  -1.0145555790436660e-03 -1.1339264645127196e-02 0.0000000000000000e+00  -9.9815878963758868e-04 -1.0989038826362223e-02 0.0000000000000000e+00  -9.8136378776226716e-04 -1.0639448227724821e-02 0.0000000000000000e+00  -9.6500399544665217e-04 -1.0293029905446120e-02 0.0000000000000000e+00  -9.4794091333537769e-04 -9.9498050039770504e-03 0.0000000000000000e+00  -9.3052276688724276e-04 -9.6077195576074175e-03 0.0000000000000000e+00  -9.1340368497922777e-04 -9.2690158697825275e-03 0.0000000000000000e+00  -8.9570834705615557e-04 -8.9343504841804776e-03 0.0000000000000000e+00  -8.7791877905915355e-04 -8.6004906101876839e-03 0.0000000000000000e+00  -8.6112733088373626e-04 -8.2711960913063598e-03 0.0000000000000000e+00  -8.4300535955236365e-04 -7.9468282158772340e-03 0.0000000000000000e+00  -8.2446402375787112e-04 -7.6235782549373445e-03 0.0000000000000000e+00  -8.0637998970185094e-04 -7.3058031425768432e-03 0.0000000000000000e+00  -7.8863222529373641e-04 -6.9907858403927504e-03 0.0000000000000000e+00  -7.7066514146723595e-04 -6.6803101502032414e-03 0.0000000000000000e+00  -7.5306006578177028e-04 -6.3753946408346704e-03 0.0000000000000000e+00  -7.3428940253539039e-04 -6.0734473509322711e-03 0.0000000000000000e+00  -7.1622914643975613e-04 -5.7770943276070500e-03 0.0000000000000000e+00  -6.9738433589455013e-04 -5.4852454405326578e-03 0.0000000000000000e+00  -6.7816416247744175e-04 -5.1987199950645543e-03 0.0000000000000000e+00  -6.5928648178319334e-04 -4.9178090958281019e-03 0.0000000000000000e+00  -6.4152411634322605e-04 -4.6411883286888124e-03 0.0000000000000000e+00  -6.2386860019581164e-04 -4.3708082249431339e-03 0.0000000000000000e+00  -6.0361261116862906e-04 -4.1048379989361171e-03 0.0000000000000000e+00  -5.8553214694951402e-04 -3.8458866889948384e-03 0.0000000000000000e+00  -5.6505324745326961e-04 -3.5937662442470019e-03 0.0000000000000000e+00  -5.4655748602633011e-04 -3.3468129355943396e-03 0.0000000000000000e+00  -5.2710151300954476e-04 -3.1078579107510543e-03 0.0000000000000000e+00  -5.0880944888752344e-04 -2.8739310363336918e-03 0.0000000000000000e+00  -4.9065208225338591e-04 -2.6479139133842415e-03 0.0000000000000000e+00  -4.6925698962770821e-04 -2.4272748937586518e-03 0.0000000000000000e+00  -4.5058921413886283e-04 -2.2150175528744746e-03 0.0000000000000000e+00  -4.2863198570105340e-04 -2.0113873726545339e-03 0.0000000000000000e+00  -4.1002051460304776e-04 -1.8147693124649917e-03 0.0000000000000000e+00  -3.8992381439628741e-04 -1.6295763579682768e-03 0.0000000000000000e+00  -3.6878047676145901e-04 -1.4469816919180467e-03 0.0000000000000000e+00  -3.4875492212131572e-04 -1.2770456121707987e-03 0.0000000000000000e+00  -3.2430779160074781e-04 -1.1152935099420821e-03 0.0000000000000000e+00  -3.0345813470342088e-04 -9.6241531057446685e-04 0.0000000000000000e+00  -2.8098039607439866e-04 -8.2219821110624469e-04 0.0000000000000000e+00  -2.5925799187956274e-04 -6.8928081200348790e-04 0.0000000000000000e+00  -2.3739581760132686e-04 -5.6886619390336354e-04 0.0000000000000000e+00  -2.1134273550937996e-04 -4.5685116478654241e-04 0.0000000000000000e+00  -1.8924590988737272e-04 -3.5699932263192876e-04 0.0000000000000000e+00  -1.6203045308567899e-04 -2.6867972711236611e-04 0.0000000000000000e+00  -1.3771077031371457e-04 -1.9491706497682160e-04 0.0000000000000000e+00  -1.0886077523499536e-04 -1.3331704890661128e-04 0.0000000000000000e+00  -8.2294352334385526e-05 -8.1297110994406094e-05 0.0000000000000000e+00  -5.5472448148185845e-05 -4.4504895497493669e-05 0.0000000000000000e+00  -2.7765546759786558e-05 -2.4910786613746650e-05 0.0000000000000000e+00  -9.4298850501644443e-04 -1.8899201943496684e-02 0.0000000000000000e+00  -2.1286422052200476e-04 -1.8925939554567464e-02 0.0000000000000000e+00  3.6627377802817159e-06 -2.5133576855874715e-05 0.0000000000000000e+00  -4.2617613175595164e-04 -1.4762641689302258e-02 0.0000000000000000e+00  -4.9513864893781581e-04 -1.6593473613003017e-02 0.0000000000000000e+00  1.0928389682934556e-05 -2.3411793631816397e-04 0.0000000000000000e+00  -3.5612189024041745e-04 -1.2631605282036596e-02 0.0000000000000000e+00  -3.9497373134514494e-04 -1.3708163365656572e-02 0.0000000000000000e+00  -1.9825179038162562e-05 -5.7944312065911867e-04 0.0000000000000000e+00  -5.6522482744311210e-04 -1.7653755872183652e-02 0.0000000000000000e+00  -8.9604734616430236e-06 -1.0174073687597512e-03 0.0000000000000000e+00  7.8394597012707637e-06 -1.9698834426212174e-03 0.0000000000000000e+00  -3.1790473815080181e-04 -1.1564626102196388e-02 0.0000000000000000e+00  -4.1036001427487060e-05 -2.7613630732835769e-03 0.0000000000000000e+00  -2.8075233954632156e-04 -1.0513114603857140e-02 0.0000000000000000e+00  -5.7990046369942424e-05 -3.5035615971212904e-03 0.0000000000000000e+00  -8.4310004860953258e-05 -4.5131270813848516e-03 0.0000000000000000e+00  -2.6887332250126461e-04 -9.4561915204815616e-03 0.0000000000000000e+00  -2.0383809560967450e-04 -8.4540098782880241e-03 0.0000000000000000e+00  -1.0146276575776816e-04 -5.3299795293220154e-03 0.0000000000000000e+00  -1.3366045844872957e-04 -6.2357992009731671e-03 0.0000000000000000e+00  -1.7184535475082339e-04 -7.4388531950825053e-03 0.0000000000000000e+00  -1.2772166580339384e-05 -1.3387534402498058e-03 0.0000000000000000e+00  -4.6738126194157493e-04 -1.5875814305728476e-02 0.0000000000000000e+00  -1.5881692794778891e-04 -6.7628363431938981e-03 0.0000000000000000e+00  -2.7134695344271292e-05 -2.3795264893414882e-03 0.0000000000000000e+00  -6.4650008253240931e-05 -4.0532549406870561e-03 0.0000000000000000e+00  -1.8352215440375818e-06 -3.9583014385196187e-04 0.0000000000000000e+00  -6.8233106816743339e-04 -1.8259637898374155e-02 0.0000000000000000e+00  1.6940064143037507e-05 -1.0561573950378324e-04 0.0000000000000000e+00  -6.8606904232401073e-05 -8.9576990912099471e-03 0.0000000000000000e+00  -1.3249987915847094e-04 -1.1016776590732118e-02 0.0000000000000000e+00  -1.6775925197923762e-04 -1.2076451544702306e-02 0.0000000000000000e+00  -2.2249349669841529e-04 -4.9230510847533887e-03 0.0000000000000000e+00  -9.9321276161151164e-05 -9.9754352974231412e-03 0.0000000000000000e+00  -2.0470055231054446e-04 -1.3148742702400705e-02 0.0000000000000000e+00  -4.0780128100368982e-05 -7.9678965992551008e-03 0.0000000000000000e+00  -2.4286240791063815e-04 -1.4227956570529705e-02 0.0000000000000000e+00  -2.5406982656301790e-04 -5.7849221090732830e-03 0.0000000000000000e+00  -1.5672788199881925e-04 -3.1076696322129564e-03 0.0000000000000000e+00  -6.6933340851534813e-05 -8.1192400707717045e-04 0.0000000000000000e+00  -6.7604607516516914e-04 -1.7101553000264093e-02 0.0000000000000000e+00  -6.5488119210510229e-04 -1.5288510998364958e-02 0.0000000000000000e+00  8.7499587139739873e-05 -1.6291819908073855e-03 0.0000000000000000e+00  -1.6030756652639049e-04 -1.5157445583700989e-02 0.0000000000000000e+00  -1.6473425983758606e-04 -1.7031838022702006e-03 0.0000000000000000e+00  -6.9420905886394052e-04 -1.4371395617009362e-02 0.0000000000000000e+00  -6.5371398750069568e-04 -1.3291709224011281e-02 0.0000000000000000e+00  -6.1256824890289436e-04 -1.2218360604527337e-02 0.0000000000000000e+00  -2.3484656134988724e-04 -1.7277848416037238e-02 0.0000000000000000e+00  9.8861948739746149e-05 -7.5531198526125067e-04 0.0000000000000000e+00  -5.2909138517483558e-04 -1.0113259282293193e-02 0.0000000000000000e+00  -5.7088319099273064e-04 -1.1156937193545276e-02 0.0000000000000000e+00  1.2438007262454391e-04 -4.8100319076105277e-03 0.0000000000000000e+00  1.3654491842183489e-04 -3.0109274034174887e-03 0.0000000000000000e+00  -4.7628952592242293e-04 -8.7961611653076706e-03 0.0000000000000000e+00  -4.4673760497250878e-04 -8.0991040181452728e-03 0.0000000000000000e+00  1.1253114196048052e-04 -5.6660162651718414e-03 0.0000000000000000e+00  -1.1815625733877009e-05 -1.1165644182856426e-05 0.0000000000000000e+00  9.4176899514476215e-06 -8.7329793859703306e-06 0.0000000000000000e+00  7.6460428176128095e-05 -7.1975076677756834e-03 0.0000000000000000e+00  -2.5641894334357894e-04 -3.6980659560593245e-03 0.0000000000000000e+00  -1.9118550144173459e-04 -2.1161093875233811e-03 0.0000000000000000e+00  -7.0228035919406181e-05 -3.0274573985742472e-04 0.0000000000000000e+00  -8.7825728615806693e-05 -5.0578308088996432e-04 0.0000000000000000e+00  1.0085826589671899e-04 -6.5605257164636664e-03 0.0000000000000000e+00  -2.1020073082969547e-04 -2.5258912289542810e-03 0.0000000000000000e+00  -2.8819705031507932e-04 -4.2293766478331066e-03 0.0000000000000000e+00  -1.3659303991019105e-04 -1.2166232285682186e-03 0.0000000000000000e+00  -2.0086565622311293e-04 -1.6159558849985232e-02 0.0000000000000000e+00  -7.6375508620990875e-04 -1.6159928565638856e-02 0.0000000000000000e+00  1.1408915035859772e-04 -1.2079430813886276e-03 0.0000000000000000e+00  -5.1580964253841742e-05 -1.4646046656985914e-04 0.0000000000000000e+00  -1.9917673011108947e-04 -1.7997941688939850e-02 0.0000000000000000e+00  -4.5098366280863693e-04 -7.1725113994917725e-03 0.0000000000000000e+00  -3.9712395608081498e-04 -6.5230991531024787e-03 0.0000000000000000e+00  1.6970897113574115e-04 -2.1095351315833320e-03 0.0000000000000000e+00  8.1269151616880886e-05 -2.9794228207345724e-04 0.0000000000000000e+00  1.0388566684980371e-04 -5.1295512893786467e-04 0.0000000000000000e+00  1.6749887571732025e-04 -3.7167018806500110e-03 0.0000000000000000e+00  1.9191732371864377e-04 -2.5268856495984436e-03 0.0000000000000000e+00  1.9937384412732289e-04 -4.2315315233681788e-03 0.0000000000000000e+00  -3.2806628335208602e-05 -7.7396298808657778e-05 0.0000000000000000e+00  -2.6768027282612433e-04 -1.8508986323660145e-02 0.0000000000000000e+00  -7.1340257171922938e-04 -1.3945813556325754e-02 0.0000000000000000e+00  -6.7255593490698909e-04 -1.2868100056871491e-02 0.0000000000000000e+00  1.1820502293736061e-04 -9.2029003023288416e-04 0.0000000000000000e+00  -6.3090357068179179e-04 -1.1798825944031265e-02 0.0000000000000000e+00  -1.8490674274454676e-04 -1.6854855980895041e-02 0.0000000000000000e+00  -5.8868163804173899e-04 -1.0743790801659069e-02 0.0000000000000000e+00  -5.4673423666385746e-04 -9.7115725442916100e-03 0.0000000000000000e+00  1.5881826919904399e-04 -3.2929408022890016e-03 0.0000000000000000e+00  -5.2465636973499769e-04 -9.1868024951041859e-03 0.0000000000000000e+00  1.4655658212053575e-04 -5.1416287456626701e-03 0.0000000000000000e+00  -4.6383485136088754e-04 -7.7167966518587776e-03 0.0000000000000000e+00  1.3512570053439776e-04 -6.0153774011254676e-03 0.0000000000000000e+00  -8.5635230232590563e-04 -1.7915683246475595e-02 0.0000000000000000e+00  -1.3218545892797710e-04 -1.5577922687647440e-02 0.0000000000000000e+00  -1.7449093236767232e-04 -1.4894860663599953e-03 0.0000000000000000e+00  6.2451942136428147e-05 -1.5795004284481102e-04 0.0000000000000000e+00  3.3073322894368856e-05 -6.1650790589754112e-05 0.0000000000000000e+00  1.0118054381577414e-04 -8.6415881354909106e-03 0.0000000000000000e+00  -3.9958938320052166e-04 -6.0601159484260144e-03 0.0000000000000000e+00  7.5891550141816389e-05 -9.6509212598697974e-03 0.0000000000000000e+00  -2.6171942686071033e-05 -1.2807404820312222e-02 0.0000000000000000e+00  4.0367864450454275e-05 -1.0684056520904558e-02 0.0000000000000000e+00  8.4280201574978595e-06 -1.1738501884008471e-02 0.0000000000000000e+00  -3.2539370841749014e-04 -5.2047105943936866e-03 0.0000000000000000e+00  1.1222095738058351e-04 -7.6681944495737573e-03 0.0000000000000000e+00  -2.7217502243616674e-04 -3.3338572777028824e-03 0.0000000000000000e+00  -3.4515402488793646e-04 -4.6530425898073042e-03 0.0000000000000000e+00  -8.0420487723429696e-05 -1.4582775813201132e-02 0.0000000000000000e+00  -2.5943890926284874e-04 -2.8804163048816449e-03 0.0000000000000000e+00  -1.1319592042684618e-04 -1.3869649326971739e-02 0.0000000000000000e+00  -1.3779659804603303e-04 -9.4529095251282957e-04 0.0000000000000000e+00  -1.2253905047911474e-04 -6.8416522388604732e-04 0.0000000000000000e+00  -8.4881125287474999e-04 -1.7416249199358864e-02 0.0000000000000000e+00  -8.3862638979934480e-04 -1.6746310213626880e-02 0.0000000000000000e+00  -8.5873622412573747e-05 -1.2453114869240950e-02 0.0000000000000000e+00  -5.1150487278541230e-05 -1.1388276936079456e-02 0.0000000000000000e+00  2.8720770616315347e-05 -9.3017340035909078e-03 0.0000000000000000e+00  -1.0504899820557908e-04 -1.3518263566421026e-02 0.0000000000000000e+00  -1.8866583322159241e-05 -1.0339825176079089e-02 0.0000000000000000e+00  6.0127947806697942e-05 -8.3028607622062291e-03 0.0000000000000000e+00  -3.3372567697579361e-04 -5.4849269248890345e-03 0.0000000000000000e+00  1.5052352114478714e-04 -1.4593014022693219e-03 0.0000000000000000e+00  -8.0084107393013659e-04 -1.5627158104707696e-02 0.0000000000000000e+00  -7.6500804211632959e-04 -1.4942364282833935e-02 0.0000000000000000e+00  1.5558436869064581e-04 -1.8135334500784699e-03 0.00000000000