<?xml version="1.0"?>
<VTKFile type="UnstructuredGrid"  version="0.1"  >
<UnstructuredGrid>
<Piece  NumberOfPoints="439" NumberOfCells="725">
<Points>
<DataArray  type="Float64"  NumberOfComponents="3"  format="ascii">0.6 0.19 0  0.6 0.21 0  0.2489897949 0.21 0  0.2489897949 0.19 0  0.6 0.2 0  0.2496355385699469 0.2060260530378829 0  0.249959460510575 0.2020130349814059 0  0.2499594605105767 0.1979869650186357 0  0.24963553856995 0.1939739469621422 0  0.2539336006056293 0.21 0  0.2588774063112542 0.21 0  0.2638212120168921 0.21 0  0.26876501772253 0.21 0  0.2737088234281569 0.21 0  0.2786526291337753 0.21 0  0.2835964348393937 0.21 0  0.2885402405450166 0.21 0  0.2934840462506522 0.21 0  0.2984278519562708 0.21 0  0.3033716576618997 0.21 0  0.3083154633675181 0.21 0  0.3132592690731365 0.21 0  0.3182030747787549 0.21 0  0.3231468804843732 0.21 0  0.3280906861899917 0.21 0  0.3330344918956208 0.21 0  0.3379782976012284 0.21 0  0.3429221033068576 0.21 0  0.347865909012476 0.21 0  0.3528097147180944 0.21 0  0.3577535204237128 0.21 0  0.3626973261293311 0.21 0  0.3676411318349495 0.21 0  0.3725849375405788 0.21 0  0.3775287432461877 0.21 0  0.382472548951812 0.21 0  0.3874163546574338 0.21 0  0.3923601603630631 0.21 0  0.3973039660686706 0.21 0  0.4022477717742986 0.21 0  0.4071915774799107 0.21 0  0.4121353831855311 0.21 0  0.4170791888911518 0.21 0  0.4220229945967636 0.21 0  0.4269668003023918 0.21 0  0.4319106060080253 0.21 0  0.4368544117136773 0.21 0  0.4417982174193329 0.21 0  0.4467420231249967 0.21 0  0.4516858288306445 0.21 0  0.4566296345362864 0.21 0  0.461573440241916 0.21 0  0.4665172459475665 0.21 0  0.4714610516531998 0.21 0  0.4764048573588668 0.21 0  0.4813486630645134 0.21 0  0.486292468770176 0.21 0  0.4912362744758066 0.21 0  0.4961800801814611 0.21 0  0.5011238858870897 0.21 0  0.5060676915927493 0.21 0  0.5110114972983872 0.21 0  0.5159553030040036 0.21 0  0.5208991087096415 0.21 0  0.5258429144153002 0.21 0  0.5307867201209391 0.21 0  0.5357305258265987 0.21 0  0.5406743315322367 0.21 0  0.5456181372378529 0.21 0  0.5505619429434908 0.21 0  0.5555057486491456 0.21 0  0.5604495543547885 0.21 0  0.565393360060448 0.21 0  0.5703371657661116 0.21 0  0.5752809714717458 0.21 0  0.5802247771773834 0.21 0  0.5851685828830341 0.21 0  0.5901123885886809 0.21 0  0.5950561942943404 0.21 0  0.5950561942943833 0.19 0  0.590112388588758 0.19 0  0.5851685828831193 0.19 0  0.5802247771774727 0.19 0  0.5752809714718514 0.19 0  0.5703371657662308 0.19 0  0.565393360060618 0.19 0  0.5604495543549889 0.19 0  0.5555057486493581 0.19 0  0.5505619429437035 0.19 0  0.5456181372381043 0.19 0  0.540674331532505 0.19 0  0.5357305258268962 0.19 0  0.530786720121263 0.19 0  0.5258429144156628 0.19 0  0.5208991087100244 0.19 0  0.5159553030044218 0.19 0  0.5110114972988226 0.19 0  0.5060676915932177 0.19 0  0.5011238858875806 0.19 0  0.496180080181972 0.19 0  0.4912362744763531 0.19 0  0.4862924687707343 0.19 0  0.4813486630651046 0.19 0  0.4764048573594966 0.19 0  0.4714610516538683 0.19 0  0.4665172459482555 0.19 0  0.4615734402426349 0.19 0  0.4566296345370104 0.19 0  0.4516858288313808 0.19 0  0.4467420231257716 0.19 0  0.4417982174201465 0.19 0  0.4368544117145297 0.19 0  0.4319106060089131 0.19 0  0.4269668003032866 0.19 0  0.4220229945976482 0.19 0  0.4170791888920056 0.19 0  0.4121353831863594 0.19 0  0.4071915774806995 0.19 0  0.4022477717750478 0.19 0  0.3973039660693901 0.19 0  0.3923601603637548 0.19 0  0.3874163546581082 0.19 0  0.3824725489524824 0.19 0  0.3775287432468258 0.19 0  0.3725849375411773 0.19 0  0.3676411318355085 0.19 0  0.3626973261298614 0.19 0  0.3577535204242108 0.19 0  0.352809714718589 0.19 0  0.347865909012931 0.19 0  0.342922103307292 0.19 0  0.3379782976016536 0.19 0  0.3330344918960152 0.19 0  0.3280906861903751 0.19 0  0.3231468804847171 0.19 0  0.3182030747790592 0.19 0  0.3132592690734012 0.19 0  0.3083154633677581 0.19 0  0.3033716576621197 0.19 0  0.2984278519564813 0.19 0  0.2934840462508429 0.19 0  0.2885402405451874 0.19 0  0.2835964348395295 0.19 0  0.2786526291338716 0.19 0  0.2737088234282243 0.19 0  0.268765017722586 0.19 0  0.2638212120169476 0.19 0  0.2588774063113093 0.19 0  0.2539336006056579 0.19 0  0.6 0.1949999999999783 0  0.6 0.2049999999999729 0  0.2589734265316493 0.2005523893428403 0  0.5431462343853077 0.199999999999969 0  0.5682397894768162 0.1999704585808987 0  0.2774513927118024 0.2007941919421926 0  0.513849583376897 0.1999023426490919 0  0.5286810004937381 0.1999023426490969 0  0.2945108952057646 0.1992911908405386 0  0.5827780831384927 0.1995429801003349 0  0.3104128396569256 0.1999704585808978 0  0.3370001755418551 0.2008294612433967 0  0.4990181662600459 0.1999023426490902 0  0.3552816175709044 0.2000000000000608 0  0.4841867491431925 0.1999023426490849 0  0.3707373713905551 0.2000142376953689 0  0.3898882575102495 0.2000000000000828 0  0.4689857550492734 0.1995416724256694 0  0.4541577316841967 0.1999999999999098 0  0.4043534914018331 0.2000976573509244 0  0.4195510917439569 0.2000000000001057 0  0.4387019778644512 0.1999857623046772 0  0.3202472750256703 0.2000088842146399 0  0.5584053541080851 0.1999911157853577 0  0.4280667146887134 0.1998489048208241 0  0.3467659946265474 0.2001510951794375 0  0.3813726345658908 0.200151095179452 0  0.2860683376922098 0.2000415445706182 0  0.5911223811781194 0.1982449159348744 0  0.2679893161458627 0.201675125646729 0  0.4615734402426278 0.2022503633288003 0  0.4912362744763454 0.2022503633288091 0  0.5060676915931983 0.2022503633288118 0  0.3973039660686774 0.1977496366711965 0  0.4764048573594896 0.2022503633288051 0  0.5208991087100455 0.2022503633288184 0  0.4467420231257656 0.2022503633288 0  0.5357305258268849 0.2022503633288198 0  0.4121353831855317 0.1977496366711976 0  0.3626973261293352 0.1977496366711919 0  0.3033716576618961 0.1977496366711869 0  0.5752809714718229 0.1977496366711503 0  0.550459855919056 0.1971284784737667 0  0.3281927732146841 0.2028715215262406 0  0.5484179020497461 0.2038403215694763 0  0.3302347270839988 0.1961596784305491 0  0.5379210852238114 0.196125181664411 0  0.5230896681069652 0.1961251816644058 0  0.5082582509901222 0.1961251816644098 0  0.5774715308687094 0.2038748183355887 0  0.3011810982649548 0.2038748183355937 0  0.4785954167564111 0.196125181664404 0  0.4934268338732671 0.1961251816644063 0  0.395113406671763 0.2038748183355966 0  0.3605067667324117 0.2038748183355951 0  0.4593828808457146 0.1961251816643993 0  0.4489325825226805 0.1961251816644007 0  0.4099448237886219 0.2038748183355991 0  0.2557862999801971 0.1960858370257295 0  0.2550147360309399 0.2034426429991114 0  0.4348031476464689 0.2037737577641554 0  0.37463620160841 0.1962262422358553 0  0.3406258365864304 0.196046792193989 0  0.2813001681189834 0.1960467921940502 0  0.2912686387439893 0.1960816328649282 0  0.4246705335819892 0.2039532078059544 0  0.350162175732913 0.1960467921941878 0  0.3847688156722694 0.1960467921942359 0  0.316632368538356 0.19615945856337 0  0.5621550011053409 0.2037816492598991 0  0.5624413877019769 0.1960761923611377 0  0.3162395035833128 0.2038679557424692 0  0.2710887134207622 0.1959696443325838 0  0.5873014376403604 0.2047227881030823 0  0.4346679566442709 0.1954651459552513 0  0.4243296504077986 0.1958756980939062 0  0.3402559510833523 0.2047940500290923 0  0.2808684926760933 0.2047742417812656 0  0.2914077033138723 0.2047809517070955 0  0.3747713926104932 0.2045348540448554 0  0.3499216488898867 0.2051753413186305 0  0.3845282888292298 0.205175341318636 0  0.2648144865455052 0.1962089742986374 0  0.5943247643662894 0.2040415423589182 0  0.5320972610456145 0.1956445099050872 0  0.5172658439287727 0.1956445099050854 0  0.3069923255602658 0.2043468033872551 0  0.5024344268119265 0.1956445099050864 0  0.5716603035734351 0.2043468033872761 0  0.4876030096950741 0.1956445099050831 0  0.4728151975296263 0.1956402468909894 0  0.3663301776527538 0.20436745486386 0  0.4651631000724991 0.1956402468909893 0  0.4009372308499527 0.2043554900949198 0  0.4431091716023345 0.1956325451361429 0  0.4157593408842466 0.2043565497109067 0  0.5865057328865416 0.1956918868509067 0  0.5541600609760193 0.2044335994013721 0  0.3244925681577497 0.1955664005986376 0  0.272008018888917 0.2049327968152409 0  0.2633407725863902 0.2042483236346266 0  0.4567948413982566 0.2046536472831198 0  0.4167680012832803 0.1955060004091903 0  0.4716262585151221 0.2046536472831242 0  0.5161054367030595 0.2045563706470633 0  0.4864426024693469 0.2045563706470604 0  0.5012740195862044 0.2045563706470634 0  0.4022810343427545 0.1961423961483001 0  0.4420739040821668 0.2044853411424516 0  0.3673807293464664 0.1955677741328205 0  0.3925253672243162 0.195346352716901 0  0.5405091246712254 0.2046536472831267 0  0.357918727284983 0.1953463527168901 0  0.5307534575528717 0.2038576038516682 0  0.3079697655029555 0.1955637092892754 0  0.2985930588175599 0.1953463527168728 0  0.579671714346879 0.1955441268455555 0  0.5705023726275059 0.1953463527168462 0  0.5112451461103119 0.2035640580783926 0  0.4964137289934448 0.2035640580783915 0  0.4665727251511405 0.2038238154617746 0  0.5259274680675793 0.2038006696000127 0  0.4815823118765752 0.2035640580783898 0  0.4517504165552094 0.2039070625502732 0  0.4071070238280551 0.1961993303999926 0  0.3234846806957546 0.2047001437739977 0  0.5551679484379799 0.1952998562260008 0  0.5457754356464107 0.1954447171286166 0  0.3329307555206357 0.2046017509710421 0  0.4541577316841968 0.1960357661898101 0  0.3358300776141575 0.1950765652117375 0  0.2539718587514912 0.200011552766824 0  0.5826472073721517 0.2039971170156656 0  0.2761021761080182 0.1946948236183283 0  0.3898581462796225 0.2041572776584344 0  0.3552515063402743 0.2041572776584256 0  0.2965028074750666 0.2046578268138723 0  0.4299158836614793 0.1951782397873778 0  0.379426563923736 0.2049969334481307 0  0.2860882692072842 0.2042624797643994 0  0.3449948044168807 0.2051793676155613 0  0.2603922435707652 0.1950997711614917 0  0.5949856943860
[...]
<PointData  Vectors="f_18-1"> 
<DataArray  type="Float64"  Name="f_18-1"  NumberOfComponents="3" format="ascii">-2.6843359177721446e-02 -1.1326191713537229e-01 0.0000000000000000e+00  -1.7982803101910399e-02 -1.1533181576749796e-01 0.0000000000000000e+00  0.0000000000000000e+00 0.0000000000000000e+00 0.0000000000000000e+00  0.0000000000000000e+00 0.0000000000000000e+00 0.0000000000000000e+00  -2.2413018851692727e-02 -1.1429682700552063e-01 0.0000000000000000e+00  0.0000000000000000e+00 0.0000000000000000e+00 0.0000000000000000e+00  0.0000000000000000e+00 0.0000000000000000e+00 0.0000000000000000e+00  0.0000000000000000e+00 0.0000000000000000e+00 0.0000000000000000e+00  0.0000000000000000e+00 0.0000000000000000e+00 0.0000000000000000e+00  1.4628628220165969e-04 -1.2792081282975826e-04 0.0000000000000000e+00  3.0719618845229715e-04 -2.6919136177767911e-04 0.0000000000000000e+00  4.6576728728401701e-04 -4.5007870697789400e-04 0.0000000000000000e+00  6.1237454097622861e-04 -7.5202932142152392e-04 0.0000000000000000e+00  7.4779289001877260e-04 -1.1202320723356491e-03 0.0000000000000000e+00  8.8371900392879635e-04 -1.5818696058919179e-03 0.0000000000000000e+00  1.0003440138318391e-03 -2.0924032147559674e-03 0.0000000000000000e+00  1.0957522787476905e-03 -2.6879616095636205e-03 0.0000000000000000e+00  1.1855363614514181e-03 -3.3514126571072872e-03 0.0000000000000000e+00  1.2583305627369148e-03 -4.0821885497269320e-03 0.0000000000000000e+00  1.3266919790269403e-03 -4.9043571171497758e-03 0.0000000000000000e+00  1.3918700433912592e-03 -5.7417166569586767e-03 0.0000000000000000e+00  1.4214550213738036e-03 -6.6791748205043871e-03 0.0000000000000000e+00  1.4627590843967315e-03 -7.6737649032511835e-03 0.0000000000000000e+00  1.4668843987012154e-03 -8.7159036642491545e-03 0.0000000000000000e+00  1.4618860427961055e-03 -9.8324874451149406e-03 0.0000000000000000e+00  1.4407450262234815e-03 -1.0990925631053214e-02 0.0000000000000000e+00  1.3986965266190076e-03 -1.2220604883907204e-02 0.0000000000000000e+00  1.3387031959617504e-03 -1.3479227689251624e-02 0.0000000000000000e+00  1.2627398029905403e-03 -1.4799082371795436e-02 0.0000000000000000e+00  1.1686601959398941e-03 -1.6160744621327907e-02 0.0000000000000000e+00  1.0552636160640091e-03 -1.7563641532729431e-02 0.0000000000000000e+00  9.3057346296796829e-04 -1.9036482759495769e-02 0.0000000000000000e+00  8.0287597840245843e-04 -2.0519861993387411e-02 0.0000000000000000e+00  6.4639759251414208e-04 -2.2063558886477451e-02 0.0000000000000000e+00  4.7447629987221098e-04 -2.3632297898882944e-02 0.0000000000000000e+00  2.8649364093649037e-04 -2.5247190388887314e-02 0.0000000000000000e+00  8.2535155379217503e-05 -2.6894892372162964e-02 0.0000000000000000e+00  -1.3945174718946291e-04 -2.8573395400672642e-02 0.0000000000000000e+00  -3.7381360069197887e-04 -3.0304943759140834e-02 0.0000000000000000e+00  -6.1055246724963134e-04 -3.2041730937339551e-02 0.0000000000000000e+00  -8.7722304752911367e-04 -3.3821733718157755e-02 0.0000000000000000e+00  -1.1549612735782060e-03 -3.5638665513315064e-02 0.0000000000000000e+00  -1.4367074532829341e-03 -3.7464083724965985e-02 0.0000000000000000e+00  -1.7444501764457255e-03 -3.9328182592145676e-02 0.0000000000000000e+00  -2.0530148989297702e-03 -4.1214134501240320e-02 0.0000000000000000e+00  -2.3831335830697413e-03 -4.3122112884335574e-02 0.0000000000000000e+00  -2.7180847277046795e-03 -4.5059104933681204e-02 0.0000000000000000e+00  -3.0696615372782896e-03 -4.7010216909224196e-02 0.0000000000000000e+00  -3.4340324578544718e-03 -4.8985293451367387e-02 0.0000000000000000e+00  -3.8051415901001603e-03 -5.0977956767577770e-02 0.0000000000000000e+00  -4.1858783349118748e-03 -5.2990461599533308e-02 0.0000000000000000e+00  -4.5808573699878752e-03 -5.5019357486541562e-02 0.0000000000000000e+00  -4.9815512689477389e-03 -5.7063696453463368e-02 0.0000000000000000e+00  -5.3914225338840003e-03 -5.9125244101920049e-02 0.0000000000000000e+00  -5.8136084575136204e-03 -6.1200490779624625e-02 0.0000000000000000e+00  -6.2416761757556911e-03 -6.3288278571028797e-02 0.0000000000000000e+00  -6.6776996148597088e-03 -6.5390244343648776e-02 0.0000000000000000e+00  -7.1236080668174648e-03 -6.7502417920974556e-02 0.0000000000000000e+00  -7.5746248288341951e-03 -6.9624540184245035e-02 0.0000000000000000e+00  -8.0322418434139627e-03 -7.1757662562327504e-02 0.0000000000000000e+00  -8.4979346381023665e-03 -7.3898666134469201e-02 0.0000000000000000e+00  -8.9678425981326824e-03 -7.6047075036143094e-02 0.0000000000000000e+00  -9.4431800899858562e-03 -7.8203651463224527e-02 0.0000000000000000e+00  -9.9248097258479422e-03 -8.0365775527891925e-02 0.0000000000000000e+00  -1.0409527706779251e-02 -8.2533388280280659e-02 0.0000000000000000e+00  -1.0898477798518793e-02 -8.4706444054206076e-02 0.0000000000000000e+00  -1.1391646052962529e-02 -8.6883360354109138e-02 0.0000000000000000e+00  -1.1888306807865521e-02 -8.9063008397650953e-02 0.0000000000000000e+00  -1.2388513466054548e-02 -9.1246043548939226e-02 0.0000000000000000e+00  -1.2891026107797531e-02 -9.3432043539076332e-02 0.0000000000000000e+00  -1.3394311971387088e-02 -9.5618336769892370e-02 0.0000000000000000e+00  -1.3900666808048440e-02 -9.7807142285090007e-02 0.0000000000000000e+00  -1.4407743204926453e-02 -9.9997002330757825e-02 0.0000000000000000e+00  -1.4916493659933451e-02 -1.0218722729877973e-01 0.0000000000000000e+00  -1.5426489575237614e-02 -1.0437821794957111e-01 0.0000000000000000e+00  -1.5936909855756548e-02 -1.0656908533803310e-01 0.0000000000000000e+00  -1.6448078248770003e-02 -1.0876001080058043e-01 0.0000000000000000e+00  -1.6959587932383842e-02 -1.1095090392066252e-01 0.0000000000000000e+00  -1.7471130998936726e-02 -1.1314141014882502e-01 0.0000000000000000e+00  -2.6331628874733056e-02 -1.1107154629038361e-01 0.0000000000000000e+00  -2.5819733584456453e-02 -1.0888109269056123e-01 0.0000000000000000e+00  -2.5307608955174175e-02 -1.0669051162086363e-01 0.0000000000000000e+00  -2.4795177126621909e-02 -1.0450010059647297e-01 0.0000000000000000e+00  -2.4282546817193936e-02 -1.0231018359147041e-01 0.0000000000000000e+00  -2.3769555775877478e-02 -1.0012062606220322e-01 0.0000000000000000e+00  -2.3256395127792918e-02 -9.7932461446255573e-02 0.0000000000000000e+00  -2.2742647254755909e-02 -9.5745886364704769e-02 0.0000000000000000e+00  -2.2229197571449789e-02 -9.3560496326178924e-02 0.0000000000000000e+00  -2.1715743524634654e-02 -9.1378269936257805e-02 0.0000000000000000e+00  -2.1202116949254449e-02 -8.9197942086022136e-02 0.0000000000000000e+00  -2.0689800410846879e-02 -8.7021481015936597e-02 0.0000000000000000e+00  -2.0177805249448282e-02 -8.4850465618233992e-02 0.0000000000000000e+00  -1.9664971325302032e-02 -8.2681101086378189e-02 0.0000000000000000e+00  -1.9154981770651960e-02 -8.0518536864792989e-02 0.0000000000000000e+00  -1.8645856451927987e-02 -7.8364628794008073e-02 0.0000000000000000e+00  -1.8136027640276362e-02 -7.6213250811880032e-02 0.0000000000000000e+00  -1.7631229565538007e-02 -7.4071661044931139e-02 0.0000000000000000e+00  -1.7127808818753101e-02 -7.1941747446419332e-02 0.0000000000000000e+00  -1.6623690327176380e-02 -6.9815205874341507e-02 0.0000000000000000e+00  -1.6126820148625889e-02 -6.7701828723917015e-02 0.0000000000000000e+00  -1.5632027440829647e-02 -6.5603584477030741e-02 0.0000000000000000e+00  -1.5136580123051130e-02 -6.3509586748811395e-02 0.0000000000000000e+00  -1.4650773729250442e-02 -6.1432311688533789e-02 0.0000000000000000e+00  -1.4167751161093527e-02 -5.9374154793235601e-02 0.0000000000000000e+00  -1.3685100882803046e-02 -5.7322979875784524e-02 0.0000000000000000e+00  -1.3211103821153642e-02 -5.5289928562273202e-02 0.0000000000000000e+00  -1.2742110822903758e-02 -5.3280781227219583e-02 0.0000000000000000e+00  -1.2274118355832943e-02 -5.1276244548022702e-02 0.0000000000000000e+00  -1.1821228089564024e-02 -4.9295437353027417e-02 0.0000000000000000e+00  -1.1370777638560625e-02 -4.7345305219350139e-02 0.0000000000000000e+00  -1.0920146885980996e-02 -4.5402233847010164e-02 0.0000000000000000e+00  -1.0483110634036891e-02 -4.3489163088247795e-02 0.0000000000000000e+00  -1.0053286726283773e-02 -4.1590869951111262e-02 0.0000000000000000e+00  -9.6308286016241074e-03 -3.9718700615362590e-02 0.0000000000000000e+00  -9.2208685074516884e-03 -3.7877744770351419e-02 0.0000000000000000e+00  -8.8091757828670549e-03 -3.6055853918334831e-02 0.0000000000000000e+00  -8.4118192349240863e-03 -3.4265068058148211e-02 0.0000000000000000e+00  -8.0175842949798681e-03 -3.2502414890722142e-02 0.0000000000000000e+00  -7.6302767019373668e-03 -3.0772269903986144e-02 0.0000000000000000e+00  -7.2549403013954621e-03 -2.9075487943317515e-02 0.0000000000000000e+00  -6.8940089072254910e-03 -2.7402511785622762e-02 0.0000000000000000e+00  -6.5448363173257309e-03 -2.5767583954552680e-02 0.0000000000000000e+00  -6.1866946483436118e-03 -2.4164307055188954e-02 0.0000000000000000e+00  -5.8544330867307051e-03 -2.2600707353128264e-02 0.0000000000000000e+00  -5.5182440374598385e-03 -2.1083747676423074e-02 0.0000000000000000e+00  -5.2031775867624613e-03 -1.9595453474587597e-02 0.0000000000000000e+00  -4.8947994959543540e-03 -1.8159178697892412e-02 0.0000000000000000e+00  -4.6017339799204167e-03 -1.6752372572757707e-02 0.0000000000000000e+00  -4.3216952381969036e-03 -1.5395481108518520e-02 0.0000000000000000e+00  -4.0281719160032278e-03 -1.4077408453372218e-02 0.0000000000000000e+00  -3.7646623951810678e-03 -1.2808622293761869e-02 0.0000000000000000e+00  -3.4914957055200992e-03 -1.1599666402240848e-02 0.0000000000000000e+00  -3.2498146442748606e-03 -1.0430605955401791e-02 0.0000000000000000e+00  -3.0131686237965857e-03 -9.3367302645072613e-03 0.0000000000000000e+00  -2.7729452591763529e-03 -8.2598966990583538e-03 0.0000000000000000e+00  -2.5556449053743477e-03 -7.2627236165630103e-03 0.0000000000000000e+00  -2.3187319805169112e-03 -6.3215221114247414e-03 0.0000000000000000e+00  -2.1151564932384626e-03 -5.4320167076577002e-03 0.0000000000000000e+00  -1.9139306291993134e-03 -4.6226049844394143e-03 0.0000000000000000e+00  -1.7247784028968684e-03 -3.8567119698952944e-03 0.0000000000000000e+00  -1.5456019329791986e-03 -3.1676598105220654e-03 0.0000000000000000e+00  -1.3468514753581602e-03 -2.5319180825302164e-03 0.0000000000000000e+00  -1.1821319134177929e-03 -1.9659364387928126e-03 0.0000000000000000e+00  -9.9353021301037741e-04 -1.4715157251227293e-03 0.0000000000000000e+00  -8.3103951763199109e-04 -1.0605893984038770e-03 0.0000000000000000e+00  -6.4799032434945006e-04 -7.2186215022127648e-04 0.0000000000000000e+00  -4.8315894771083968e-04 -4.3634480475951746e-04 0.0000000000000000e+00  -3.2180721599709544e-04 -2.3702206710399809e-04 0.0000000000000000e+00  -1.5967013286478606e-04 -1.3567700304559975e-04 0.0000000000000000e+00  -2.4628124558190769e-02 -1.1377940317449955e-01 0.0000000000000000e+00  -2.0197959409186162e-02 -1.1481428666830309e-01 0.0000000000000000e+00  1.5230100196705042e-05 -1.3015428542815778e-04 0.0000000000000000e+00  -1.6540331363391402e-02 -8.9127264832979725e-02 0.0000000000000000e+00  -1.9138506244358738e-02 -1.0022058154259236e-01 0.0000000000000000e+00  1.7308794563022559e-05 -1.3075186302253623e-03 0.0000000000000000e+00  -1.3618285426531028e-02 -7.6272380793662317e-02 0.0000000000000000e+00  -1.5108144450234612e-02 -8.2752804459525778e-02 0.0000000000000000e+00  -2.6624201680159666e-04 -3.2970234875440260e-03 0.0000000000000000e+00  -2.0832509275963092e-02 -1.0661830040787351e-01 0.0000000000000000e+00  -3.8305810711453147e-04 -5.8823387885097150e-03 0.0000000000000000e+00  -8.0953609556712607e-04 -1.1616913298891099e-02 0.0000000000000000e+00  -1.2160057381688632e-02 -6.9857930093657317e-02 0.0000000000000000e+00  -1.6506026354806693e-03 -1.6407753347148009e-02 0.0000000000000000e+00  -1.0743897164449012e-02 -6.3532075091492446e-02 0.0000000000000000e+00  -2.3273031073117499e-03 -2.0939044110794194e-02 0.0000000000000000e+00  -3.3516829668385167e-03 -2.7114728021271125e-02 0.0000000000000000e+00  -9.4956833831378960e-03 -5.7133372714772084e-02 0.0000000000000000e+00  -8.0105128186087979e-03 -5.1110356799954126e-02 0.0000000000000000e+00  -4.2076436427965014e-03 -3.2115263942023783e-02 0.0000000000000000e+00  -5.2837434263968272e-03 -3.7640526660705512e-02 0.0000000000000000e+00  -6.7410475261402217e-03 -4.4957820792703218e-02 0.0000000000000000e+00  -5.6527553352225227e-04 -7.7972835974603489e-03 0.0000000000000000e+00  -1.8113172521330590e-02 -9.5868327561343308e-02 0.0000000000000000e+00  -5.9671244396036762e-03 -4.0841715797578407e-02 0.0000000000000000e+00  -1.2931893745991012e-03 -1.4085903757096554e-02 0.0000000000000000e+00  -2.8276698063538041e-03 -2.4307178887931730e-02 0.0000000000000000e+00  -1.0163458072493705e-04 -2.2361332771190950e-03 0.0000000000000000e+00  -2.2271557997128152e-02 -1.1018171810883803e-01 0.0000000000000000e+00  7.8407333744009286e-05 -5.7965318390350491e-04 0.0000000000000000e+00  -7.7327626170388556e-03 -5.4321199510641169e-02 0.0000000000000000e+00  -1.0413650184377850e-02 -6.6750729361183148e-02 0.0000000000000000e+00  -1.1836640191425107e-02 -7.3128020683763700e-02 0.0000000000000000e+00  -4.5715357466360783e-03 -2.9506328341230736e-02 0.0000000000000000e+00  -9.0417792007826646e-03 -6.0472911212062060e-02 0.0000000000000000e+00  -1.3300288224699522e-02 -7.9581320853517046e-02 0.0000000000000000e+00  -6.4982620466774218e-03 -4.8321366890173502e-02 0.0000000000000000e+00  -1.4794278110342845e-02 -8.6089381660351794e-02 0.0000000000000000e+00  -5.5801197205598172e-03 -3.4760709150919944e-02 0.0000000000000000e+00  -2.6198725578004184e-03 -1.8438259001962189e-02 0.0000000000000000e+00  -6.3706372217855708e-04 -4.6434440416504167e-03 0.0000000000000000e+00  -2.0850198238798929e-02 -1.0311065246371980e-01 0.0000000000000000e+00  -1.8557689612842730e-02 -9.2061746732736191e-02 0.0000000000000000e+00  -1.2306654512218808e-04 -9.6006870540679065e-03 0.0000000000000000e+00  -1.5388217624477948e-02 -9.1848582275220511e-02 0.0000000000000000e+00  -1.6908737388791747e-03 -9.9029554725673218e-03 0.0000000000000000e+00  -1.7708500059569823e-02 -8.6431106252796139e-02 0.0000000000000000e+00  -1.6191529666526549e-02 -7.9925993983454485e-02 0.0000000000000000e+00  -1.4695704399542226e-02 -7.3476519106948898e-02 0.0000000000000000e+00  -1.8365153820146710e-02 -1.0471454155928203e-01 0.0000000000000000e+00  3.6727703949385675e-04 -4.3752859945709608e-03 0.0000000000000000e+00  -1.1803950952121259e-02 -6.0831856619042196e-02 0.0000000000000000e+00  -1.3229858020098399e-02 -6.7103884024604599e-02 0.0000000000000000e+00  -2.3397597627513203e-03 -2.9126827179527009e-02 0.0000000000000000e+00  -7.5190743545928659e-04 -1.8068130915378441e-02 0.0000000000000000e+00  -1.0037439909711787e-02 -5.2897664382596986e-02 0.0000000000000000e+00  -9.1118884944027655e-03 -4.8692677060055790e-02 0.0000000000000000e+00  -3.2181267595741856e-03 -3.4382481203107232e-02 0.0000000000000000e+00  -7.0568600313166275e-05 -5.5213226424399109e-05 0.0000000000000000e+00  5.0403400775617139e-05 -4.2650276905274101e-05 0.0000000000000000e+00  -4.9752182281214948e-03 -4.3738382652801562e-02 0.0000000000000000e+00  -3.7050447688724703e-03 -2.1969612867972065e-02 0.0000000000000000e+00  -2.1138548844765494e-03 -1.2377746068457087e-02 0.0000000000000000e+00  -4.7181392361928123e-04 -1.6825413968554546e-03 0.0000000000000000e+00  -6.3966423250570736e-04 -2.8478451286323009e-03 0.0000000000000000e+00  -4.1751135093097457e-03 -3.9862405916720030e-02 0.0000000000000000e+00  -2.5123860887421561e-03 -1.4852176104717327e-02 0.0000000000000000e+00  -4.3526902323055856e-03 -2.5196399872574774e-02 0.0000000000000000e+00  -1.2447255102788939e-03 -7.0068736734233772e-03 0.0000000000000000e+00  -1.6824482724073705e-02 -9.7919167670518531e-02 0.0000000000000000e+00  -2.0261329307989538e-02 -9.7251498043236143e-02 0.0000000000000000e+00  2.5969393137177351e-04 -7.0776189962168537e-03 0.0000000000000000e+00  -3.2409181078380331e-04 -7.9956056392304210e-04 0.0000000000000000e+00  -1.9006535092011719e-02 -1.0915889959071265e-01 0.0000000000000000e+00  -8.1716283322656961e-03 -4.3045113368274664e-02 0.0000000000000000e+00  -7.1840397202877788e-03 -3.9136828739322026e-02 0.0000000000000000e+00  8.2073495059660026e-05 -1.2570662115617503e-02 0.0000000000000000e+00  4.0818713029523805e-04 -1.6919058044526157e-03 0.0000000000000000e+00  4.8054325716486893e-04 -2.9501104282919593e-03 0.0000000000000000e+00  -1.1214871778461456e-03 -2.2431863029131759e-02 0.0000000000000000e+00  -6.3101056976100749e-05 -1.5138293940915691e-02 0.0000000000000000e+00  -1.3641259712831554e-03 -2.5629595126341533e-02 0.0000000000000000e+00  -2.0164109203342913e-04 -4.1683348085366513e-04 0.0000000000000000e+00  -2.0035165344607069e-02 -1.1220059189406102e-01 0.0000000000000000e+00  -1.7322780688129116e-02 -8.3823041923664729e-02 0.0000000000000000e+00  -1.5812092730696909e-02 -7.7338347911091773e-02 0.0000000000000000e+00  4.1454284587802924e-04 -5.3616993429649821e-03 0.0000000000000000e+00  -1.4325108309569182e-02 -7.0917607378230968e-02 0.0000000000000000e+00  -1.7555531663056997e-02 -1.0218828498971619e-01 0.0000000000000000e+00  -1.2871229372106068e-02 -6.4583083636974556e-02 0.0000000000000000e+00  -1.1465901677997091e-02 -5.8376836025738496e-02 0.0000000000000000e+00  -8.3344240613891253e-04 -1.9816879497331456e-02 0.0000000000000000e+00  -1.0756005621408229e-02 -5.5217825430126315e-02 0.0000000000000000e+00  -2.5104442318085131e-03 -3.1187194141829886e-02 0.0000000000000000e+00  -8.8137867453066468e-03 -4.6347141976377723e-02 0.0000000000000000e+00  -3.4211411710725632e-03 -3.6550600220730277e-02 0.0000000000000000e+00  -2.2924431770851541e-02 -1.0787184355129409e-01 0.0000000000000000e+00  -1.5714680406115095e-02 -9.4447799452118827e-02 0.0000000000000000e+00  -1.6232404652351249e-03 -8.6149929969329148e-03 0.0000000000000000e+00  3.2948490214516955e-04 -8.8370890060574057e-04 0.0000000000000000e+00  1.7705515916036877e-04 -3.3570479747519817e-04 0.0000000000000000e+00  -6.3567125373452261e-03 -5.2579020357807288e-02 0.0000000000000000e+00  -6.7411492115250268e-03 -3.6304100935775963e-02 0.0000000000000000e+00  -7.6176726809064656e-03 -5.8694855960449106e-02 0.0000000000000000e+00  -1.1821826350099549e-02 -7.7719193170539075e-02 0.0000000000000000e+00  -8.9898630809632472e-03 -6.4928350550315442e-02 0.0000000000000000e+00  -1.0382020276999419e-02 -7.1282837650435166e-02 0.0000000000000000e+00  -5.4647991183354346e-03 -3.1137771887611423e-02 0.0000000000000000e+00  -5.2491932004986768e-03 -4.6652268395183577e-02 0.0000000000000000e+00  -3.5056293565443020e-03 -1.9731006082658951e-02 0.0000000000000000e+00  -5.0796874312285054e-03 -2.7741265141129214e-02 0.0000000000000000e+00  -1.4223817337428869e-02 -8.8440297901731899e-02 0.0000000000000000e+00  -3.0755338595419646e-03 -1.6975351985071052e-02 0.0000000000000000e+00  -1.3586009612628368e-02 -8.4063503706721762e-02 0.0000000000000000e+00  -1.1184616169230862e-03 -5.3996655307848446e-03 0.0000000000000000e+00  -9.1308907131953227e-04 -3.8734386118741597e-03 0.0000000000000000e+00  -2.2281893842600601e-02 -1.0482820522595816e-01 0.0000000000000000e+00  -2.1419132064479939e-02 -1.0074560945077439e-01 0.0000000000000000e+00  -1.1774115551172439e-02 -7.5503393692500323e-02 0.0000000000000000e+00  -1.0342889476725467e-02 -6.9093595428940974e-02 0.0000000000000000e+00  -7.5182721786369320e-03 -5.6520195028866883e-02 0.0000000000000000e+00  -1.3125976207496235e-02 -8.1939100357629538e-02 0.0000000000000000e+00  -8.9613194951240708e-03 -6.2774060612762805e-02 0.0000000000000000e+00  -6.2414110079444434e-03 -5.0471026009475999e-02 0.0000000000000000e+00  -5.7803973860081452e-03 -3.2846769784716685e-02 0.0000000000000000e+00  3.4945864058931995e-04 -8.6097329008474333e-03 0.0000000000000000e+00  -1.9851480786979635e-02 -9.3954716477145858e-02 0.0000000000000000e+00  -1.8817198836849000e-02 -8.9822101739764779e-02 0.0000000000000000e+0