<?xml version="1.0"?>
<VTKFile type="UnstructuredGrid"  version="0.1"  >
<UnstructuredGrid>
<Piece  NumberOfPoints="439" NumberOfCells="725">
<Points>
<DataArray  type="Float64"  NumberOfComponents="3"  format="ascii">0.6 0.19 0  0.6 0.21 0  0.2489897949 0.21 0  0.2489897949 0.19 0  0.6 0.2 0  0.2496355385699469 0.2060260530378829 0  0.249959460510575 0.2020130349814059 0  0.2499594605105767 0.1979869650186357 0  0.24963553856995 0.1939739469621422 0  0.2539336006056293 0.21 0  0.2588774063112542 0.21 0  0.2638212120168921 0.21 0  0.26876501772253 0.21 0  0.2737088234281569 0.21 0  0.2786526291337753 0.21 0  0.2835964348393937 0.21 0  0.2885402405450166 0.21 0  0.2934840462506522 0.21 0  0.2984278519562708 0.21 0  0.3033716576618997 0.21 0  0.3083154633675181 0.21 0  0.3132592690731365 0.21 0  0.3182030747787549 0.21 0  0.3231468804843732 0.21 0  0.3280906861899917 0.21 0  0.3330344918956208 0.21 0  0.3379782976012284 0.21 0  0.3429221033068576 0.21 0  0.347865909012476 0.21 0  0.3528097147180944 0.21 0  0.3577535204237128 0.21 0  0.3626973261293311 0.21 0  0.3676411318349495 0.21 0  0.3725849375405788 0.21 0  0.3775287432461877 0.21 0  0.382472548951812 0.21 0  0.3874163546574338 0.21 0  0.3923601603630631 0.21 0  0.3973039660686706 0.21 0  0.4022477717742986 0.21 0  0.4071915774799107 0.21 0  0.4121353831855311 0.21 0  0.4170791888911518 0.21 0  0.4220229945967636 0.21 0  0.4269668003023918 0.21 0  0.4319106060080253 0.21 0  0.4368544117136773 0.21 0  0.4417982174193329 0.21 0  0.4467420231249967 0.21 0  0.4516858288306445 0.21 0  0.4566296345362864 0.21 0  0.461573440241916 0.21 0  0.4665172459475665 0.21 0  0.4714610516531998 0.21 0  0.4764048573588668 0.21 0  0.4813486630645134 0.21 0  0.486292468770176 0.21 0  0.4912362744758066 0.21 0  0.4961800801814611 0.21 0  0.5011238858870897 0.21 0  0.5060676915927493 0.21 0  0.5110114972983872 0.21 0  0.5159553030040036 0.21 0  0.5208991087096415 0.21 0  0.5258429144153002 0.21 0  0.5307867201209391 0.21 0  0.5357305258265987 0.21 0  0.5406743315322367 0.21 0  0.5456181372378529 0.21 0  0.5505619429434908 0.21 0  0.5555057486491456 0.21 0  0.5604495543547885 0.21 0  0.565393360060448 0.21 0  0.5703371657661116 0.21 0  0.5752809714717458 0.21 0  0.5802247771773834 0.21 0  0.5851685828830341 0.21 0  0.5901123885886809 0.21 0  0.5950561942943404 0.21 0  0.5950561942943833 0.19 0  0.590112388588758 0.19 0  0.5851685828831193 0.19 0  0.5802247771774727 0.19 0  0.5752809714718514 0.19 0  0.5703371657662308 0.19 0  0.565393360060618 0.19 0  0.5604495543549889 0.19 0  0.5555057486493581 0.19 0  0.5505619429437035 0.19 0  0.5456181372381043 0.19 0  0.540674331532505 0.19 0  0.5357305258268962 0.19 0  0.530786720121263 0.19 0  0.5258429144156628 0.19 0  0.5208991087100244 0.19 0  0.5159553030044218 0.19 0  0.5110114972988226 0.19 0  0.5060676915932177 0.19 0  0.5011238858875806 0.19 0  0.496180080181972 0.19 0  0.4912362744763531 0.19 0  0.4862924687707343 0.19 0  0.4813486630651046 0.19 0  0.4764048573594966 0.19 0  0.4714610516538683 0.19 0  0.4665172459482555 0.19 0  0.4615734402426349 0.19 0  0.4566296345370104 0.19 0  0.4516858288313808 0.19 0  0.4467420231257716 0.19 0  0.4417982174201465 0.19 0  0.4368544117145297 0.19 0  0.4319106060089131 0.19 0  0.4269668003032866 0.19 0  0.4220229945976482 0.19 0  0.4170791888920056 0.19 0  0.4121353831863594 0.19 0  0.4071915774806995 0.19 0  0.4022477717750478 0.19 0  0.3973039660693901 0.19 0  0.3923601603637548 0.19 0  0.3874163546581082 0.19 0  0.3824725489524824 0.19 0  0.3775287432468258 0.19 0  0.3725849375411773 0.19 0  0.3676411318355085 0.19 0  0.3626973261298614 0.19 0  0.3577535204242108 0.19 0  0.352809714718589 0.19 0  0.347865909012931 0.19 0  0.342922103307292 0.19 0  0.3379782976016536 0.19 0  0.3330344918960152 0.19 0  0.3280906861903751 0.19 0  0.3231468804847171 0.19 0  0.3182030747790592 0.19 0  0.3132592690734012 0.19 0  0.3083154633677581 0.19 0  0.3033716576621197 0.19 0  0.2984278519564813 0.19 0  0.2934840462508429 0.19 0  0.2885402405451874 0.19 0  0.2835964348395295 0.19 0  0.2786526291338716 0.19 0  0.2737088234282243 0.19 0  0.268765017722586 0.19 0  0.2638212120169476 0.19 0  0.2588774063113093 0.19 0  0.2539336006056579 0.19 0  0.6 0.1949999999999783 0  0.6 0.2049999999999729 0  0.2589734265316493 0.2005523893428403 0  0.5431462343853077 0.199999999999969 0  0.5682397894768162 0.1999704585808987 0  0.2774513927118024 0.2007941919421926 0  0.513849583376897 0.1999023426490919 0  0.5286810004937381 0.1999023426490969 0  0.2945108952057646 0.1992911908405386 0  0.5827780831384927 0.1995429801003349 0  0.3104128396569256 0.1999704585808978 0  0.3370001755418551 0.2008294612433967 0  0.4990181662600459 0.1999023426490902 0  0.3552816175709044 0.2000000000000608 0  0.4841867491431925 0.1999023426490849 0  0.3707373713905551 0.2000142376953689 0  0.3898882575102495 0.2000000000000828 0  0.4689857550492734 0.1995416724256694 0  0.4541577316841967 0.1999999999999098 0  0.4043534914018331 0.2000976573509244 0  0.4195510917439569 0.2000000000001057 0  0.4387019778644512 0.1999857623046772 0  0.3202472750256703 0.2000088842146399 0  0.5584053541080851 0.1999911157853577 0  0.4280667146887134 0.1998489048208241 0  0.3467659946265474 0.2001510951794375 0  0.3813726345658908 0.200151095179452 0  0.2860683376922098 0.2000415445706182 0  0.5911223811781194 0.1982449159348744 0  0.2679893161458627 0.201675125646729 0  0.4615734402426278 0.2022503633288003 0  0.4912362744763454 0.2022503633288091 0  0.5060676915931983 0.2022503633288118 0  0.3973039660686774 0.1977496366711965 0  0.4764048573594896 0.2022503633288051 0  0.5208991087100455 0.2022503633288184 0  0.4467420231257656 0.2022503633288 0  0.5357305258268849 0.2022503633288198 0  0.4121353831855317 0.1977496366711976 0  0.3626973261293352 0.1977496366711919 0  0.3033716576618961 0.1977496366711869 0  0.5752809714718229 0.1977496366711503 0  0.550459855919056 0.1971284784737667 0  0.3281927732146841 0.2028715215262406 0  0.5484179020497461 0.2038403215694763 0  0.3302347270839988 0.1961596784305491 0  0.5379210852238114 0.196125181664411 0  0.5230896681069652 0.1961251816644058 0  0.5082582509901222 0.1961251816644098 0  0.5774715308687094 0.2038748183355887 0  0.3011810982649548 0.2038748183355937 0  0.4785954167564111 0.196125181664404 0  0.4934268338732671 0.1961251816644063 0  0.395113406671763 0.2038748183355966 0  0.3605067667324117 0.2038748183355951 0  0.4593828808457146 0.1961251816643993 0  0.4489325825226805 0.1961251816644007 0  0.4099448237886219 0.2038748183355991 0  0.2557862999801971 0.1960858370257295 0  0.2550147360309399 0.2034426429991114 0  0.4348031476464689 0.2037737577641554 0  0.37463620160841 0.1962262422358553 0  0.3406258365864304 0.196046792193989 0  0.2813001681189834 0.1960467921940502 0  0.2912686387439893 0.1960816328649282 0  0.4246705335819892 0.2039532078059544 0  0.350162175732913 0.1960467921941878 0  0.3847688156722694 0.1960467921942359 0  0.316632368538356 0.19615945856337 0  0.5621550011053409 0.2037816492598991 0  0.5624413877019769 0.1960761923611377 0  0.3162395035833128 0.2038679557424692 0  0.2710887134207622 0.1959696443325838 0  0.5873014376403604 0.2047227881030823 0  0.4346679566442709 0.1954651459552513 0  0.4243296504077986 0.1958756980939062 0  0.3402559510833523 0.2047940500290923 0  0.2808684926760933 0.2047742417812656 0  0.2914077033138723 0.2047809517070955 0  0.3747713926104932 0.2045348540448554 0  0.3499216488898867 0.2051753413186305 0  0.3845282888292298 0.205175341318636 0  0.2648144865455052 0.1962089742986374 0  0.5943247643662894 0.2040415423589182 0  0.5320972610456145 0.1956445099050872 0  0.5172658439287727 0.1956445099050854 0  0.3069923255602658 0.2043468033872551 0  0.5024344268119265 0.1956445099050864 0  0.5716603035734351 0.2043468033872761 0  0.4876030096950741 0.1956445099050831 0  0.4728151975296263 0.1956402468909894 0  0.3663301776527538 0.20436745486386 0  0.4651631000724991 0.1956402468909893 0  0.4009372308499527 0.2043554900949198 0  0.4431091716023345 0.1956325451361429 0  0.4157593408842466 0.2043565497109067 0  0.5865057328865416 0.1956918868509067 0  0.5541600609760193 0.2044335994013721 0  0.3244925681577497 0.1955664005986376 0  0.272008018888917 0.2049327968152409 0  0.2633407725863902 0.2042483236346266 0  0.4567948413982566 0.2046536472831198 0  0.4167680012832803 0.1955060004091903 0  0.4716262585151221 0.2046536472831242 0  0.5161054367030595 0.2045563706470633 0  0.4864426024693469 0.2045563706470604 0  0.5012740195862044 0.2045563706470634 0  0.4022810343427545 0.1961423961483001 0  0.4420739040821668 0.2044853411424516 0  0.3673807293464664 0.1955677741328205 0  0.3925253672243162 0.195346352716901 0  0.5405091246712254 0.2046536472831267 0  0.357918727284983 0.1953463527168901 0  0.5307534575528717 0.2038576038516682 0  0.3079697655029555 0.1955637092892754 0  0.2985930588175599 0.1953463527168728 0  0.579671714346879 0.1955441268455555 0  0.5705023726275059 0.1953463527168462 0  0.5112451461103119 0.2035640580783926 0  0.4964137289934448 0.2035640580783915 0  0.4665727251511405 0.2038238154617746 0  0.5259274680675793 0.2038006696000127 0  0.4815823118765752 0.2035640580783898 0  0.4517504165552094 0.2039070625502732 0  0.4071070238280551 0.1961993303999926 0  0.3234846806957546 0.2047001437739977 0  0.5551679484379799 0.1952998562260008 0  0.5457754356464107 0.1954447171286166 0  0.3329307555206357 0.2046017509710421 0  0.4541577316841968 0.1960357661898101 0  0.3358300776141575 0.1950765652117375 0  0.2539718587514912 0.200011552766824 0  0.5826472073721517 0.2039971170156656 0  0.2761021761080182 0.1946948236183283 0  0.3898581462796225 0.2041572776584344 0  0.3552515063402743 0.2041572776584256 0  0.2965028074750666 0.2046578268138723 0  0.4299158836614793 0.1951782397873778 0  0.379426563923736 0.2049969334481307 0  0.2860882692072842 0.2042624797643994 0  0.3449948044168807 0.2051793676155613 0  0.2603922435707652 0.1950997711614917 0  0.5949856943860
[...]
<PointData  Vectors="f_18-1"> 
<DataArray  type="Float64"  Name="f_18-1"  NumberOfComponents="3" format="ascii">-1.4279422130207000e-02 -8.1209439118242410e-02 0.0000000000000000e+00  -7.9902986956267678e-03 -8.2224004710377691e-02 0.0000000000000000e+00  0.0000000000000000e+00 0.0000000000000000e+00 0.0000000000000000e+00  0.0000000000000000e+00 0.0000000000000000e+00 0.0000000000000000e+00  -1.1134794187727831e-02 -8.1716692471538968e-02 0.0000000000000000e+00  0.0000000000000000e+00 0.0000000000000000e+00 0.0000000000000000e+00  0.0000000000000000e+00 0.0000000000000000e+00 0.0000000000000000e+00  0.0000000000000000e+00 0.0000000000000000e+00 0.0000000000000000e+00  0.0000000000000000e+00 0.0000000000000000e+00 0.0000000000000000e+00  1.1006540004434850e-04 -9.6192683958682323e-05 0.0000000000000000e+00  2.3061142689487332e-04 -2.0137199307197052e-04 0.0000000000000000e+00  3.4940068178528966e-04 -3.3563530382453431e-04 0.0000000000000000e+00  4.5988357964177161e-04 -5.5906428901669964e-04 0.0000000000000000e+00  5.6246129074972247e-04 -8.3064746772431284e-04 0.0000000000000000e+00  6.6639895311332439e-04 -1.1704300290678910e-03 0.0000000000000000e+00  7.5672637402719170e-04 -1.5454203838922427e-03 0.0000000000000000e+00  8.3286050717943012e-04 -1.9822985276761354e-03 0.0000000000000000e+00  9.0617167331284981e-04 -2.4679021028712663e-03 0.0000000000000000e+00  9.6862025578396552e-04 -3.0018797229520184e-03 0.0000000000000000e+00  1.0302618460669370e-03 -3.6008717147813026e-03 0.0000000000000000e+00  1.0898448109413223e-03 -4.2102708866199644e-03 0.0000000000000000e+00  1.1269929440336423e-03 -4.8915694137107437e-03 0.0000000000000000e+00  1.1743856157472570e-03 -5.6123621974578843e-03 0.0000000000000000e+00  1.1969569804168138e-03 -6.3675983305225715e-03 0.0000000000000000e+00  1.2160005729177322e-03 -7.1749216931841471e-03 0.0000000000000000e+00  1.2252942351087129e-03 -8.0117556837455226e-03 0.0000000000000000e+00  1.2230326067634151e-03 -8.8987466189196698e-03 0.0000000000000000e+00  1.2095575721455044e-03 -9.8060493544564215e-03 0.0000000000000000e+00  1.1878745009114692e-03 -1.0756142978573704e-02 0.0000000000000000e+00  1.1557064517922749e-03 -1.1735519465863516e-02 0.0000000000000000e+00  1.1123995751982506e-03 -1.2743765458285972e-02 0.0000000000000000e+00  1.0651367666943338e-03 -1.3799960152492045e-02 0.0000000000000000e+00  1.0163249989265234e-03 -1.4863155562174353e-02 0.0000000000000000e+00  9.5138119889591412e-04 -1.5968579003575217e-02 0.0000000000000000e+00  8.7751956712280293e-04 -1.7091422593970479e-02 0.0000000000000000e+00  7.9563729589473067e-04 -1.8246138021641087e-02 0.0000000000000000e+00  7.0509478905362211e-04 -1.9423639501015087e-02 0.0000000000000000e+00  6.0449568902008006e-04 -2.0622747808673916e-02 0.0000000000000000e+00  4.9919688882952922e-04 -2.1858055372521699e-02 0.0000000000000000e+00  3.9265526199503271e-04 -2.3096885134278933e-02 0.0000000000000000e+00  2.6907605068090038e-04 -2.4366557689249019e-02 0.0000000000000000e+00  1.4072561534351943e-04 -2.5661501666539813e-02 0.0000000000000000e+00  1.0275033361645981e-05 -2.6962272399873078e-02 0.0000000000000000e+00  -1.3471979753031576e-04 -2.8290504677405886e-02 0.0000000000000000e+00  -2.7871432839250303e-04 -2.9633122892316760e-02 0.0000000000000000e+00  -4.3536410985321760e-04 -3.0991659852888185e-02 0.0000000000000000e+00  -5.9309365752126025e-04 -3.2369449225641354e-02 0.0000000000000000e+00  -7.6065998041324344e-04 -3.3757538138913405e-02 0.0000000000000000e+00  -9.3473709784674106e-04 -3.5162012257632137e-02 0.0000000000000000e+00  -1.1118525917231585e-03 -3.6578223275457233e-02 0.0000000000000000e+00  -1.2936759867373891e-03 -3.8007838638472950e-02 0.0000000000000000e+00  -1.4833593422195874e-03 -3.9448978022884301e-02 0.0000000000000000e+00  -1.6754793273066036e-03 -4.0900311565164736e-02 0.0000000000000000e+00  -1.8721021360331598e-03 -4.2363252391982395e-02 0.0000000000000000e+00  -2.0754407253721022e-03 -4.3835791761870364e-02 0.0000000000000000e+00  -2.2814865559418231e-03 -4.5316642144752485e-02 0.0000000000000000e+00  -2.4914030920713199e-03 -4.6807016178866040e-02 0.0000000000000000e+00  -2.7066777520685019e-03 -4.8304531759780021e-02 0.0000000000000000e+00  -2.9243054424163057e-03 -4.9808654001041702e-02 0.0000000000000000e+00  -3.1451090924112155e-03 -5.1320202201024713e-02 0.0000000000000000e+00  -3.3702711407749609e-03 -5.2837332018188132e-02 0.0000000000000000e+00  -3.5973875151737835e-03 -5.4359510463220490e-02 0.0000000000000000e+00  -3.8271386411162394e-03 -5.5887379374505962e-02 0.0000000000000000e+00  -4.0603731889377812e-03 -5.7419386544611949e-02 0.0000000000000000e+00  -4.2950349336443247e-03 -5.8955322051947749e-02 0.0000000000000000e+00  -4.5318758397338184e-03 -6.0495307107656084e-02 0.0000000000000000e+00  -4.7710924582359242e-03 -6.2038372914449490e-02 0.0000000000000000e+00  -5.0123672430870169e-03 -6.3583698135755609e-02 0.0000000000000000e+00  -5.2557302508785949e-03 -6.5131810012397484e-02 0.0000000000000000e+00  -5.5003875705293371e-03 -6.6682329535322563e-02 0.0000000000000000e+00  -5.7455386558099902e-03 -6.8233169441222291e-02 0.0000000000000000e+00  -5.9926034989706504e-03 -6.9786173403474303e-02 0.0000000000000000e+00  -6.2400725576259291e-03 -7.1340048410779303e-02 0.0000000000000000e+00  -6.4887134594858826e-03 -7.2894372928514306e-02 0.0000000000000000e+00  -6.7381758935896874e-03 -7.4449387968599359e-02 0.0000000000000000e+00  -6.9879575433568633e-03 -7.6004349028621909e-02 0.0000000000000000e+00  -7.2382840050239866e-03 -7.7559424069211624e-02 0.0000000000000000e+00  -7.4888713311757043e-03 -7.9114507359906633e-02 0.0000000000000000e+00  -7.7395261514970224e-03 -8.0669293889234106e-02 0.0000000000000000e+00  -1.4028589321458045e-02 -7.9654703530844959e-02 0.0000000000000000e+00  -1.3777673648847126e-02 -7.8099888828749284e-02 0.0000000000000000e+00  -1.3526612066144767e-02 -7.6544959030373852e-02 0.0000000000000000e+00  -1.3275316416223294e-02 -7.4990105931568046e-02 0.0000000000000000e+00  -1.3023833083693325e-02 -7.3435590876922308e-02 0.0000000000000000e+00  -1.2772054948195966e-02 -7.1881313675618674e-02 0.0000000000000000e+00  -1.2520018184106434e-02 -7.0328042050222084e-02 0.0000000000000000e+00  -1.2267401304825881e-02 -6.8775883124031323e-02 0.0000000000000000e+00  -1.2014898822551908e-02 -6.7224645331116509e-02 0.0000000000000000e+00  -1.1762108285768437e-02 -6.5675696362915731e-02 0.0000000000000000e+00  -1.1509054444033089e-02 -6.4128109634957450e-02 0.0000000000000000e+00  -1.1256619837635731e-02 -6.2583405845465803e-02 0.0000000000000000e+00  -1.1003987089584640e-02 -6.1042522054514117e-02 0.0000000000000000e+00  -1.0750702583539506e-02 -5.9502690229525340e-02 0.0000000000000000e+00  -1.0498867613896103e-02 -5.7967739111384697e-02 0.0000000000000000e+00  -1.0246957837347793e-02 -5.6438553158837237e-02 0.0000000000000000e+00  -9.9944528420771398e-03 -5.4910934254386097e-02 0.0000000000000000e+00  -9.7444969551298451e-03 -5.3390075221986688e-02 0.0000000000000000e+00  -9.4945046616783536e-03 -5.1876702779456357e-02 0.0000000000000000e+00  -9.2438372691475718e-03 -5.0365374170132420e-02 0.0000000000000000e+00  -8.9966891121075684e-03 -4.8862923567864668e-02 0.0000000000000000e+00  -8.7495855063951643e-03 -4.7370090774036526e-02 0.0000000000000000e+00  -8.5017181547885345e-03 -4.5879855614626527e-02 0.0000000000000000e+00  -8.2584786836235966e-03 -4.4400896106961171e-02 0.0000000000000000e+00  -8.0153709479466161e-03 -4.2934194809093079e-02 0.0000000000000000e+00  -7.7718952706543410e-03 -4.1471954165332586e-02 0.0000000000000000e+00  -7.5323269853854987e-03 -4.0021864390588947e-02 0.0000000000000000e+00  -7.2939369438984438e-03 -3.8587404361830495e-02 0.0000000000000000e+00  -7.0557541708303369e-03 -3.7155972887418100e-02 0.0000000000000000e+00  -6.8252081204749210e-03 -3.5740922085758534e-02 0.0000000000000000e+00  -6.5937085649958082e-03 -3.4345776439532447e-02 0.0000000000000000e+00  -6.3614674226298382e-03 -3.2955244763707682e-02 0.0000000000000000e+00  -6.1355080662565398e-03 -3.1585169427673768e-02 0.0000000000000000e+00  -5.9130011528954239e-03 -3.0225368251826069e-02 0.0000000000000000e+00  -5.6931605621484711e-03 -2.8883224300008687e-02 0.0000000000000000e+00  -5.4790452883419476e-03 -2.7562623827606172e-02 0.0000000000000000e+00  -5.2622766763896064e-03 -2.6254574640411123e-02 0.0000000000000000e+00  -5.0526098797703273e-03 -2.4968308948882339e-02 0.0000000000000000e+00  -4.8429296070536167e-03 -2.3701101222023551e-02 0.0000000000000000e+00  -4.6354982524244113e-03 -2.2456152170172067e-02 0.0000000000000000e+00  -4.4336761825461641e-03 -2.1234425464928919e-02 0.0000000000000000e+00  -4.2398033569014245e-03 -2.0029722066044784e-02 0.0000000000000000e+00  -4.0512253160115298e-03 -1.8851329963444956e-02 0.0000000000000000e+00  -3.8546360925116687e-03 -1.7693599729511168e-02 0.0000000000000000e+00  -3.6727226357116719e-03 -1.6564231763162591e-02 0.0000000000000000e+00  -3.4852186124377689e-03 -1.5465992114988789e-02 0.0000000000000000e+00  -3.3100303016684943e-03 -1.4388493932133173e-02 0.0000000000000000e+00  -3.1362072834294043e-03 -1.3346664393809934e-02 0.0000000000000000e+00  -2.9708369215643731e-03 -1.2325846566080628e-02 0.0000000000000000e+00  -2.8113800696209583e-03 -1.1339867570918372e-02 0.0000000000000000e+00  -2.6405875335170064e-03 -1.0379825881661258e-02 0.0000000000000000e+00  -2.4874680228883432e-03 -9.4554079362765171e-03 0.0000000000000000e+00  -2.3245430870355659e-03 -8.5718128831812623e-03 0.0000000000000000e+00  -2.1811403265123586e-03 -7.7176195318869149e-03 0.0000000000000000e+00  -2.0375774802205756e-03 -6.9161567674711627e-03 0.0000000000000000e+00  -1.8906337057813130e-03 -6.1267448168181998e-03 0.0000000000000000e+00  -1.7559851811239403e-03 -5.3942138005223109e-03 0.0000000000000000e+00  -1.6052944873578120e-03 -4.7006896840024511e-03 0.0000000000000000e+00  -1.4757956039886302e-03 -4.0451760760727654e-03 0.0000000000000000e+00  -1.3449269350786078e-03 -3.4469088915082134e-03 0.0000000000000000e+00  -1.2209047247392223e-03 -2.8804057857779544e-03 0.0000000000000000e+00  -1.1014279327834116e-03 -2.3694253771511563e-03 0.0000000000000000e+00  -9.6629427500825762e-04 -1.8966188417879732e-03 0.0000000000000000e+00  -8.5341346185999634e-04 -1.4755362792768438e-03 0.0000000000000000e+00  -7.2141748762079652e-04 -1.1061169100034928e-03 0.0000000000000000e+00  -6.0638623492306211e-04 -7.9867790718163724e-04 0.0000000000000000e+00  -4.7477311181704721e-04 -5.4423657300320405e-04 0.0000000000000000e+00  -3.5545107183433282e-04 -3.2973792701931421e-04 0.0000000000000000e+00  -2.3756905237461111e-04 -1.7947788619755638e-04 0.0000000000000000e+00  -1.1816632016960671e-04 -1.0203899988613715e-04 0.0000000000000000e+00  -1.2707050225582614e-02 -8.1463087993162292e-02 0.0000000000000000e+00  -9.5625756293054188e-03 -8.1970326334813701e-02 0.0000000000000000e+00  1.2475512393306929e-05 -9.9264861118985407e-05 0.0000000000000000e+00  -8.2576325553019858e-03 -6.3853204947560305e-02 0.0000000000000000e+00  -9.5330294002945425e-03 -7.1725957581462635e-02 0.0000000000000000e+00  2.2854574400726363e-05 -9.7648552204924913e-04 0.0000000000000000e+00  -6.8364715487840705e-03 -5.4737619237068255e-02 0.0000000000000000e+00  -7.5658550614905069e-03 -5.9333801402039026e-02 0.0000000000000000e+00  -1.6192057283728634e-04 -2.4487960016552927e-03 0.0000000000000000e+00  -1.0404670396323971e-02 -7.6276811051648588e-02 0.0000000000000000e+00  -2.0492046939614189e-04 -4.3454311312359330e-03 0.0000000000000000e+00  -3.8897091177171833e-04 -8.5197832292904056e-03 0.0000000000000000e+00  -6.1216906913188216e-03 -5.0186458817854475e-02 0.0000000000000000e+00  -8.6528454127988226e-04 -1.1993788268293020e-02 0.0000000000000000e+00  -5.4257903085199038e-03 -4.5694146859557833e-02 0.0000000000000000e+00  -1.2121456029018283e-03 -1.5262422610536140e-02 0.0000000000000000e+00  -1.7334897064702104e-03 -1.9700357501431870e-02 0.0000000000000000e+00  -4.8428006815420159e-03 -4.1151536266899574e-02 0.0000000000000000e+00  -4.0665064745387062e-03 -3.6854058376551653e-02 0.0000000000000000e+00  -2.1587665620602030e-03 -2.3283610243434325e-02 0.0000000000000000e+00  -2.7069075848725273e-03 -2.7239024468435347e-02 0.0000000000000000e+00  -3.4366107109006002e-03 -3.2466996989932433e-02 0.0000000000000000e+00  -2.9998466234440322e-04 -5.7448912228025006e-03 0.0000000000000000e+00  -9.0286922091494283e-03 -6.8636529822322892e-02 0.0000000000000000e+00  -3.0609616244958349e-03 -2.9529482841909475e-02 0.0000000000000000e+00  -6.7351813982717676e-04 -1.0313789464108308e-02 0.0000000000000000e+00  -1.4579385859672354e-03 -1.7683307687950373e-02 0.0000000000000000e+00  -5.4576105055630164e-05 -1.6644727082864243e-03 0.0000000000000000e+00  -1.1236250555953084e-02 -7.8835686788174458e-02 0.0000000000000000e+00  6.2082036391248257e-05 -4.3492333816641591e-04 0.0000000000000000e+00  -3.7302297967744861e-03 -3.9098667724721738e-02 0.0000000000000000e+00  -5.0452501270988794e-03 -4.7931885912549613e-02 0.0000000000000000e+00  -5.7410130997600835e-03 -5.2456845413303824e-02 0.0000000000000000e+00  -2.5139828922416808e-03 -2.1444482587001563e-02 0.0000000000000000e+00  -4.3731122788452674e-03 -4.3473127528262885e-02 0.0000000000000000e+00  -6.4558489608128461e-03 -5.7033128533516761e-02 0.0000000000000000e+00  -3.1226283950979757e-03 -3.4826495839970287e-02 0.0000000000000000e+00  -7.1855257595433326e-03 -6.1648065441748147e-02 0.0000000000000000e+00  -3.0297893088844880e-03 -2.5211178034876033e-02 0.0000000000000000e+00  -1.4996198813263836e-03 -1.3480044973712418e-02 0.0000000000000000e+00  -4.1202117444610816e-04 -3.4429758771082342e-03 0.0000000000000000e+00  -1.0587767963997597e-02 -7.3827723264940776e-02 0.0000000000000000e+00  -9.5239494331050487e-03 -6.5999828159502491e-02 0.0000000000000000e+00  6.0210150245814984e-05 -7.0443957878189743e-03 0.0000000000000000e+00  -7.3211221117664644e-03 -6.5697552489143399e-02 0.0000000000000000e+00  -1.0678240924218143e-03 -7.2989835348003171e-03 0.0000000000000000e+00  -9.2038091160563506e-03 -6.2027065060936380e-02 0.0000000000000000e+00  -8.4585348082495560e-03 -5.7411831142323837e-02 0.0000000000000000e+00  -7.7226727440209810e-03 -5.2835136309268949e-02 0.0000000000000000e+00  -8.7741803436539034e-03 -7.4827139084752470e-02 0.0000000000000000e+00  3.1821058490157024e-04 -3.2304253939727089e-03 0.0000000000000000e+00  -6.2928932035974218e-03 -4.3850048974025654e-02 0.0000000000000000e+00  -6.9994971832336118e-03 -4.8309540995026802e-02 0.0000000000000000e+00  -9.4214511917991759e-04 -2.1094215191435384e-02 0.0000000000000000e+00  -1.7191376774584798e-04 -1.3158610051591373e-02 0.0000000000000000e+00  -5.4124005701759936e-03 -3.8199736785807771e-02 0.0000000000000000e+00  -4.9467663713675366e-03 -3.5199530433766606e-02 0.0000000000000000e+00  -1.3710851410771534e-03 -2.4852584197636009e-02 0.0000000000000000e+00  -5.1682193186287833e-05 -4.2725154893981141e-05 0.0000000000000000e+00  3.8081899757652102e-05 -3.3082154194245377e-05 0.0000000000000000e+00  -2.2414784344538859e-03 -3.1533559472997984e-02 0.0000000000000000e+00  -2.1622041432783974e-03 -1.6043374232296834e-02 0.0000000000000000e+00  -1.3105370389326098e-03 -9.1022315813784373e-03 0.0000000000000000e+00  -3.3384993659551620e-04 -1.2589042906946801e-03 0.0000000000000000e+00  -4.4231537704526755e-04 -2.1223988049723754e-03 0.0000000000000000e+00  -1.8338092339987601e-03 -2.8765302913037086e-02 0.0000000000000000e+00  -1.5293911526012571e-03 -1.0898674586278334e-02 0.0000000000000000e+00  -2.5136179758773352e-03 -1.8368805315722631e-02 0.0000000000000000e+00  -8.1012015501255715e-04 -5.1823685062219182e-03 0.0000000000000000e+00  -8.0290133875483057e-03 -7.0006243632993043e-02 0.0000000000000000e+00  -1.0461550851671508e-02 -6.9706838672484464e-02 0.0000000000000000e+00  2.8600982688803487e-04 -5.2045731496430563e-03 0.0000000000000000e+00  -2.3382845529174731e-04 -6.0126858015886828e-04 0.0000000000000000e+00  -9.0057201279439784e-03 -7.7962474962520650e-02 0.0000000000000000e+00  -4.5254218284237644e-03 -3.1176311165156432e-02 0.0000000000000000e+00  -3.9899336031430444e-03 -2.8373158693522683e-02 0.0000000000000000e+00  2.7885423584690574e-04 -9.1853998384594966e-03 0.0000000000000000e+00  3.1518955934948622e-04 -1.2569664346209332e-03 0.0000000000000000e+00  3.8207148659728313e-04 -2.1833181320710915e-03 0.0000000000000000e+00  -3.0214534896699547e-04 -1.6289441510927205e-02 0.0000000000000000e+00  2.4091283918374607e-04 -1.1036936066691002e-02 0.0000000000000000e+00  -3.6942073758958047e-04 -1.8574942199173147e-02 0.0000000000000000e+00  -1.4646031171435187e-04 -3.1458084975131322e-04 0.0000000000000000e+00  -9.5760651312480870e-03 -8.0136940888873395e-02 0.0000000000000000e+00  -9.0605193563251252e-03 -6.0187434589641896e-02 0.0000000000000000e+00  -8.3177589116954272e-03 -5.5586435380367220e-02 0.0000000000000000e+00  3.6853175757095753e-04 -3.9508872953783218e-03 0.0000000000000000e+00  -7.5851762916945772e-03 -5.1028816091689418e-02 0.0000000000000000e+00  -8.3317493412424920e-03 -7.3023351488642391e-02 0.0000000000000000e+00  -6.8663045780878989e-03 -4.6528015971135643e-02 0.0000000000000000e+00  -6.1682014491739505e-03 -4.2112546992505370e-02 0.0000000000000000e+00  -1.7774537263769380e-04 -1.4412970648034486e-02 0.0000000000000000e+00  -5.8134015337507486e-03 -3.9862235174925299e-02 0.0000000000000000e+00  -9.8839744996490693e-04 -2.2562438224995183e-02 0.0000000000000000e+00  -4.8378205889370611e-03 -3.3533775302315501e-02 0.0000000000000000e+00  -1.4311821792800362e-03 -2.6394712508483544e-02 0.0000000000000000e+00  -1.1804660816758274e-02 -7.7254119835954010e-02 0.0000000000000000e+00  -7.4228427593028322e-03 -6.7528266252700891e-02 0.0000000000000000e+00  -1.0493313296430010e-03 -6.3617684752606636e-03 0.0000000000000000e+00  2.5025429918606681e-04 -6.5926709448675225e-04 0.0000000000000000e+00  1.3379861049252675e-04 -2.5230032059632592e-04 0.0000000000000000e+00  -2.8391991105983319e-03 -3.7814476631324520e-02 0.0000000000000000e+00  -3.7906275346386376e-03 -2.6349773276965322e-02 0.0000000000000000e+00  -3.4544342241882575e-03 -4.2162418040920580e-02 0.0000000000000000e+00  -5.5122168084024668e-03 -5.5662580368899386e-02 0.0000000000000000e+00  -4.1326918049812960e-03 -4.6590930105541307e-02 0.0000000000000000e+00  -4.8110568793212254e-03 -5.1099138868987530e-02 0.0000000000000000e+00  -3.0870315426036955e-03 -2.2636448031467426e-02 0.0000000000000000e+00  -2.3131903754170400e-03 -3.3598190584933324e-02 0.0000000000000000e+00  -2.0928291572256679e-03 -1.4434064136613741e-02 0.0000000000000000e+00  -2.9394537377947041e-03 -2.0206958073988542e-02 0.0000000000000000e+00  -6.6733908535802919e-03 -6.3261764687525701e-02 0.0000000000000000e+00  -1.8708093439774502e-03 -1.2442532461462581e-02 0.0000000000000000e+00  -6.4396995571365185e-03 -6.0175746122081208e-02 0.0000000000000000e+00  -7.4980225928108016e-04 -4.0051405013092319e-03 0.0000000000000000e+00  -6.2674531573721074e-04 -2.8817254621746708e-03 0.0000000000000000e+00  -1.1504058727109088e-02 -7.5097006869589103e-02 0.0000000000000000e+00  -1.1100174997210254e-02 -7.2203513849496304e-02 0.0000000000000000e+00  -5.5845891203596077e-03 -5.4113089026384099e-02 0.0000000000000000e+00  -4.8864853152078835e-03 -4.9567114744544255e-02 0.0000000000000000e+00  -3.4820542350028506e-03 -4.0632709182041780e-02 0.0000000000000000e+00  -6.2208369482206829e-03 -5.8670740663851875e-02 0.0000000000000000e+00  -4.2117707307736335e-03 -4.5081544691497222e-02 0.0000000000000000e+00  -2.8495709859041375e-03 -3.6327699215014553e-02 0.0000000000000000e+00  -3.2458086373496390e-03 -2.3861551173395546e-02 0.0000000000000000e+00  3.8182302953218832e-04 -6.3154511697935895e-03 0.0000000000000000e+00  -1.0335483677691135e-02 -6.7384495109490905e-02 0.0000000000000000e+00  -9.8137307619745040e-03 -6.4448459426993190e-02 0.0000000000000000e+00  3.059