<?xml version="1.0"?>
<VTKFile type="UnstructuredGrid"  version="0.1"  >
<UnstructuredGrid>
<Piece  NumberOfPoints="439" NumberOfCells="725">
<Points>
<DataArray  type="Float64"  NumberOfComponents="3"  format="ascii">0.6 0.19 0  0.6 0.21 0  0.2489897949 0.21 0  0.2489897949 0.19 0  0.6 0.2 0  0.2496355385699469 0.2060260530378829 0  0.249959460510575 0.2020130349814059 0  0.2499594605105767 0.1979869650186357 0  0.24963553856995 0.1939739469621422 0  0.2539336006056293 0.21 0  0.2588774063112542 0.21 0  0.2638212120168921 0.21 0  0.26876501772253 0.21 0  0.2737088234281569 0.21 0  0.2786526291337753 0.21 0  0.2835964348393937 0.21 0  0.2885402405450166 0.21 0  0.2934840462506522 0.21 0  0.2984278519562708 0.21 0  0.3033716576618997 0.21 0  0.3083154633675181 0.21 0  0.3132592690731365 0.21 0  0.3182030747787549 0.21 0  0.3231468804843732 0.21 0  0.3280906861899917 0.21 0  0.3330344918956208 0.21 0  0.3379782976012284 0.21 0  0.3429221033068576 0.21 0  0.347865909012476 0.21 0  0.3528097147180944 0.21 0  0.3577535204237128 0.21 0  0.3626973261293311 0.21 0  0.3676411318349495 0.21 0  0.3725849375405788 0.21 0  0.3775287432461877 0.21 0  0.382472548951812 0.21 0  0.3874163546574338 0.21 0  0.3923601603630631 0.21 0  0.3973039660686706 0.21 0  0.4022477717742986 0.21 0  0.4071915774799107 0.21 0  0.4121353831855311 0.21 0  0.4170791888911518 0.21 0  0.4220229945967636 0.21 0  0.4269668003023918 0.21 0  0.4319106060080253 0.21 0  0.4368544117136773 0.21 0  0.4417982174193329 0.21 0  0.4467420231249967 0.21 0  0.4516858288306445 0.21 0  0.4566296345362864 0.21 0  0.461573440241916 0.21 0  0.4665172459475665 0.21 0  0.4714610516531998 0.21 0  0.4764048573588668 0.21 0  0.4813486630645134 0.21 0  0.486292468770176 0.21 0  0.4912362744758066 0.21 0  0.4961800801814611 0.21 0  0.5011238858870897 0.21 0  0.5060676915927493 0.21 0  0.5110114972983872 0.21 0  0.5159553030040036 0.21 0  0.5208991087096415 0.21 0  0.5258429144153002 0.21 0  0.5307867201209391 0.21 0  0.5357305258265987 0.21 0  0.5406743315322367 0.21 0  0.5456181372378529 0.21 0  0.5505619429434908 0.21 0  0.5555057486491456 0.21 0  0.5604495543547885 0.21 0  0.565393360060448 0.21 0  0.5703371657661116 0.21 0  0.5752809714717458 0.21 0  0.5802247771773834 0.21 0  0.5851685828830341 0.21 0  0.5901123885886809 0.21 0  0.5950561942943404 0.21 0  0.5950561942943833 0.19 0  0.590112388588758 0.19 0  0.5851685828831193 0.19 0  0.5802247771774727 0.19 0  0.5752809714718514 0.19 0  0.5703371657662308 0.19 0  0.565393360060618 0.19 0  0.5604495543549889 0.19 0  0.5555057486493581 0.19 0  0.5505619429437035 0.19 0  0.5456181372381043 0.19 0  0.540674331532505 0.19 0  0.5357305258268962 0.19 0  0.530786720121263 0.19 0  0.5258429144156628 0.19 0  0.5208991087100244 0.19 0  0.5159553030044218 0.19 0  0.5110114972988226 0.19 0  0.5060676915932177 0.19 0  0.5011238858875806 0.19 0  0.496180080181972 0.19 0  0.4912362744763531 0.19 0  0.4862924687707343 0.19 0  0.4813486630651046 0.19 0  0.4764048573594966 0.19 0  0.4714610516538683 0.19 0  0.4665172459482555 0.19 0  0.4615734402426349 0.19 0  0.4566296345370104 0.19 0  0.4516858288313808 0.19 0  0.4467420231257716 0.19 0  0.4417982174201465 0.19 0  0.4368544117145297 0.19 0  0.4319106060089131 0.19 0  0.4269668003032866 0.19 0  0.4220229945976482 0.19 0  0.4170791888920056 0.19 0  0.4121353831863594 0.19 0  0.4071915774806995 0.19 0  0.4022477717750478 0.19 0  0.3973039660693901 0.19 0  0.3923601603637548 0.19 0  0.3874163546581082 0.19 0  0.3824725489524824 0.19 0  0.3775287432468258 0.19 0  0.3725849375411773 0.19 0  0.3676411318355085 0.19 0  0.3626973261298614 0.19 0  0.3577535204242108 0.19 0  0.352809714718589 0.19 0  0.347865909012931 0.19 0  0.342922103307292 0.19 0  0.3379782976016536 0.19 0  0.3330344918960152 0.19 0  0.3280906861903751 0.19 0  0.3231468804847171 0.19 0  0.3182030747790592 0.19 0  0.3132592690734012 0.19 0  0.3083154633677581 0.19 0  0.3033716576621197 0.19 0  0.2984278519564813 0.19 0  0.2934840462508429 0.19 0  0.2885402405451874 0.19 0  0.2835964348395295 0.19 0  0.2786526291338716 0.19 0  0.2737088234282243 0.19 0  0.268765017722586 0.19 0  0.2638212120169476 0.19 0  0.2588774063113093 0.19 0  0.2539336006056579 0.19 0  0.6 0.1949999999999783 0  0.6 0.2049999999999729 0  0.2589734265316493 0.2005523893428403 0  0.5431462343853077 0.199999999999969 0  0.5682397894768162 0.1999704585808987 0  0.2774513927118024 0.2007941919421926 0  0.513849583376897 0.1999023426490919 0  0.5286810004937381 0.1999023426490969 0  0.2945108952057646 0.1992911908405386 0  0.5827780831384927 0.1995429801003349 0  0.3104128396569256 0.1999704585808978 0  0.3370001755418551 0.2008294612433967 0  0.4990181662600459 0.1999023426490902 0  0.3552816175709044 0.2000000000000608 0  0.4841867491431925 0.1999023426490849 0  0.3707373713905551 0.2000142376953689 0  0.3898882575102495 0.2000000000000828 0  0.4689857550492734 0.1995416724256694 0  0.4541577316841967 0.1999999999999098 0  0.4043534914018331 0.2000976573509244 0  0.4195510917439569 0.2000000000001057 0  0.4387019778644512 0.1999857623046772 0  0.3202472750256703 0.2000088842146399 0  0.5584053541080851 0.1999911157853577 0  0.4280667146887134 0.1998489048208241 0  0.3467659946265474 0.2001510951794375 0  0.3813726345658908 0.200151095179452 0  0.2860683376922098 0.2000415445706182 0  0.5911223811781194 0.1982449159348744 0  0.2679893161458627 0.201675125646729 0  0.4615734402426278 0.2022503633288003 0  0.4912362744763454 0.2022503633288091 0  0.5060676915931983 0.2022503633288118 0  0.3973039660686774 0.1977496366711965 0  0.4764048573594896 0.2022503633288051 0  0.5208991087100455 0.2022503633288184 0  0.4467420231257656 0.2022503633288 0  0.5357305258268849 0.2022503633288198 0  0.4121353831855317 0.1977496366711976 0  0.3626973261293352 0.1977496366711919 0  0.3033716576618961 0.1977496366711869 0  0.5752809714718229 0.1977496366711503 0  0.550459855919056 0.1971284784737667 0  0.3281927732146841 0.2028715215262406 0  0.5484179020497461 0.2038403215694763 0  0.3302347270839988 0.1961596784305491 0  0.5379210852238114 0.196125181664411 0  0.5230896681069652 0.1961251816644058 0  0.5082582509901222 0.1961251816644098 0  0.5774715308687094 0.2038748183355887 0  0.3011810982649548 0.2038748183355937 0  0.4785954167564111 0.196125181664404 0  0.4934268338732671 0.1961251816644063 0  0.395113406671763 0.2038748183355966 0  0.3605067667324117 0.2038748183355951 0  0.4593828808457146 0.1961251816643993 0  0.4489325825226805 0.1961251816644007 0  0.4099448237886219 0.2038748183355991 0  0.2557862999801971 0.1960858370257295 0  0.2550147360309399 0.2034426429991114 0  0.4348031476464689 0.2037737577641554 0  0.37463620160841 0.1962262422358553 0  0.3406258365864304 0.196046792193989 0  0.2813001681189834 0.1960467921940502 0  0.2912686387439893 0.1960816328649282 0  0.4246705335819892 0.2039532078059544 0  0.350162175732913 0.1960467921941878 0  0.3847688156722694 0.1960467921942359 0  0.316632368538356 0.19615945856337 0  0.5621550011053409 0.2037816492598991 0  0.5624413877019769 0.1960761923611377 0  0.3162395035833128 0.2038679557424692 0  0.2710887134207622 0.1959696443325838 0  0.5873014376403604 0.2047227881030823 0  0.4346679566442709 0.1954651459552513 0  0.4243296504077986 0.1958756980939062 0  0.3402559510833523 0.2047940500290923 0  0.2808684926760933 0.2047742417812656 0  0.2914077033138723 0.2047809517070955 0  0.3747713926104932 0.2045348540448554 0  0.3499216488898867 0.2051753413186305 0  0.3845282888292298 0.205175341318636 0  0.2648144865455052 0.1962089742986374 0  0.5943247643662894 0.2040415423589182 0  0.5320972610456145 0.1956445099050872 0  0.5172658439287727 0.1956445099050854 0  0.3069923255602658 0.2043468033872551 0  0.5024344268119265 0.1956445099050864 0  0.5716603035734351 0.2043468033872761 0  0.4876030096950741 0.1956445099050831 0  0.4728151975296263 0.1956402468909894 0  0.3663301776527538 0.20436745486386 0  0.4651631000724991 0.1956402468909893 0  0.4009372308499527 0.2043554900949198 0  0.4431091716023345 0.1956325451361429 0  0.4157593408842466 0.2043565497109067 0  0.5865057328865416 0.1956918868509067 0  0.5541600609760193 0.2044335994013721 0  0.3244925681577497 0.1955664005986376 0  0.272008018888917 0.2049327968152409 0  0.2633407725863902 0.2042483236346266 0  0.4567948413982566 0.2046536472831198 0  0.4167680012832803 0.1955060004091903 0  0.4716262585151221 0.2046536472831242 0  0.5161054367030595 0.2045563706470633 0  0.4864426024693469 0.2045563706470604 0  0.5012740195862044 0.2045563706470634 0  0.4022810343427545 0.1961423961483001 0  0.4420739040821668 0.2044853411424516 0  0.3673807293464664 0.1955677741328205 0  0.3925253672243162 0.195346352716901 0  0.5405091246712254 0.2046536472831267 0  0.357918727284983 0.1953463527168901 0  0.5307534575528717 0.2038576038516682 0  0.3079697655029555 0.1955637092892754 0  0.2985930588175599 0.1953463527168728 0  0.579671714346879 0.1955441268455555 0  0.5705023726275059 0.1953463527168462 0  0.5112451461103119 0.2035640580783926 0  0.4964137289934448 0.2035640580783915 0  0.4665727251511405 0.2038238154617746 0  0.5259274680675793 0.2038006696000127 0  0.4815823118765752 0.2035640580783898 0  0.4517504165552094 0.2039070625502732 0  0.4071070238280551 0.1961993303999926 0  0.3234846806957546 0.2047001437739977 0  0.5551679484379799 0.1952998562260008 0  0.5457754356464107 0.1954447171286166 0  0.3329307555206357 0.2046017509710421 0  0.4541577316841968 0.1960357661898101 0  0.3358300776141575 0.1950765652117375 0  0.2539718587514912 0.200011552766824 0  0.5826472073721517 0.2039971170156656 0  0.2761021761080182 0.1946948236183283 0  0.3898581462796225 0.2041572776584344 0  0.3552515063402743 0.2041572776584256 0  0.2965028074750666 0.2046578268138723 0  0.4299158836614793 0.1951782397873778 0  0.379426563923736 0.2049969334481307 0  0.2860882692072842 0.2042624797643994 0  0.3449948044168807 0.2051793676155613 0  0.2603922435707652 0.1950997711614917 0  0.5949856943860
[...]
<PointData  Vectors="f_18-1"> 
<DataArray  type="Float64"  Name="f_18-1"  NumberOfComponents="3" format="ascii">-2.0707260686019806e-03 -2.6263255031931859e-02 0.0000000000000000e+00  -1.3895199708148943e-04 -2.6356821717099126e-02 0.0000000000000000e+00  0.0000000000000000e+00 0.0000000000000000e+00 0.0000000000000000e+00  0.0000000000000000e+00 0.0000000000000000e+00 0.0000000000000000e+00  -1.1048448165163652e-03 -2.6310032696779017e-02 0.0000000000000000e+00  0.0000000000000000e+00 0.0000000000000000e+00 0.0000000000000000e+00  0.0000000000000000e+00 0.0000000000000000e+00 0.0000000000000000e+00  0.0000000000000000e+00 0.0000000000000000e+00 0.0000000000000000e+00  0.0000000000000000e+00 0.0000000000000000e+00 0.0000000000000000e+00  4.0372911934482226e-05 -3.5178313971195398e-05 0.0000000000000000e+00  8.4233633658622919e-05 -7.3023422277238562e-05 0.0000000000000000e+00  1.2745813179310982e-04 -1.2103860248271674e-04 0.0000000000000000e+00  1.6810685281912804e-04 -2.0051309307142268e-04 0.0000000000000000e+00  2.0620118732173672e-04 -2.9662219582188683e-04 0.0000000000000000e+00  2.4543132437090308e-04 -4.1645481544658398e-04 0.0000000000000000e+00  2.8022829383273921e-04 -5.4824252945213318e-04 0.0000000000000000e+00  3.1092487840884546e-04 -7.0149920842141518e-04 0.0000000000000000e+00  3.4144327722486609e-04 -8.7128189526689448e-04 0.0000000000000000e+00  3.6909224635777506e-04 -1.0575513684628701e-03 0.0000000000000000e+00  3.9785033754081138e-04 -1.2655509318711341e-03 0.0000000000000000e+00  4.2599408347179736e-04 -1.4768240037587375e-03 0.0000000000000000e+00  4.4831173658233425e-04 -1.7124581215682039e-03 0.0000000000000000e+00  4.7505954136388689e-04 -1.9605505315909814e-03 0.0000000000000000e+00  4.9443619820706719e-04 -2.2204675185073437e-03 0.0000000000000000e+00  5.1419364955308973e-04 -2.4971307780696449e-03 0.0000000000000000e+00  5.3157341994418113e-04 -2.7834250546358362e-03 0.0000000000000000e+00  5.4680501729164916e-04 -3.0859483021046458e-03 0.0000000000000000e+00  5.5903276570311332e-04 -3.3949468041886421e-03 0.0000000000000000e+00  5.7006162868896771e-04 -3.7174415871134132e-03 0.0000000000000000e+00  5.7876160036146834e-04 -4.0491483360349280e-03 0.0000000000000000e+00  5.8502433354928082e-04 -4.3897953452103327e-03 0.0000000000000000e+00  5.9178546213285634e-04 -4.7446701169038697e-03 0.0000000000000000e+00  5.9817632705806841e-04 -5.1014630116613712e-03 0.0000000000000000e+00  6.0135592342900875e-04 -5.4710562781418075e-03 0.0000000000000000e+00  6.0256130450169615e-04 -5.8456936922271227e-03 0.0000000000000000e+00  6.0264078532863490e-04 -6.2294947754627031e-03 0.0000000000000000e+00  6.0112027702598268e-04 -6.6197832331618932e-03 0.0000000000000000e+00  5.9765765553521609e-04 -7.0161454773380446e-03 0.0000000000000000e+00  5.9435555962326176e-04 -7.4221635116695408e-03 0.0000000000000000e+00  5.9075281481966644e-04 -7.8290393836778997e-03 0.0000000000000000e+00  5.8392176692455148e-04 -8.2445596915510736e-03 0.0000000000000000e+00  5.7686970704899654e-04 -8.6665530900275154e-03 0.0000000000000000e+00  5.6944743393285075e-04 -9.0900220740399527e-03 0.0000000000000000e+00  5.5946546420971644e-04 -9.5208696896395897e-03 0.0000000000000000e+00  5.5024628168646333e-04 -9.9550836447282950e-03 0.0000000000000000e+00  5.3855341158541299e-04 -1.0393516555970584e-02 0.0000000000000000e+00  5.2730764872789017e-04 -1.0836432928617027e-02 0.0000000000000000e+00  5.1415757721076888e-04 -1.1282019033764553e-02 0.0000000000000000e+00  5.0017144048709156e-04 -1.1731473951701488e-02 0.0000000000000000e+00  4.8593620902866603e-04 -1.2183571782668301e-02 0.0000000000000000e+00  4.7114926523066330e-04 -1.2638727642406318e-02 0.0000000000000000e+00  4.5511391486350948e-04 -1.3096649473633077e-02 0.0000000000000000e+00  4.3891888334504132e-04 -1.3556757639308000e-02 0.0000000000000000e+00  4.2215039171076716e-04 -1.4019418217014907e-02 0.0000000000000000e+00  4.0432908581216346e-04 -1.4484286797142249e-02 0.0000000000000000e+00  3.8616989786369725e-04 -1.4950794810822092e-02 0.0000000000000000e+00  3.6745517557138435e-04 -1.5419178610550392e-02 0.0000000000000000e+00  3.4792506322904961e-04 -1.5888957016239172e-02 0.0000000000000000e+00  3.2806971429564369e-04 -1.6359768843027828e-02 0.0000000000000000e+00  3.0777206173760770e-04 -1.6831748535807736e-02 0.0000000000000000e+00  2.8692512862279703e-04 -1.7304532309427044e-02 0.0000000000000000e+00  2.6586257471064974e-04 -1.7777903486617549e-02 0.0000000000000000e+00  2.4453362257640456e-04 -1.8251979857015151e-02 0.0000000000000000e+00  2.2288153772211385e-04 -1.8726530979634549e-02 0.0000000000000000e+00  2.0115003480251331e-04 -1.9201502420740396e-02 0.0000000000000000e+00  1.7927605539796890e-04 -1.9676952440560724e-02 0.0000000000000000e+00  1.5722969784567420e-04 -2.0152792655552570e-02 0.0000000000000000e+00  1.3502234380601509e-04 -2.0628938796859359e-02 0.0000000000000000e+00  1.1265671813370252e-04 -2.1105475261412234e-02 0.0000000000000000e+00  9.0208062125738637e-05 -2.1582353261273626e-02 0.0000000000000000e+00  6.7707207202568289e-05 -2.2059292535668643e-02 0.0000000000000000e+00  4.5026401559418128e-05 -2.2536558166657113e-02 0.0000000000000000e+00  2.2305221613951319e-05 -2.3013949325287851e-02 0.0000000000000000e+00  -5.5666286656642128e-07 -2.3491431715537945e-02 0.0000000000000000e+00  -2.3515973820479622e-05 -2.3969005765227380e-02 0.0000000000000000e+00  -4.6525780131330479e-05 -2.4446592925557516e-02 0.0000000000000000e+00  -6.9598896972550576e-05 -2.4924184912208634e-02 0.0000000000000000e+00  -9.2708936505092517e-05 -2.5401755796253232e-02 0.0000000000000000e+00  -1.1583105907803574e-04 -2.5879291781794548e-02 0.0000000000000000e+00  -2.0476072040189184e-03 -2.5785729235020219e-02 0.0000000000000000e+00  -2.0244788412316240e-03 -2.5308165515292289e-02 0.0000000000000000e+00  -2.0013330415759060e-03 -2.4830568742191358e-02 0.0000000000000000e+00  -1.9781637809241155e-03 -2.4352961564122748e-02 0.0000000000000000e+00  -1.9549640872821581e-03 -2.3875381701912599e-02 0.0000000000000000e+00  -1.9317180783084531e-03 -2.3397810729833018e-02 0.0000000000000000e+00  -1.9084184128733536e-03 -2.2920358916442871e-02 0.0000000000000000e+00  -1.8850189594682499e-03 -2.2443029411712109e-02 0.0000000000000000e+00  -1.8616168076910054e-03 -2.1965827223061448e-02 0.0000000000000000e+00  -1.8381296962746939e-03 -2.1488913798600413e-02 0.0000000000000000e+00  -1.8145876320728217e-03 -2.1012168242231032e-02 0.0000000000000000e+00  -1.7910618862008645e-03 -2.0535797337557372e-02 0.0000000000000000e+00  -1.7674355249790395e-03 -2.0059866691670900e-02 0.0000000000000000e+00  -1.7437220907020670e-03 -1.9584036679390848e-02 0.0000000000000000e+00  -1.7200627275615595e-03 -1.9108771808864413e-02 0.0000000000000000e+00  -1.6962491563730171e-03 -1.8634097033408029e-02 0.0000000000000000e+00  -1.6723167267280532e-03 -1.8159560115263006e-02 0.0000000000000000e+00  -1.6484465620205807e-03 -1.7685781940795599e-02 0.0000000000000000e+00  -1.6242804411525720e-03 -1.7212840571680228e-02 0.0000000000000000e+00  -1.5998910762811487e-03 -1.6740117288519447e-02 0.0000000000000000e+00  -1.5755375075219155e-03 -1.6268605863286805e-02 0.0000000000000000e+00  -1.5506990394035869e-03 -1.5798527196418364e-02 0.0000000000000000e+00  -1.5255195973281389e-03 -1.5328843589120048e-02 0.0000000000000000e+00  -1.5004806711658080e-03 -1.4861185256178383e-02 0.0000000000000000e+00  -1.4748111780558866e-03 -1.4395846347315305e-02 0.0000000000000000e+00  -1.4487786537933851e-03 -1.3931395783123147e-02 0.0000000000000000e+00  -1.4228419104194690e-03 -1.3469467401617962e-02 0.0000000000000000e+00  -1.3963675004408330e-03 -1.3010880431149410e-02 0.0000000000000000e+00  -1.3697258803793866e-03 -1.2552922045883924e-02 0.0000000000000000e+00  -1.3438918855595162e-03 -1.2098774388842853e-02 0.0000000000000000e+00  -1.3168848565514174e-03 -1.1648890155402715e-02 0.0000000000000000e+00  -1.2894345914716541e-03 -1.1200020472388919e-02 0.0000000000000000e+00  -1.2623435985735260e-03 -1.0755908100279326e-02 0.0000000000000000e+00  -1.2354712201317793e-03 -1.0314316680973015e-02 0.0000000000000000e+00  -1.2082795510527935e-03 -9.8768793901569309e-03 0.0000000000000000e+00  -1.1813254593387608e-03 -9.4448246797846792e-03 0.0000000000000000e+00  -1.1530272372429287e-03 -9.0156667642033068e-03 0.0000000000000000e+00  -1.1253577199699183e-03 -8.5921851187611489e-03 0.0000000000000000e+00  -1.0966797760036510e-03 -8.1735003448955464e-03 0.0000000000000000e+00  -1.0674010141398826e-03 -7.7605601111834528e-03 0.0000000000000000e+00  -1.0383416967421608e-03 -7.3538878512627763e-03 0.0000000000000000e+00  -1.0104335478287507e-03 -6.9520058242182733e-03 0.0000000000000000e+00  -9.8260984736860233e-04 -6.5573235002744160e-03 0.0000000000000000e+00  -9.5157096954686239e-04 -6.1678041773879496e-03 0.0000000000000000e+00  -9.2302018579988392e-04 -5.7867575238549985e-03 0.0000000000000000e+00  -8.9132055733079840e-04 -5.4140848076370618e-03 0.0000000000000000e+00  -8.6195611996741565e-04 -5.0478775865139547e-03 0.0000000000000000e+00  -8.3126885197165330e-04 -4.6920697084123567e-03 0.0000000000000000e+00  -8.0187808740744240e-04 -4.3427667860824531e-03 0.0000000000000000e+00  -7.7257762230391422e-04 -4.0040671133789885e-03 0.0000000000000000e+00  -7.3865544814192793e-04 -3.6727310673300641e-03 0.0000000000000000e+00  -7.0837047392381626e-04 -3.3530847737735939e-03 0.0000000000000000e+00  -6.7324024194609746e-04 -3.0456841994111685e-03 0.0000000000000000e+00  -6.4283677399125741e-04 -2.7483992287729913e-03 0.0000000000000000e+00  -6.1026486154945635e-04 -2.4680080297719365e-03 0.0000000000000000e+00  -5.7604638508143612e-04 -2.1915440358033053e-03 0.0000000000000000e+00  -5.4360714799275335e-04 -1.9339474159483681e-03 0.0000000000000000e+00  -5.0459955372912960e-04 -1.6888024134395377e-03 0.0000000000000000e+00  -4.7113659499799145e-04 -1.4569223357994213e-03 0.0000000000000000e+00  -4.3538347598104767e-04 -1.2441874619900191e-03 0.0000000000000000e+00  -4.0082868019492148e-04 -1.0424665448784335e-03 0.0000000000000000e+00  -3.6622604825309731e-04 -8.5976715720836243e-04 0.0000000000000000e+00  -3.2533641295250565e-04 -6.8995597106572134e-04 0.0000000000000000e+00  -2.9067399281001543e-04 -5.3861422529096034e-04 0.0000000000000000e+00  -2.4834783485395577e-04 -4.0490097437576196e-04 0.0000000000000000e+00  -2.1063069660020231e-04 -2.9333518894177345e-04 0.0000000000000000e+00  -1.6616254803695951e-04 -2.0036832410414478e-04 0.0000000000000000e+00  -1.2533846471188932e-04 -1.2198432296860267e-04 0.0000000000000000e+00  -8.4310581097737811e-05 -6.6698655278484242e-05 0.0000000000000000e+00  -4.2122973153685444e-05 -3.7484502619730831e-05 0.0000000000000000e+00  -1.5877809653947735e-03 -2.6286639271435680e-02 0.0000000000000000e+00  -6.2190340399886858e-04 -2.6333431043099088e-02 0.0000000000000000e+00  5.1606117118550603e-06 -3.7265922241218075e-05 0.0000000000000000e+00  -8.3947443092088219e-04 -2.0820157097184468e-02 0.0000000000000000e+00  -9.5917084757616894e-04 -2.3241766429342219e-02 0.0000000000000000e+00  1.4509330295928425e-05 -3.5324544687499976e-04 0.0000000000000000e+00  -7.1354106555297238e-04 -1.8002515476919629e-02 0.0000000000000000e+00  -7.8183739725943592e-04 -1.9426916938578884e-02 0.0000000000000000e+00  -3.5550550162620170e-05 -8.7768632607058614e-04 0.0000000000000000e+00  -1.0684159032780763e-03 -2.4644266262452405e-02 0.0000000000000000e+00  -2.4373256624387653e-05 -1.5439669846653938e-03 0.0000000000000000e+00  -1.3162794856676362e-05 -2.9903211285206535e-03 0.0000000000000000e+00  -6.4576150835655836e-04 -1.6583063015898396e-02 0.0000000000000000e+00  -1.0042387707382430e-04 -4.1832248055672832e-03 0.0000000000000000e+00  -5.7879745075328814e-04 -1.5171915108894363e-02 0.0000000000000000e+00  -1.3908164908986803e-04 -5.2913835988648234e-03 0.0000000000000000e+00  -1.9675807942017890e-04 -6.7773925930302778e-03 0.0000000000000000e+00  -5.4513432531087130e-04 -1.3738420290364661e-02 0.0000000000000000e+00  -4.3876828813623733e-04 -1.2364708736983270e-02 0.0000000000000000e+00  -2.3713304899776019e-04 -7.9631149766828842e-03 0.0000000000000000e+00  -3.0034038995596082e-04 -9.2604866467328323e-03 0.0000000000000000e+00  -3.7628098566286176e-04 -1.0956460022561452e-02 0.0000000000000000e+00  -3.4583018816764205e-05 -2.0323588667380248e-03 0.0000000000000000e+00  -9.1127851580829978e-04 -2.2292121903942804e-02 0.0000000000000000e+00  -3.4586385284537539e-04 -1.0006941292265172e-02 0.0000000000000000e+00  -7.2806053779889254e-05 -3.6090156358864183e-03 0.0000000000000000e+00  -1.5917756490203315e-04 -6.1037063129590740e-03 0.0000000000000000e+00  -6.3556636495786325e-06 -5.9873746714207915e-04 0.0000000000000000e+00  -1.2328330995470106e-03 -2.5444300140516331e-02 0.0000000000000000e+00  2.4636975170392200e-05 -1.5862169339755607e-04 0.0000000000000000e+00  -2.6209613863411284e-04 -1.3059772838863158e-02 0.0000000000000000e+00  -3.8774787885979047e-04 -1.5852085107872105e-02 0.0000000000000000e+00  -4.5362132555273324e-04 -1.7267852630470228e-02 0.0000000000000000e+00  -4.0483191342475112e-04 -7.3717349716842136e-03 0.0000000000000000e+00  -3.2367676159791067e-04 -1.4447295662646296e-02 0.0000000000000000e+00  -5.2070115314621667e-04 -1.8689971302795230e-02 0.0000000000000000e+00  -2.0375471541809930e-04 -1.1695026280826335e-02 0.0000000000000000e+00  -5.8855256497503626e-04 -2.0116262651855853e-02 0.0000000000000000e+00  -4.6424938877921143e-04 -8.6141342044274514e-03 0.0000000000000000e+00  -2.7892801735201995e-04 -4.6997537205627936e-03 0.0000000000000000e+00  -1.0983099487251766e-04 -1.2308395307847396e-03 0.0000000000000000e+00  -1.2065170721224088e-03 -2.3911565677073001e-02 0.0000000000000000e+00  -1.1502695754467803e-03 -2.1512017179240683e-02 0.0000000000000000e+00  1.1286450745401709e-04 -2.4747519260155328e-03 0.0000000000000000e+00  -4.9380202638027047e-04 -2.1346437452665793e-02 0.0000000000000000e+00  -2.6994367361511727e-04 -2.5833361215551278e-03 0.0000000000000000e+00  -1.1881561209275489e-03 -2.0298761537044342e-02 0.0000000000000000e+00  -1.1185393201083012e-03 -1.8872078479505290e-02 0.0000000000000000e+00  -1.0489095243763056e-03 -1.7449486782656034e-02 0.0000000000000000e+00  -6.2528840792867933e-04 -2.4151877640102352e-02 0.0000000000000000e+00  1.4270327099848726e-04 -1.1463532303766541e-03 0.0000000000000000e+00  -9.0895580090824004e-04 -1.4626774725328077e-02 0.0000000000000000e+00  -9.7905893678483752e-04 -1.6032921816993617e-02 0.0000000000000000e+00  1.0055216364751865e-04 -7.2136821947520529e-03 0.0000000000000000e+00  1.5986453655276076e-04 -4.5600356408702150e-03 0.0000000000000000e+00  -8.1896680832604463e-04 -1.2830762825622536e-02 0.0000000000000000e+00  -7.6937109373254303e-04 -1.1869657852397082e-02 0.0000000000000000e+00  6.3033072207518262e-05 -8.4500939791575889e-03 0.0000000000000000e+00  -1.8104288166107636e-05 -1.6461534857328420e-05 0.0000000000000000e+00  1.4035962027851296e-05 -1.2748897268369358e-05 0.0000000000000000e+00  -2.3482094358436513e-05 -1.0622484513616151e-02 0.0000000000000000e+00  -4.3565476754828513e-04 -5.5758422617980391e-03 0.0000000000000000e+00  -3.1569573036285077e-04 -3.2084372576344131e-03 0.0000000000000000e+00  -1.0931475981399520e-04 -4.5696605783660074e-04 0.0000000000000000e+00  -1.3810064567895019e-04 -7.6517230985170142e-04 0.0000000000000000e+00  2.5562065478016781e-05 -9.7249080660591122e-03 0.0000000000000000e+00  -3.5025093309358209e-04 -3.8264850555076663e-03 0.0000000000000000e+00  -4.9013434525633246e-04 -6.3582315669662975e-03 0.0000000000000000e+00  -2.2074877678135798e-04 -1.8451842022345617e-03 0.0000000000000000e+00  -5.6295533481875428e-04 -2.2671944143310162e-02 0.0000000000000000e+00  -1.3079486597425769e-03 -2.2663555250303061e-02 0.0000000000000000e+00  1.5974229090034232e-04 -1.8350998985668236e-03 0.0000000000000000e+00  -7.9580158735590760e-05 -2.2021077088359443e-04 0.0000000000000000e+00  -5.8929591479838287e-04 -2.5105516898904782e-02 0.0000000000000000e+00  -7.6298175306532660e-04 -1.0577757647597582e-02 0.0000000000000000e+00  -6.7877549803750420e-04 -9.6632675183376416e-03 0.0000000000000000e+00  2.2847589597050708e-04 -3.2039984476437159e-03 0.0000000000000000e+00  1.2071762669359310e-04 -4.5056073245287095e-04 0.0000000000000000e+00  1.5307038220479857e-04 -7.7757975489881439e-04 0.0000000000000000e+00  1.8987565751464120e-04 -5.6107645575158597e-03 0.0000000000000000e+00  2.5338072117555275e-04 -3.8341766830849865e-03 0.0000000000000000e+00  2.2425875754235951e-04 -6.3696815310505962e-03 0.0000000000000000e+00  -5.0501841810702915e-05 -1.1599805833651437e-04 0.0000000000000000e+00  -6.8793577500516462e-04 -2.5780765371080365e-02 0.0000000000000000e+00  -1.2071136462604834e-03 -1.9735939028866872e-02 0.0000000000000000e+00  -1.1374139198454822e-03 -1.8310789547035831e-02 0.0000000000000000e+00  1.6997872587821647e-04 -1.3975933809391493e-03 0.0000000000000000e+00  -1.0675673234625870e-03 -1.6890286930854662e-02 0.0000000000000000e+00  -5.5261563519226067e-04 -2.3592698867141871e-02 0.0000000000000000e+00  -9.9735981205764592e-04 -1.5477253004634315e-02 0.0000000000000000e+00  -9.2740121836069347e-04 -1.4080968913990048e-02 0.0000000000000000e+00  1.8699636516184074e-04 -4.9813088724280892e-03 0.0000000000000000e+00  -8.9071768334989996e-04 -1.3365426721001581e-02 0.0000000000000000e+00  1.2504757799668099e-04 -7.6949005917693967e-03 0.0000000000000000e+00  -7.8768769388520171e-04 -1.1338211496225149e-02 0.0000000000000000e+00  8.7186175477628103e-05 -8.9503844962309266e-03 0.0000000000000000e+00  -1.4578090870801064e-03 -2.4986366620781176e-02 0.0000000000000000e+00  -4.6308242465665882e-04 -2.1903182343205402e-02 0.0000000000000000e+00  -2.8179501748297470e-04 -2.2589867885101510e-03 0.0000000000000000e+00  9.3233780821829957e-05 -2.3798876850901783e-04 0.0000000000000000e+00  4.9378684251036074e-05 -9.2281479322980632e-05 0.0000000000000000e+00  -2.1916508900431749e-05 -1.2628116966975420e-02 0.0000000000000000e+00  -6.7616478411580260e-04 -9.0045942162969052e-03 0.0000000000000000e+00  -7.8843542583645389e-05 -1.4009021556400384e-02 0.0000000000000000e+00  -2.7794159470722181e-04 -1.8240575523779848e-02 0.0000000000000000e+00  -1.4862451365128430e-04 -1.5407231239401388e-02 0.0000000000000000e+00  -2.1227391385030870e-04 -1.6820130022937013e-02 0.0000000000000000e+00  -5.5791330659817626e-04 -7.7777431595040672e-03 0.0000000000000000e+00  1.5588549858826122e-05 -1.1280717191787366e-02 0.0000000000000000e+00  -4.5400671746103868e-04 -5.0348355949884401e-03 0.0000000000000000e+00  -5.7917299369186683e-04 -6.9763621731458031e-03 0.0000000000000000e+00  -3.7915812264329064e-04 -2.0587790336943558e-02 0.0000000000000000e+00  -4.2898044881898331e-04 -4.3578054690916390e-03 0.0000000000000000e+00  -4.1120139390081418e-04 -1.9644717560465763e-02 0.0000000000000000e+00  -2.1912072810089951e-04 -1.4328509675856026e-03 0.0000000000000000e+00  -1.9283438095758806e-04 -1.0360003477899483e-03 0.0000000000000000e+00  -1.4400822077761397e-03 -2.4325441691903926e-02 0.0000000000000000e+00  -1.4161889861956684e-03 -2.3438710523837065e-02 0.0000000000000000e+00  -3.5115815066087713e-04 -1.7769808762746312e-02 0.0000000000000000e+00  -2.8548226176624127e-04 -1.6351372230482598e-02 0.0000000000000000e+00  -1.3593680159833255e-04 -1.3532219948305153e-02 0.0000000000000000e+00  -3.9470480982015116e-04 -1.9180324970971784e-02 0.0000000000000000e+00  -2.2179990056680690e-04 -1.4942011163474510e-02 0.0000000000000000e+00  -7.1268470659321056e-05 -1.2160409780707251e-02 0.0000000000000000e+00  -5.7397824174446239e-04 -8.1818489467719632e-03 0.0000000000000000e+00  2.1108275858719249e-04 -2.2175643163395682e-03 0.0000000000000000e+00  -1.3486931859579751e-03 -2.1957794056689694e-02 0.0000000000000000e+00  -1.2906050790845523e-03 -2.1052459253962430e-02 0.0000000000000000e+00  2.1272742162971078e-04 -2.7553840246073080e-0