<?xml version="1.0"?>
<VTKFile type="UnstructuredGrid"  version="0.1"  >
<UnstructuredGrid>
<Piece  NumberOfPoints="439" NumberOfCells="725">
<Points>
<DataArray  type="Float64"  NumberOfComponents="3"  format="ascii">0.6 0.19 0  0.6 0.21 0  0.2489897949 0.21 0  0.2489897949 0.19 0  0.6 0.2 0  0.2496355385699469 0.2060260530378829 0  0.249959460510575 0.2020130349814059 0  0.2499594605105767 0.1979869650186357 0  0.24963553856995 0.1939739469621422 0  0.2539336006056293 0.21 0  0.2588774063112542 0.21 0  0.2638212120168921 0.21 0  0.26876501772253 0.21 0  0.2737088234281569 0.21 0  0.2786526291337753 0.21 0  0.2835964348393937 0.21 0  0.2885402405450166 0.21 0  0.2934840462506522 0.21 0  0.2984278519562708 0.21 0  0.3033716576618997 0.21 0  0.3083154633675181 0.21 0  0.3132592690731365 0.21 0  0.3182030747787549 0.21 0  0.3231468804843732 0.21 0  0.3280906861899917 0.21 0  0.3330344918956208 0.21 0  0.3379782976012284 0.21 0  0.3429221033068576 0.21 0  0.347865909012476 0.21 0  0.3528097147180944 0.21 0  0.3577535204237128 0.21 0  0.3626973261293311 0.21 0  0.3676411318349495 0.21 0  0.3725849375405788 0.21 0  0.3775287432461877 0.21 0  0.382472548951812 0.21 0  0.3874163546574338 0.21 0  0.3923601603630631 0.21 0  0.3973039660686706 0.21 0  0.4022477717742986 0.21 0  0.4071915774799107 0.21 0  0.4121353831855311 0.21 0  0.4170791888911518 0.21 0  0.4220229945967636 0.21 0  0.4269668003023918 0.21 0  0.4319106060080253 0.21 0  0.4368544117136773 0.21 0  0.4417982174193329 0.21 0  0.4467420231249967 0.21 0  0.4516858288306445 0.21 0  0.4566296345362864 0.21 0  0.461573440241916 0.21 0  0.4665172459475665 0.21 0  0.4714610516531998 0.21 0  0.4764048573588668 0.21 0  0.4813486630645134 0.21 0  0.486292468770176 0.21 0  0.4912362744758066 0.21 0  0.4961800801814611 0.21 0  0.5011238858870897 0.21 0  0.5060676915927493 0.21 0  0.5110114972983872 0.21 0  0.5159553030040036 0.21 0  0.5208991087096415 0.21 0  0.5258429144153002 0.21 0  0.5307867201209391 0.21 0  0.5357305258265987 0.21 0  0.5406743315322367 0.21 0  0.5456181372378529 0.21 0  0.5505619429434908 0.21 0  0.5555057486491456 0.21 0  0.5604495543547885 0.21 0  0.565393360060448 0.21 0  0.5703371657661116 0.21 0  0.5752809714717458 0.21 0  0.5802247771773834 0.21 0  0.5851685828830341 0.21 0  0.5901123885886809 0.21 0  0.5950561942943404 0.21 0  0.5950561942943833 0.19 0  0.590112388588758 0.19 0  0.5851685828831193 0.19 0  0.5802247771774727 0.19 0  0.5752809714718514 0.19 0  0.5703371657662308 0.19 0  0.565393360060618 0.19 0  0.5604495543549889 0.19 0  0.5555057486493581 0.19 0  0.5505619429437035 0.19 0  0.5456181372381043 0.19 0  0.540674331532505 0.19 0  0.5357305258268962 0.19 0  0.530786720121263 0.19 0  0.5258429144156628 0.19 0  0.5208991087100244 0.19 0  0.5159553030044218 0.19 0  0.5110114972988226 0.19 0  0.5060676915932177 0.19 0  0.5011238858875806 0.19 0  0.496180080181972 0.19 0  0.4912362744763531 0.19 0  0.4862924687707343 0.19 0  0.4813486630651046 0.19 0  0.4764048573594966 0.19 0  0.4714610516538683 0.19 0  0.4665172459482555 0.19 0  0.4615734402426349 0.19 0  0.4566296345370104 0.19 0  0.4516858288313808 0.19 0  0.4467420231257716 0.19 0  0.4417982174201465 0.19 0  0.4368544117145297 0.19 0  0.4319106060089131 0.19 0  0.4269668003032866 0.19 0  0.4220229945976482 0.19 0  0.4170791888920056 0.19 0  0.4121353831863594 0.19 0  0.4071915774806995 0.19 0  0.4022477717750478 0.19 0  0.3973039660693901 0.19 0  0.3923601603637548 0.19 0  0.3874163546581082 0.19 0  0.3824725489524824 0.19 0  0.3775287432468258 0.19 0  0.3725849375411773 0.19 0  0.3676411318355085 0.19 0  0.3626973261298614 0.19 0  0.3577535204242108 0.19 0  0.352809714718589 0.19 0  0.347865909012931 0.19 0  0.342922103307292 0.19 0  0.3379782976016536 0.19 0  0.3330344918960152 0.19 0  0.3280906861903751 0.19 0  0.3231468804847171 0.19 0  0.3182030747790592 0.19 0  0.3132592690734012 0.19 0  0.3083154633677581 0.19 0  0.3033716576621197 0.19 0  0.2984278519564813 0.19 0  0.2934840462508429 0.19 0  0.2885402405451874 0.19 0  0.2835964348395295 0.19 0  0.2786526291338716 0.19 0  0.2737088234282243 0.19 0  0.268765017722586 0.19 0  0.2638212120169476 0.19 0  0.2588774063113093 0.19 0  0.2539336006056579 0.19 0  0.6 0.1949999999999783 0  0.6 0.2049999999999729 0  0.2589734265316493 0.2005523893428403 0  0.5431462343853077 0.199999999999969 0  0.5682397894768162 0.1999704585808987 0  0.2774513927118024 0.2007941919421926 0  0.513849583376897 0.1999023426490919 0  0.5286810004937381 0.1999023426490969 0  0.2945108952057646 0.1992911908405386 0  0.5827780831384927 0.1995429801003349 0  0.3104128396569256 0.1999704585808978 0  0.3370001755418551 0.2008294612433967 0  0.4990181662600459 0.1999023426490902 0  0.3552816175709044 0.2000000000000608 0  0.4841867491431925 0.1999023426490849 0  0.3707373713905551 0.2000142376953689 0  0.3898882575102495 0.2000000000000828 0  0.4689857550492734 0.1995416724256694 0  0.4541577316841967 0.1999999999999098 0  0.4043534914018331 0.2000976573509244 0  0.4195510917439569 0.2000000000001057 0  0.4387019778644512 0.1999857623046772 0  0.3202472750256703 0.2000088842146399 0  0.5584053541080851 0.1999911157853577 0  0.4280667146887134 0.1998489048208241 0  0.3467659946265474 0.2001510951794375 0  0.3813726345658908 0.200151095179452 0  0.2860683376922098 0.2000415445706182 0  0.5911223811781194 0.1982449159348744 0  0.2679893161458627 0.201675125646729 0  0.4615734402426278 0.2022503633288003 0  0.4912362744763454 0.2022503633288091 0  0.5060676915931983 0.2022503633288118 0  0.3973039660686774 0.1977496366711965 0  0.4764048573594896 0.2022503633288051 0  0.5208991087100455 0.2022503633288184 0  0.4467420231257656 0.2022503633288 0  0.5357305258268849 0.2022503633288198 0  0.4121353831855317 0.1977496366711976 0  0.3626973261293352 0.1977496366711919 0  0.3033716576618961 0.1977496366711869 0  0.5752809714718229 0.1977496366711503 0  0.550459855919056 0.1971284784737667 0  0.3281927732146841 0.2028715215262406 0  0.5484179020497461 0.2038403215694763 0  0.3302347270839988 0.1961596784305491 0  0.5379210852238114 0.196125181664411 0  0.5230896681069652 0.1961251816644058 0  0.5082582509901222 0.1961251816644098 0  0.5774715308687094 0.2038748183355887 0  0.3011810982649548 0.2038748183355937 0  0.4785954167564111 0.196125181664404 0  0.4934268338732671 0.1961251816644063 0  0.395113406671763 0.2038748183355966 0  0.3605067667324117 0.2038748183355951 0  0.4593828808457146 0.1961251816643993 0  0.4489325825226805 0.1961251816644007 0  0.4099448237886219 0.2038748183355991 0  0.2557862999801971 0.1960858370257295 0  0.2550147360309399 0.2034426429991114 0  0.4348031476464689 0.2037737577641554 0  0.37463620160841 0.1962262422358553 0  0.3406258365864304 0.196046792193989 0  0.2813001681189834 0.1960467921940502 0  0.2912686387439893 0.1960816328649282 0  0.4246705335819892 0.2039532078059544 0  0.350162175732913 0.1960467921941878 0  0.3847688156722694 0.1960467921942359 0  0.316632368538356 0.19615945856337 0  0.5621550011053409 0.2037816492598991 0  0.5624413877019769 0.1960761923611377 0  0.3162395035833128 0.2038679557424692 0  0.2710887134207622 0.1959696443325838 0  0.5873014376403604 0.2047227881030823 0  0.4346679566442709 0.1954651459552513 0  0.4243296504077986 0.1958756980939062 0  0.3402559510833523 0.2047940500290923 0  0.2808684926760933 0.2047742417812656 0  0.2914077033138723 0.2047809517070955 0  0.3747713926104932 0.2045348540448554 0  0.3499216488898867 0.2051753413186305 0  0.3845282888292298 0.205175341318636 0  0.2648144865455052 0.1962089742986374 0  0.5943247643662894 0.2040415423589182 0  0.5320972610456145 0.1956445099050872 0  0.5172658439287727 0.1956445099050854 0  0.3069923255602658 0.2043468033872551 0  0.5024344268119265 0.1956445099050864 0  0.5716603035734351 0.2043468033872761 0  0.4876030096950741 0.1956445099050831 0  0.4728151975296263 0.1956402468909894 0  0.3663301776527538 0.20436745486386 0  0.4651631000724991 0.1956402468909893 0  0.4009372308499527 0.2043554900949198 0  0.4431091716023345 0.1956325451361429 0  0.4157593408842466 0.2043565497109067 0  0.5865057328865416 0.1956918868509067 0  0.5541600609760193 0.2044335994013721 0  0.3244925681577497 0.1955664005986376 0  0.272008018888917 0.2049327968152409 0  0.2633407725863902 0.2042483236346266 0  0.4567948413982566 0.2046536472831198 0  0.4167680012832803 0.1955060004091903 0  0.4716262585151221 0.2046536472831242 0  0.5161054367030595 0.2045563706470633 0  0.4864426024693469 0.2045563706470604 0  0.5012740195862044 0.2045563706470634 0  0.4022810343427545 0.1961423961483001 0  0.4420739040821668 0.2044853411424516 0  0.3673807293464664 0.1955677741328205 0  0.3925253672243162 0.195346352716901 0  0.5405091246712254 0.2046536472831267 0  0.357918727284983 0.1953463527168901 0  0.5307534575528717 0.2038576038516682 0  0.3079697655029555 0.1955637092892754 0  0.2985930588175599 0.1953463527168728 0  0.579671714346879 0.1955441268455555 0  0.5705023726275059 0.1953463527168462 0  0.5112451461103119 0.2035640580783926 0  0.4964137289934448 0.2035640580783915 0  0.4665727251511405 0.2038238154617746 0  0.5259274680675793 0.2038006696000127 0  0.4815823118765752 0.2035640580783898 0  0.4517504165552094 0.2039070625502732 0  0.4071070238280551 0.1961993303999926 0  0.3234846806957546 0.2047001437739977 0  0.5551679484379799 0.1952998562260008 0  0.5457754356464107 0.1954447171286166 0  0.3329307555206357 0.2046017509710421 0  0.4541577316841968 0.1960357661898101 0  0.3358300776141575 0.1950765652117375 0  0.2539718587514912 0.200011552766824 0  0.5826472073721517 0.2039971170156656 0  0.2761021761080182 0.1946948236183283 0  0.3898581462796225 0.2041572776584344 0  0.3552515063402743 0.2041572776584256 0  0.2965028074750666 0.2046578268138723 0  0.4299158836614793 0.1951782397873778 0  0.379426563923736 0.2049969334481307 0  0.2860882692072842 0.2042624797643994 0  0.3449948044168807 0.2051793676155613 0  0.2603922435707652 0.1950997711614917 0  0.5949856943860
[...]
<PointData  Vectors="f_18-1"> 
<DataArray  type="Float64"  Name="f_18-1"  NumberOfComponents="3" format="ascii">-2.1544016831406703e-02 -1.0105677483987764e-01 0.0000000000000000e+00  -1.3660196718947902e-02 -1.0267622681962665e-01 0.0000000000000000e+00  0.0000000000000000e+00 0.0000000000000000e+00 0.0000000000000000e+00  0.0000000000000000e+00 0.0000000000000000e+00 0.0000000000000000e+00  -1.7602065395265896e-02 -1.0186645461476175e-01 0.0000000000000000e+00  0.0000000000000000e+00 0.0000000000000000e+00 0.0000000000000000e+00  0.0000000000000000e+00 0.0000000000000000e+00 0.0000000000000000e+00  0.0000000000000000e+00 0.0000000000000000e+00 0.0000000000000000e+00  0.0000000000000000e+00 0.0000000000000000e+00 0.0000000000000000e+00  1.3253609852987864e-04 -1.1578068396829437e-04 0.0000000000000000e+00  2.7815747457125573e-04 -2.4324623386328556e-04 0.0000000000000000e+00  4.2169813419765280e-04 -4.0629006629396480e-04 0.0000000000000000e+00  5.5476646713636783e-04 -6.7833606555429884e-04 0.0000000000000000e+00  6.7795526810065425e-04 -1.0097934740370613e-03 0.0000000000000000e+00  8.0206916084026763e-04 -1.4251425498972396e-03 0.0000000000000000e+00  9.0908218417424928e-04 -1.8841644211330319e-03 0.0000000000000000e+00  9.9766082244144181e-04 -2.4194037997724901e-03 0.0000000000000000e+00  1.0818142438026295e-03 -3.0151751774054733e-03 0.0000000000000000e+00  1.1514719938635197e-03 -3.6710208617357445e-03 0.0000000000000000e+00  1.2183438054569065e-03 -4.4081639195983624e-03 0.0000000000000000e+00  1.2825142188529833e-03 -5.1586439486484593e-03 0.0000000000000000e+00  1.3164259336460741e-03 -5.9985551504447687e-03 0.0000000000000000e+00  1.3617068639333960e-03 -6.8888136451554218e-03 0.0000000000000000e+00  1.3746725082557272e-03 -7.8217300837818450e-03 0.0000000000000000e+00  1.3809319561708072e-03 -8.8205471619877424e-03 0.0000000000000000e+00  1.3736402866793436e-03 -9.8565160176781724e-03 0.0000000000000000e+00  1.3493102197196822e-03 -1.0955679068008376e-02 0.0000000000000000e+00  1.3097438966099774e-03 -1.2080461177000450e-02 0.0000000000000000e+00  1.2574744819043890e-03 -1.3259365387316341e-02 0.0000000000000000e+00  1.1902469345197013e-03 -1.4475237033964252e-02 0.0000000000000000e+00  1.1071081607459858e-03 -1.5727561087157151e-02 0.0000000000000000e+00  1.0159338738250400e-03 -1.7041234507419508e-02 0.0000000000000000e+00  9.2238272219408981e-04 -1.8364036332225390e-02 0.0000000000000000e+00  8.0536879486799867e-04 -1.9740191110476382e-02 0.0000000000000000e+00  6.7563564724226386e-04 -2.1138445249306730e-02 0.0000000000000000e+00  5.3328335569658922e-04 -2.2577295837353340e-02 0.0000000000000000e+00  3.7803940379500941e-04 -2.4045057907234244e-02 0.0000000000000000e+00  2.0811556667438752e-04 -2.5540035124822773e-02 0.0000000000000000e+00  2.9201191111206034e-05 -2.7081345029370107e-02 0.0000000000000000e+00  -1.5161818933084938e-04 -2.8627175833405905e-02 0.0000000000000000e+00  -3.5691290817966583e-04 -3.0211380520860399e-02 0.0000000000000000e+00  -5.7047359027543221e-04 -3.1827815196726270e-02 0.0000000000000000e+00  -7.8720534158317843e-04 -3.3451660374647148e-02 0.0000000000000000e+00  -1.0250080930076220e-03 -3.5109803872395207e-02 0.0000000000000000e+00  -1.2627064190991891e-03 -3.6786776121693565e-02 0.0000000000000000e+00  -1.5181789323298973e-03 -3.8483492354146963e-02 0.0000000000000000e+00  -1.7767080239811290e-03 -4.0205353468343606e-02 0.0000000000000000e+00  -2.0490129804476573e-03 -4.1939961421313739e-02 0.0000000000000000e+00  -2.3313761360804447e-03 -4.3695639206199621e-02 0.0000000000000000e+00  -2.6188277755578981e-03 -4.5466642920894910e-02 0.0000000000000000e+00  -2.9137446837280922e-03 -4.7255018134953294e-02 0.0000000000000000e+00  -3.2201916324813224e-03 -4.9057978628262465e-02 0.0000000000000000e+00  -3.5308757540252001e-03 -5.0874346270984354e-02 0.0000000000000000e+00  -3.8486728380251593e-03 -5.2705787561298498e-02 0.0000000000000000e+00  -4.1763885284558837e-03 -5.4549415428603781e-02 0.0000000000000000e+00  -4.5085574278399291e-03 -5.6403995479883597e-02 0.0000000000000000e+00  -4.8468647309308178e-03 -5.8271041312050846e-02 0.0000000000000000e+00  -5.1931411661164315e-03 -6.0147238483896921e-02 0.0000000000000000e+00  -5.5433021082978429e-03 -6.2032225643666158e-02 0.0000000000000000e+00  -5.8985673921065308e-03 -6.3927006479601020e-02 0.0000000000000000e+00  -6.2604008712775633e-03 -6.5828983593312920e-02 0.0000000000000000e+00  -6.6254907161023072e-03 -6.7737653889200611e-02 0.0000000000000000e+00  -6.9948509472749542e-03 -6.9653765340135357e-02 0.0000000000000000e+00  -7.3694406945610655e-03 -7.1575104643646151e-02 0.0000000000000000e+00  -7.7464508791382225e-03 -7.3501534747760694e-02 0.0000000000000000e+00  -8.1269035151439843e-03 -7.5433090711034531e-02 0.0000000000000000e+00  -8.5109118321108953e-03 -7.7368403307050221e-02 0.0000000000000000e+00  -8.8979201188000272e-03 -7.9306413810739912e-02 0.0000000000000000e+00  -9.2879846817490209e-03 -8.1247762800434040e-02 0.0000000000000000e+00  -9.6800108753201924e-03 -8.3192025600252725e-02 0.0000000000000000e+00  -1.0072724434458407e-02 -8.5136625038158179e-02 0.0000000000000000e+00  -1.0468155053866609e-02 -8.7083761424600364e-02 0.0000000000000000e+00  -1.0864204791327338e-02 -8.9031954596931737e-02 0.0000000000000000e+00  -1.1261809715728278e-02 -9.0980591416954762e-02 0.0000000000000000e+00  -1.1660543447171110e-02 -9.2930028756367952e-02 0.0000000000000000e+00  -1.2059681907034398e-02 -9.4879370937526700e-02 0.0000000000000000e+00  -1.2459519793068818e-02 -9.6828806779562029e-02 0.0000000000000000e+00  -1.2859672264602273e-02 -9.8778223991595429e-02 0.0000000000000000e+00  -1.3259872499569635e-02 -1.0072726983698990e-01 0.0000000000000000e+00  -2.1143641475116163e-02 -9.9107850013277654e-02 0.0000000000000000e+00  -2.0743116372378283e-02 -9.7158830268509300e-02 0.0000000000000000e+00  -2.0342382916716958e-02 -9.5209680932223636e-02 0.0000000000000000e+00  -1.9941345583254451e-02 -9.3260670604227838e-02 0.0000000000000000e+00  -1.9540091276904748e-02 -9.1312117267972143e-02 0.0000000000000000e+00  -1.9138473965545917e-02 -8.9363889553800840e-02 0.0000000000000000e+00  -1.8736626646684726e-02 -8.7416971761488674e-02 0.0000000000000000e+00  -1.8334155295154142e-02 -8.5471531564339273e-02 0.0000000000000000e+00  -1.7931921870809848e-02 -8.3527238547202592e-02 0.0000000000000000e+00  -1.7529554883684580e-02 -8.1585907910638175e-02 0.0000000000000000e+00  -1.7126972583051722e-02 -7.9646346247350369e-02 0.0000000000000000e+00  -1.6725465876395475e-02 -7.7710434569096085e-02 0.0000000000000000e+00  -1.6324056713925002e-02 -7.5779530304759646e-02 0.0000000000000000e+00  -1.5921857315944959e-02 -7.3850083794329502e-02 0.0000000000000000e+00  -1.5522012219867758e-02 -7.1926930935887326e-02 0.0000000000000000e+00  -1.5122626667928251e-02 -7.0011537736014748e-02 0.0000000000000000e+00  -1.4722565064272115e-02 -6.8098342831296191e-02 0.0000000000000000e+00  -1.4326623503699756e-02 -6.6194024544082491e-02 0.0000000000000000e+00  -1.3931447692210214e-02 -6.4299942355542178e-02 0.0000000000000000e+00  -1.3535575811633976e-02 -6.2408740200639801e-02 0.0000000000000000e+00  -1.3145505263532380e-02 -6.0529263020774986e-02 0.0000000000000000e+00  -1.2756612465193102e-02 -5.8662868035243017e-02 0.0000000000000000e+00  -1.2367010216907729e-02 -5.6800073072669134e-02 0.0000000000000000e+00  -1.1984992108804979e-02 -5.4952025378974562e-02 0.0000000000000000e+00  -1.1604536327033385e-02 -5.3120422355586373e-02 0.0000000000000000e+00  -1.1224105234717178e-02 -5.1294800501449071e-02 0.0000000000000000e+00  -1.0850281303500154e-02 -4.9485033330329872e-02 0.0000000000000000e+00  -1.0479696334898373e-02 -4.7695925616710211e-02 0.0000000000000000e+00  -1.0109753530460473e-02 -4.5910812400652402e-02 0.0000000000000000e+00  -9.7517024619253583e-03 -4.4146661370539242e-02 0.0000000000000000e+00  -9.3944486786604504e-03 -4.2408937538199999e-02 0.0000000000000000e+00  -9.0367337030591143e-03 -4.0677305356572449e-02 0.0000000000000000e+00  -8.6894392385216505e-03 -3.8972011863788285e-02 0.0000000000000000e+00  -8.3477476820730413e-03 -3.7279765645982225e-02 0.0000000000000000e+00  -8.0113479907427346e-03 -3.5610316510442719e-02 0.0000000000000000e+00  -7.6845005553400521e-03 -3.3968274648957283e-02 0.0000000000000000e+00  -7.3554355936399493e-03 -3.2342647485012414e-02 0.0000000000000000e+00  -7.0375705979361788e-03 -3.0744435587029550e-02 0.0000000000000000e+00  -6.7213702174785256e-03 -2.9170683597265011e-02 0.0000000000000000e+00  -6.4099761325984101e-03 -2.7625328805081527e-02 0.0000000000000000e+00  -6.1077349163961465e-03 -2.6109327818821949e-02 0.0000000000000000e+00  -5.8171095095917742e-03 -2.4614506485433892e-02 0.0000000000000000e+00  -5.5353722211448284e-03 -2.3153130663877263e-02 0.0000000000000000e+00  -5.2448125592877088e-03 -2.1718990438831885e-02 0.0000000000000000e+00  -4.9753872526233141e-03 -2.0320259118495533e-02 0.0000000000000000e+00  -4.7010518483975193e-03 -1.8962039921095814e-02 0.0000000000000000e+00  -4.4441664262575087e-03 -1.7629539022845652e-02 0.0000000000000000e+00  -4.1915505229516243e-03 -1.6342700496398251e-02 0.0000000000000000e+00  -3.9513544656849791e-03 -1.5082120725750372e-02 0.0000000000000000e+00  -3.7210929039425320e-03 -1.3865630674032750e-02 0.0000000000000000e+00  -3.4779642885528960e-03 -1.2682849090007971e-02 0.0000000000000000e+00  -3.2597297103698470e-03 -1.1544215069580635e-02 0.0000000000000000e+00  -3.0314404054319890e-03 -1.0457988253029907e-02 0.0000000000000000e+00  -2.8297710554423964e-03 -9.4077977638225146e-03 0.0000000000000000e+00  -2.6307667147153230e-03 -8.4242225090548004e-03 0.0000000000000000e+00  -2.4281722514440424e-03 -7.4558059080672067e-03 0.0000000000000000e+00  -2.2440692474074552e-03 -6.5584795513460095e-03 0.0000000000000000e+00  -2.0415264313619515e-03 -5.7106344324728215e-03 0.0000000000000000e+00  -1.8674905220833948e-03 -4.9094360728543169e-03 0.0000000000000000e+00  -1.6941351100388424e-03 -4.1796742485810277e-03 0.0000000000000000e+00  -1.5307413006001912e-03 -3.4890282004505276e-03 0.0000000000000000e+00  -1.3750546338250561e-03 -2.8671343664244554e-03 0.0000000000000000e+00  -1.2011774919417702e-03 -2.2927426820194309e-03 0.0000000000000000e+00  -1.0566562011448614e-03 -1.7813323111374084e-03 0.0000000000000000e+00  -8.8991109623684126e-04 -1.3338821531533173e-03 0.0000000000000000e+00  -7.4562940982416390e-04 -9.6186993067259462e-04 0.0000000000000000e+00  -5.8218126040932103e-04 -6.5483743169862348e-04 0.0000000000000000e+00  -4.3466745925250106e-04 -3.9612621450909734e-04 0.0000000000000000e+00  -2.8983524691908794e-04 -2.1535750313392510e-04 0.0000000000000000e+00  -1.4391875105394979e-04 -1.2300075242406390e-04 0.0000000000000000e+00  -1.9572982066103844e-02 -1.0146164210149620e-01 0.0000000000000000e+00  -1.5631180144568369e-02 -1.0227130773402496e-01 0.0000000000000000e+00  1.4154788694496184e-05 -1.1838717595840958e-04 0.0000000000000000e+00  -1.3008120393595547e-02 -7.9473201848922079e-02 0.0000000000000000e+00  -1.5041503280922948e-02 -8.9342029963446562e-02 0.0000000000000000e+00  1.9786734482237728e-05 -1.1820114786140745e-03 0.0000000000000000e+00  -1.0729538864981342e-02 -6.8044948060105775e-02 0.0000000000000000e+00  -1.1893351131973085e-02 -7.3805817401949900e-02 0.0000000000000000e+00  -2.2462231950002109e-04 -2.9759945972668159e-03 0.0000000000000000e+00  -1.6387195001695110e-02 -9.5039331415467901e-02 0.0000000000000000e+00  -3.1001864528996492e-04 -5.3000276823774815e-03 0.0000000000000000e+00  -6.3364237246134065e-04 -1.0442751932415690e-02 0.0000000000000000e+00  -9.5905951552254232e-03 -6.2343697393048611e-02 0.0000000000000000e+00  -1.3241543337686491e-03 -1.4734180184388695e-02 0.0000000000000000e+00  -8.4840286249921269e-03 -5.6720861353161178e-02 0.0000000000000000e+00  -1.8620541367761622e-03 -1.8785125802255782e-02 0.0000000000000000e+00  -2.6737554213370263e-03 -2.4298510331742743e-02 0.0000000000000000e+00  -7.5236014298757327e-03 -5.1035061367538485e-02 0.0000000000000000e+00  -6.3400524621514227e-03 -4.5673177348733503e-02 0.0000000000000000e+00  -3.3465042467143830e-03 -2.8757659717746603e-02 0.0000000000000000e+00  -4.1981284654467590e-03 -3.3682054872547364e-02 0.0000000000000000e+00  -5.3445771573889817e-03 -4.0198047932243679e-02 0.0000000000000000e+00  -4.5598937105200196e-04 -7.0195319390091229e-03 0.0000000000000000e+00  -1.4238416648218840e-02 -8.5469583124247753e-02 0.0000000000000000e+00  -4.7415807304218649e-03 -3.6534279992537506e-02 0.0000000000000000e+00  -1.0358018652331144e-03 -1.2656070276292487e-02 0.0000000000000000e+00  -2.2543882467484888e-03 -2.1792255713744893e-02 0.0000000000000000e+00  -8.2727240171819657e-05 -2.0197151880169649e-03 0.0000000000000000e+00  -1.7574859456182954e-02 -9.8224450007352068e-02 0.0000000000000000e+00  7.2263861248446864e-05 -5.2459360578122050e-04 0.0000000000000000e+00  -6.0252465847750875e-03 -4.8508795602536126e-02 0.0000000000000000e+00  -8.1186706826022938e-03 -5.9558098845555484e-02 0.0000000000000000e+00  -9.2287721540913227e-03 -6.5225529080811487e-02 0.0000000000000000e+00  -3.7164952211950920e-03 -2.6445926322432662e-02 0.0000000000000000e+00  -7.0479063355296098e-03 -5.3978294436749827e-02 0.0000000000000000e+00  -1.0370693664196951e-02 -7.0961077275423085e-02 0.0000000000000000e+00  -5.0598387936437702e-03 -4.3172166670610614e-02 0.0000000000000000e+00  -1.1536962635389595e-02 -7.6746976762495103e-02 0.0000000000000000e+00  -4.5158999903996445e-03 -3.1131890620680031e-02 0.0000000000000000e+00  -2.1599461118823201e-03 -1.6559711519870169e-02 0.0000000000000000e+00  -5.4796033052833051e-04 -4.1892594036307667e-03 0.0000000000000000e+00  -1.6486220021466106e-02 -9.1938185127525177e-02 0.0000000000000000e+00  -1.4721715870772775e-02 -8.2114954287241346e-02 0.0000000000000000e+00  -4.1563986733787778e-05 -8.6306083450906554e-03 0.0000000000000000e+00  -1.1925109969762768e-02 -8.1851359930505740e-02 0.0000000000000000e+00  -1.4415134388603712e-03 -8.9180922290706538e-03 0.0000000000000000e+00  -1.4104434797228112e-02 -7.7117877318104600e-02 0.0000000000000000e+00  -1.2917389512894138e-02 -7.1333418721640757e-02 0.0000000000000000e+00  -1.1746998293393063e-02 -6.5599668614380144e-02 0.0000000000000000e+00  -1.4250879801651349e-02 -9.3297259295768722e-02 0.0000000000000000e+00  3.5198152914592561e-04 -3.9407680852905974e-03 0.0000000000000000e+00  -9.4822856520348480e-03 -5.4357169330144041e-02 0.0000000000000000e+00  -1.0599615738416423e-02 -5.9934325535334024e-02 0.0000000000000000e+00  -1.7396025441458647e-03 -2.6069675224819379e-02 0.0000000000000000e+00  -4.9937547492495313e-04 -1.6202818791832069e-02 0.0000000000000000e+00  -8.0954820772438721e-03 -4.7298739940684592e-02 0.0000000000000000e+00  -7.3665589065535809e-03 -4.3555551502985512e-02 0.0000000000000000e+00  -2.4262475984512528e-03 -3.0752172746753195e-02 0.0000000000000000e+00  -6.3421367414921988e-05 -5.0502414290185564e-05 0.0000000000000000e+00  4.5709666813274524e-05 -3.8978902791655389e-05 0.0000000000000000e+00  -3.8043223031183626e-03 -3.9081787770230428e-02 0.0000000000000000e+00  -3.0728876824439228e-03 -1.9724508448921405e-02 0.0000000000000000e+00  -1.7905311492275632e-03 -1.1138859472571398e-02 0.0000000000000000e+00  -4.1889539560435724e-04 -1.5224809624885159e-03 0.0000000000000000e+00  -5.6320912564912257e-04 -2.5737886637264900e-03 0.0000000000000000e+00  -3.1714868234637011e-03 -3.5630823403029109e-02 0.0000000000000000e+00  -2.1145855489171951e-03 -1.3356396976035297e-02 0.0000000000000000e+00  -3.5965291626398675e-03 -2.2608485053275222e-02 0.0000000000000000e+00  -1.0724407710634041e-03 -6.3168814798666827e-03 0.0000000000000000e+00  -1.3050363970128568e-02 -8.7252175669301851e-02 0.0000000000000000e+00  -1.6104730979027617e-02 -8.6743574625065573e-02 0.0000000000000000e+00  2.7699349529717714e-04 -6.3664992194162303e-03 0.0000000000000000e+00  -2.8974048283092761e-04 -7.2450426462275302e-04 0.0000000000000000e+00  -1.4712242099095732e-02 -9.7242369570311238e-02 0.0000000000000000e+00  -6.6510760491417546e-03 -3.8531800531048620e-02 0.0000000000000000e+00  -5.8542248524116247e-03 -3.5046176754531665e-02 0.0000000000000000e+00  1.7495059808926480e-04 -1.1284724511142874e-02 0.0000000000000000e+00  3.7360392587005881e-04 -1.5267258077935940e-03 0.0000000000000000e+00  4.4492310700480818e-04 -2.6590610614463626e-03 0.0000000000000000e+00  -7.6484914460833817e-04 -2.0095883376444718e-02 0.0000000000000000e+00  7.6631497967519709e-05 -1.3579745041206974e-02 0.0000000000000000e+00  -9.3022014683312850e-04 -2.2944637021354065e-02 0.0000000000000000e+00  -1.8071218795135961e-04 -3.7807498461091575e-04 0.0000000000000000e+00  -1.5549403004039028e-02 -9.9956370879166409e-02 0.0000000000000000e+00  -1.3825177542783213e-02 -7.4803836765528653e-02 0.0000000000000000e+00  -1.2642948992512410e-02 -6.9038058740278699e-02 0.0000000000000000e+00  4.0174047962540085e-04 -4.8260342005977935e-03 0.0000000000000000e+00  -1.1479127277772051e-02 -6.3329938721926923e-02 0.0000000000000000e+00  -1.3595135180433622e-02 -9.1044242501876094e-02 0.0000000000000000e+00  -1.0340440631566685e-02 -5.7697979603086591e-02 0.0000000000000000e+00  -9.2383887162018948e-03 -5.2178337913026153e-02 0.0000000000000000e+00  -5.4708735344744951e-04 -1.7762779464462673e-02 0.0000000000000000e+00  -8.6805884715599503e-03 -4.9367705132880281e-02 0.0000000000000000e+00  -1.8552138569304635e-03 -2.7902951453288236e-02 0.0000000000000000e+00  -7.1517503246225087e-03 -4.1471559330997644e-02 0.0000000000000000e+00  -2.5659709170787110e-03 -3.2679585694892078e-02 0.0000000000000000e+00  -1.8207064862024620e-02 -9.6197535673070808e-02 0.0000000000000000e+00  -1.2151865042833072e-02 -8.4156804875055877e-02 0.0000000000000000e+00  -1.3951091972795510e-03 -7.7630923223550646e-03 0.0000000000000000e+00  2.9963841156783224e-04 -7.9826571736179165e-04 0.0000000000000000e+00  1.6064724242335969e-04 -3.0386831261992262e-04 0.0000000000000000e+00  -4.8446639270962001e-03 -4.6937749743192779e-02 0.0000000000000000e+00  -5.5166210914442135e-03 -3.2523803625350060e-02 0.0000000000000000e+00  -5.8277933890323883e-03 -5.2374642195743802e-02 0.0000000000000000e+00  -9.1081250015591208e-03 -6.9281308286977192e-02 0.0000000000000000e+00  -6.9016272783172117e-03 -5.7915351178882128e-02 0.0000000000000000e+00  -7.9862391144634049e-03 -6.3561761904169956e-02 0.0000000000000000e+00  -4.4806847447026194e-03 -2.7911827199385553e-02 0.0000000000000000e+00  -3.9878676563227826e-03 -4.1668240238853405e-02 0.0000000000000000e+00  -2.9300814219827436e-03 -1.7725727546527223e-02 0.0000000000000000e+00  -4.1991331445365588e-03 -2.4885035040379505e-02 0.0000000000000000e+00  -1.0976973800180910e-02 -7.8811224705982799e-02 0.0000000000000000e+00  -2.5874238672751394e-03 -1.5260362109308211e-02 0.0000000000000000e+00  -1.0517199783937914e-02 -7.4928196198901176e-02 0.0000000000000000e+00  -9.7374053898236987e-04 -4.8725908055735102e-03 0.0000000000000000e+00  -8.0169237758724924e-04 -3.4988361389512762e-03 0.0000000000000000e+00  -1.7711293161704743e-02 -9.3490967020765689e-02 0.0000000000000000e+00  -1.7045434634862869e-02 -8.9860532402611881e-02 0.0000000000000000e+00  -9.1180126720571981e-03 -6.7322618837391809e-02 0.0000000000000000e+00  -8.0023181901368399e-03 -6.1626650189559803e-02 0.0000000000000000e+00  -5.7876586147688914e-03 -5.0449319304945020e-02 0.0000000000000000e+00  -1.0160977744215396e-02 -7.3040201786942940e-02 0.0000000000000000e+00  -6.9251625869349992e-03 -5.6010724020265128e-02 0.0000000000000000e+00  -4.7873272698748378e-03 -4.5069719486207492e-02 0.0000000000000000e+00  -4.7295494450884049e-03 -2.9435960123864627e-02 0.0000000000000000e+00  3.7175295089408205e-04 -7.7382955216800152e-03 0.0000000000000000e+00  -1.5820560420210891e-02 -8.3819144242403082e-02 0.0000000000000000e+00  -1.5004160255390336e-02 -8.0141365503439449e-02 0.0000000000000000e+00  