<?xml version="1.0"?>
<VTKFile type="UnstructuredGrid"  version="0.1"  >
<UnstructuredGrid>
<Piece  NumberOfPoints="439" NumberOfCells="725">
<Points>
<DataArray  type="Float64"  NumberOfComponents="3"  format="ascii">0.6 0.19 0  0.6 0.21 0  0.2489897949 0.21 0  0.2489897949 0.19 0  0.6 0.2 0  0.2496355385699469 0.2060260530378829 0  0.249959460510575 0.2020130349814059 0  0.2499594605105767 0.1979869650186357 0  0.24963553856995 0.1939739469621422 0  0.2539336006056293 0.21 0  0.2588774063112542 0.21 0  0.2638212120168921 0.21 0  0.26876501772253 0.21 0  0.2737088234281569 0.21 0  0.2786526291337753 0.21 0  0.2835964348393937 0.21 0  0.2885402405450166 0.21 0  0.2934840462506522 0.21 0  0.2984278519562708 0.21 0  0.3033716576618997 0.21 0  0.3083154633675181 0.21 0  0.3132592690731365 0.21 0  0.3182030747787549 0.21 0  0.3231468804843732 0.21 0  0.3280906861899917 0.21 0  0.3330344918956208 0.21 0  0.3379782976012284 0.21 0  0.3429221033068576 0.21 0  0.347865909012476 0.21 0  0.3528097147180944 0.21 0  0.3577535204237128 0.21 0  0.3626973261293311 0.21 0  0.3676411318349495 0.21 0  0.3725849375405788 0.21 0  0.3775287432461877 0.21 0  0.382472548951812 0.21 0  0.3874163546574338 0.21 0  0.3923601603630631 0.21 0  0.3973039660686706 0.21 0  0.4022477717742986 0.21 0  0.4071915774799107 0.21 0  0.4121353831855311 0.21 0  0.4170791888911518 0.21 0  0.4220229945967636 0.21 0  0.4269668003023918 0.21 0  0.4319106060080253 0.21 0  0.4368544117136773 0.21 0  0.4417982174193329 0.21 0  0.4467420231249967 0.21 0  0.4516858288306445 0.21 0  0.4566296345362864 0.21 0  0.461573440241916 0.21 0  0.4665172459475665 0.21 0  0.4714610516531998 0.21 0  0.4764048573588668 0.21 0  0.4813486630645134 0.21 0  0.486292468770176 0.21 0  0.4912362744758066 0.21 0  0.4961800801814611 0.21 0  0.5011238858870897 0.21 0  0.5060676915927493 0.21 0  0.5110114972983872 0.21 0  0.5159553030040036 0.21 0  0.5208991087096415 0.21 0  0.5258429144153002 0.21 0  0.5307867201209391 0.21 0  0.5357305258265987 0.21 0  0.5406743315322367 0.21 0  0.5456181372378529 0.21 0  0.5505619429434908 0.21 0  0.5555057486491456 0.21 0  0.5604495543547885 0.21 0  0.565393360060448 0.21 0  0.5703371657661116 0.21 0  0.5752809714717458 0.21 0  0.5802247771773834 0.21 0  0.5851685828830341 0.21 0  0.5901123885886809 0.21 0  0.5950561942943404 0.21 0  0.5950561942943833 0.19 0  0.590112388588758 0.19 0  0.5851685828831193 0.19 0  0.5802247771774727 0.19 0  0.5752809714718514 0.19 0  0.5703371657662308 0.19 0  0.565393360060618 0.19 0  0.5604495543549889 0.19 0  0.5555057486493581 0.19 0  0.5505619429437035 0.19 0  0.5456181372381043 0.19 0  0.540674331532505 0.19 0  0.5357305258268962 0.19 0  0.530786720121263 0.19 0  0.5258429144156628 0.19 0  0.5208991087100244 0.19 0  0.5159553030044218 0.19 0  0.5110114972988226 0.19 0  0.5060676915932177 0.19 0  0.5011238858875806 0.19 0  0.496180080181972 0.19 0  0.4912362744763531 0.19 0  0.4862924687707343 0.19 0  0.4813486630651046 0.19 0  0.4764048573594966 0.19 0  0.4714610516538683 0.19 0  0.4665172459482555 0.19 0  0.4615734402426349 0.19 0  0.4566296345370104 0.19 0  0.4516858288313808 0.19 0  0.4467420231257716 0.19 0  0.4417982174201465 0.19 0  0.4368544117145297 0.19 0  0.4319106060089131 0.19 0  0.4269668003032866 0.19 0  0.4220229945976482 0.19 0  0.4170791888920056 0.19 0  0.4121353831863594 0.19 0  0.4071915774806995 0.19 0  0.4022477717750478 0.19 0  0.3973039660693901 0.19 0  0.3923601603637548 0.19 0  0.3874163546581082 0.19 0  0.3824725489524824 0.19 0  0.3775287432468258 0.19 0  0.3725849375411773 0.19 0  0.3676411318355085 0.19 0  0.3626973261298614 0.19 0  0.3577535204242108 0.19 0  0.352809714718589 0.19 0  0.347865909012931 0.19 0  0.342922103307292 0.19 0  0.3379782976016536 0.19 0  0.3330344918960152 0.19 0  0.3280906861903751 0.19 0  0.3231468804847171 0.19 0  0.3182030747790592 0.19 0  0.3132592690734012 0.19 0  0.3083154633677581 0.19 0  0.3033716576621197 0.19 0  0.2984278519564813 0.19 0  0.2934840462508429 0.19 0  0.2885402405451874 0.19 0  0.2835964348395295 0.19 0  0.2786526291338716 0.19 0  0.2737088234282243 0.19 0  0.268765017722586 0.19 0  0.2638212120169476 0.19 0  0.2588774063113093 0.19 0  0.2539336006056579 0.19 0  0.6 0.1949999999999783 0  0.6 0.2049999999999729 0  0.2589734265316493 0.2005523893428403 0  0.5431462343853077 0.199999999999969 0  0.5682397894768162 0.1999704585808987 0  0.2774513927118024 0.2007941919421926 0  0.513849583376897 0.1999023426490919 0  0.5286810004937381 0.1999023426490969 0  0.2945108952057646 0.1992911908405386 0  0.5827780831384927 0.1995429801003349 0  0.3104128396569256 0.1999704585808978 0  0.3370001755418551 0.2008294612433967 0  0.4990181662600459 0.1999023426490902 0  0.3552816175709044 0.2000000000000608 0  0.4841867491431925 0.1999023426490849 0  0.3707373713905551 0.2000142376953689 0  0.3898882575102495 0.2000000000000828 0  0.4689857550492734 0.1995416724256694 0  0.4541577316841967 0.1999999999999098 0  0.4043534914018331 0.2000976573509244 0  0.4195510917439569 0.2000000000001057 0  0.4387019778644512 0.1999857623046772 0  0.3202472750256703 0.2000088842146399 0  0.5584053541080851 0.1999911157853577 0  0.4280667146887134 0.1998489048208241 0  0.3467659946265474 0.2001510951794375 0  0.3813726345658908 0.200151095179452 0  0.2860683376922098 0.2000415445706182 0  0.5911223811781194 0.1982449159348744 0  0.2679893161458627 0.201675125646729 0  0.4615734402426278 0.2022503633288003 0  0.4912362744763454 0.2022503633288091 0  0.5060676915931983 0.2022503633288118 0  0.3973039660686774 0.1977496366711965 0  0.4764048573594896 0.2022503633288051 0  0.5208991087100455 0.2022503633288184 0  0.4467420231257656 0.2022503633288 0  0.5357305258268849 0.2022503633288198 0  0.4121353831855317 0.1977496366711976 0  0.3626973261293352 0.1977496366711919 0  0.3033716576618961 0.1977496366711869 0  0.5752809714718229 0.1977496366711503 0  0.550459855919056 0.1971284784737667 0  0.3281927732146841 0.2028715215262406 0  0.5484179020497461 0.2038403215694763 0  0.3302347270839988 0.1961596784305491 0  0.5379210852238114 0.196125181664411 0  0.5230896681069652 0.1961251816644058 0  0.5082582509901222 0.1961251816644098 0  0.5774715308687094 0.2038748183355887 0  0.3011810982649548 0.2038748183355937 0  0.4785954167564111 0.196125181664404 0  0.4934268338732671 0.1961251816644063 0  0.395113406671763 0.2038748183355966 0  0.3605067667324117 0.2038748183355951 0  0.4593828808457146 0.1961251816643993 0  0.4489325825226805 0.1961251816644007 0  0.4099448237886219 0.2038748183355991 0  0.2557862999801971 0.1960858370257295 0  0.2550147360309399 0.2034426429991114 0  0.4348031476464689 0.2037737577641554 0  0.37463620160841 0.1962262422358553 0  0.3406258365864304 0.196046792193989 0  0.2813001681189834 0.1960467921940502 0  0.2912686387439893 0.1960816328649282 0  0.4246705335819892 0.2039532078059544 0  0.350162175732913 0.1960467921941878 0  0.3847688156722694 0.1960467921942359 0  0.316632368538356 0.19615945856337 0  0.5621550011053409 0.2037816492598991 0  0.5624413877019769 0.1960761923611377 0  0.3162395035833128 0.2038679557424692 0  0.2710887134207622 0.1959696443325838 0  0.5873014376403604 0.2047227881030823 0  0.4346679566442709 0.1954651459552513 0  0.4243296504077986 0.1958756980939062 0  0.3402559510833523 0.2047940500290923 0  0.2808684926760933 0.2047742417812656 0  0.2914077033138723 0.2047809517070955 0  0.3747713926104932 0.2045348540448554 0  0.3499216488898867 0.2051753413186305 0  0.3845282888292298 0.205175341318636 0  0.2648144865455052 0.1962089742986374 0  0.5943247643662894 0.2040415423589182 0  0.5320972610456145 0.1956445099050872 0  0.5172658439287727 0.1956445099050854 0  0.3069923255602658 0.2043468033872551 0  0.5024344268119265 0.1956445099050864 0  0.5716603035734351 0.2043468033872761 0  0.4876030096950741 0.1956445099050831 0  0.4728151975296263 0.1956402468909894 0  0.3663301776527538 0.20436745486386 0  0.4651631000724991 0.1956402468909893 0  0.4009372308499527 0.2043554900949198 0  0.4431091716023345 0.1956325451361429 0  0.4157593408842466 0.2043565497109067 0  0.5865057328865416 0.1956918868509067 0  0.5541600609760193 0.2044335994013721 0  0.3244925681577497 0.1955664005986376 0  0.272008018888917 0.2049327968152409 0  0.2633407725863902 0.2042483236346266 0  0.4567948413982566 0.2046536472831198 0  0.4167680012832803 0.1955060004091903 0  0.4716262585151221 0.2046536472831242 0  0.5161054367030595 0.2045563706470633 0  0.4864426024693469 0.2045563706470604 0  0.5012740195862044 0.2045563706470634 0  0.4022810343427545 0.1961423961483001 0  0.4420739040821668 0.2044853411424516 0  0.3673807293464664 0.1955677741328205 0  0.3925253672243162 0.195346352716901 0  0.5405091246712254 0.2046536472831267 0  0.357918727284983 0.1953463527168901 0  0.5307534575528717 0.2038576038516682 0  0.3079697655029555 0.1955637092892754 0  0.2985930588175599 0.1953463527168728 0  0.579671714346879 0.1955441268455555 0  0.5705023726275059 0.1953463527168462 0  0.5112451461103119 0.2035640580783926 0  0.4964137289934448 0.2035640580783915 0  0.4665727251511405 0.2038238154617746 0  0.5259274680675793 0.2038006696000127 0  0.4815823118765752 0.2035640580783898 0  0.4517504165552094 0.2039070625502732 0  0.4071070238280551 0.1961993303999926 0  0.3234846806957546 0.2047001437739977 0  0.5551679484379799 0.1952998562260008 0  0.5457754356464107 0.1954447171286166 0  0.3329307555206357 0.2046017509710421 0  0.4541577316841968 0.1960357661898101 0  0.3358300776141575 0.1950765652117375 0  0.2539718587514912 0.200011552766824 0  0.5826472073721517 0.2039971170156656 0  0.2761021761080182 0.1946948236183283 0  0.3898581462796225 0.2041572776584344 0  0.3552515063402743 0.2041572776584256 0  0.2965028074750666 0.2046578268138723 0  0.4299158836614793 0.1951782397873778 0  0.379426563923736 0.2049969334481307 0  0.2860882692072842 0.2042624797643994 0  0.3449948044168807 0.2051793676155613 0  0.2603922435707652 0.1950997711614917 0  0.5949856943860
[...]
<PointData  Vectors="f_18-1"> 
<DataArray  type="Float64"  Name="f_18-1"  NumberOfComponents="3" format="ascii">-2.6844504975303086e-02 -1.1379759227381332e-01 0.0000000000000000e+00  -1.8069473632134968e-02 -1.1582551652849245e-01 0.0000000000000000e+00  0.0000000000000000e+00 0.0000000000000000e+00 0.0000000000000000e+00  0.0000000000000000e+00 0.0000000000000000e+00 0.0000000000000000e+00  -2.2456921655764513e-02 -1.1481152331760271e-01 0.0000000000000000e+00  0.0000000000000000e+00 0.0000000000000000e+00 0.0000000000000000e+00  0.0000000000000000e+00 0.0000000000000000e+00 0.0000000000000000e+00  0.0000000000000000e+00 0.0000000000000000e+00 0.0000000000000000e+00  0.0000000000000000e+00 0.0000000000000000e+00 0.0000000000000000e+00  1.5308583204178171e-04 -1.3464222859028716e-04 0.0000000000000000e+00  3.2093930985994528e-04 -2.8349239719722275e-04 0.0000000000000000e+00  4.8599643292519487e-04 -4.7396541208872053e-04 0.0000000000000000e+00  6.3791076444954240e-04 -7.9065767679178847e-04 0.0000000000000000e+00  7.7754920798091417e-04 -1.1761708478503453e-03 0.0000000000000000e+00  9.1694036012444804e-04 -1.6586943827518494e-03 0.0000000000000000e+00  1.0358297246578023e-03 -2.1916539305981394e-03 0.0000000000000000e+00  1.1320233918661394e-03 -2.8122236701714491e-03 0.0000000000000000e+00  1.2216881708493237e-03 -3.5025679932586284e-03 0.0000000000000000e+00  1.2932093582925968e-03 -4.2617616644187355e-03 0.0000000000000000e+00  1.3592811375042592e-03 -5.1141795384025334e-03 0.0000000000000000e+00  1.4217584650096993e-03 -5.9819689638059620e-03 0.0000000000000000e+00  1.4469654119891053e-03 -6.9512580053383106e-03 0.0000000000000000e+00  1.4834206369259200e-03 -7.9784016942070126e-03 0.0000000000000000e+00  1.4816531982187740e-03 -9.0533342122845195e-03 0.0000000000000000e+00  1.4699150637077279e-03 -1.0203161315339012e-02 0.0000000000000000e+00  1.4413538088100999e-03 -1.1394948154930393e-02 0.0000000000000000e+00  1.3910210467859808e-03 -1.2658061035856618e-02 0.0000000000000000e+00  1.3223062779761830e-03 -1.3949845510068828e-02 0.0000000000000000e+00  1.2369220611946024e-03 -1.5302586308722041e-02 0.0000000000000000e+00  1.1329508299639675e-03 -1.6696729387509910e-02 0.0000000000000000e+00  1.0093047543803405e-03 -1.8131457315174297e-02 0.0000000000000000e+00  8.7373771163352161e-04 -1.9635037311073449e-02 0.0000000000000000e+00  7.3495185563443718e-04 -2.1148794870817764e-02 0.0000000000000000e+00  5.6718666536884163e-04 -2.2721534125527805e-02 0.0000000000000000e+00  3.8400994997141245e-04 -2.4318440948642831e-02 0.0000000000000000e+00  1.8463768735626319e-04 -2.5960203474325788e-02 0.0000000000000000e+00  -3.0663705569994989e-05 -2.7633684374964766e-02 0.0000000000000000e+00  -2.6377976935548021e-04 -2.9336756505354559e-02 0.0000000000000000e+00  -5.0934350500719643e-04 -3.1090865927156094e-02 0.0000000000000000e+00  -7.5737643719721835e-04 -3.2849877410040959e-02 0.0000000000000000e+00  -1.0346155176066327e-03 -3.4650122449433010e-02 0.0000000000000000e+00  -1.3227658473017518e-03 -3.6485346610601502e-02 0.0000000000000000e+00  -1.6149102524283608e-03 -3.8328490579609839e-02 0.0000000000000000e+00  -1.9321228433534043e-03 -4.0208020475714375e-02 0.0000000000000000e+00  -2.2503721733254556e-03 -4.2107982213948653e-02 0.0000000000000000e+00  -2.5891089155912661e-03 -4.4028233968761203e-02 0.0000000000000000e+00  -2.9326974870191582e-03 -4.5975347827948300e-02 0.0000000000000000e+00  -3.2918677742699840e-03 -4.7935268911386587e-02 0.0000000000000000e+00  -3.6630308678925875e-03 -4.9917024547520110e-02 0.0000000000000000e+00  -4.0405634813156770e-03 -5.1914651531282573e-02 0.0000000000000000e+00  -4.4271198714134164e-03 -5.3930108391360920e-02 0.0000000000000000e+00  -4.8266906217830042e-03 -5.5960204098006006e-02 0.0000000000000000e+00  -5.2315258552836095e-03 -5.8003928852307228e-02 0.0000000000000000e+00  -5.6447517800665079e-03 -6.0062835766980564e-02 0.0000000000000000e+00  -6.0689846698199134e-03 -6.2133742030714048e-02 0.0000000000000000e+00  -6.4984917066517271e-03 -6.4215491694448984e-02 0.0000000000000000e+00  -6.9351005049017884e-03 -6.6309511184147227e-02 0.0000000000000000e+00  -7.3803378909119161e-03 -6.8412271799576665e-02 0.0000000000000000e+00  -7.8300323879505716e-03 -7.0523471164204141e-02 0.0000000000000000e+00  -8.2854667608234199e-03 -7.2644022419007886e-02 0.0000000000000000e+00  -8.7477949536638022e-03 -7.4771206613081551e-02 0.0000000000000000e+00  -9.2137084618413006e-03 -7.6904590128248226e-02 0.0000000000000000e+00  -9.6842307240382168e-03 -7.9044843582561239e-02 0.0000000000000000e+00  -1.0160037955444009e-02 -8.1189728682708309e-02 0.0000000000000000e+00  -1.0638423729083567e-02 -8.3339207991939029e-02 0.0000000000000000e+00  -1.1120347419636680e-02 -8.5493267594998923e-02 0.0000000000000000e+00  -1.1605796103696412e-02 -8.7650589716354796e-02 0.0000000000000000e+00  -1.2094164791744109e-02 -8.9810230343378636e-02 0.0000000000000000e+00  -1.2585515567245735e-02 -9.1972773419992160e-02 0.0000000000000000e+00  -1.3078811714008359e-02 -9.4137885693305320e-02 0.0000000000000000e+00  -1.3572756644525612e-02 -9.6303274178894824e-02 0.0000000000000000e+00  -1.4069322830536407e-02 -9.8470872503704399e-02 0.0000000000000000e+00  -1.4566504666429990e-02 -1.0063943154945058e-01 0.0000000000000000e+00  -1.5065157317189137e-02 -1.0280835288544214e-01 0.0000000000000000e+00  -1.5564908054797001e-02 -1.0497800521327078e-01 0.0000000000000000e+00  -1.6065039270511061e-02 -1.0714757081836897e-01 0.0000000000000000e+00  -1.6565860003413195e-02 -1.0931723725081127e-01 0.0000000000000000e+00  -1.7066999556062196e-02 -1.1148690968845885e-01 0.0000000000000000e+00  -1.7568177390878442e-02 -1.1365625463895598e-01 0.0000000000000000e+00  -2.6343157661253599e-02 -1.1162839061854679e-01 0.0000000000000000e+00  -2.5841640133688899e-02 -1.0945914223555078e-01 0.0000000000000000e+00  -2.5339908769263016e-02 -1.0728977943114047e-01 0.0000000000000000e+00  -2.4837904442581240e-02 -1.0512060960908588e-01 0.0000000000000000e+00  -2.4335729314337855e-02 -1.0295190823478870e-01 0.0000000000000000e+00  -2.3833258527955412e-02 -1.0078354491878572e-01 0.0000000000000000e+00  -2.3330672311139007e-02 -9.8616435692913937e-02 0.0000000000000000e+00  -2.2827592275311739e-02 -9.6450734612968492e-02 0.0000000000000000e+00  -2.2324817968806109e-02 -9.4286075567076869e-02 0.0000000000000000e+00  -2.1822071898525253e-02 -9.2124151176484176e-02 0.0000000000000000e+00  -2.1319215734495481e-02 -8.9963853848759837e-02 0.0000000000000000e+00  -2.0817514363188992e-02 -8.7806857049443507e-02 0.0000000000000000e+00  -2.0316101438999423e-02 -8.5654460369497823e-02 0.0000000000000000e+00  -1.9813991898199945e-02 -8.3503442396718350e-02 0.0000000000000000e+00  -1.9314288339175329e-02 -8.1358153490729002e-02 0.0000000000000000e+00  -1.8815283469463737e-02 -7.9220123427671860e-02 0.0000000000000000e+00  -1.8315670307864521e-02 -7.7084211431133101e-02 0.0000000000000000e+00  -1.7820229985776159e-02 -7.4956535885500525e-02 0.0000000000000000e+00  -1.7325862653639751e-02 -7.2838713851105880e-02 0.0000000000000000e+00  -1.6830846603902962e-02 -7.0723754380820805e-02 0.0000000000000000e+00  -1.6341843392927807e-02 -6.8619991399106767e-02 0.0000000000000000e+00  -1.5854471932329771e-02 -6.6529209563654504e-02 0.0000000000000000e+00  -1.5366440493752270e-02 -6.4442109808107453e-02 0.0000000000000000e+00  -1.4886525281059782e-02 -6.2369485495282165e-02 0.0000000000000000e+00  -1.4408856216004330e-02 -6.0313612236787856e-02 0.0000000000000000e+00  -1.3931398315366553e-02 -5.8263943513231033e-02 0.0000000000000000e+00  -1.3461307361925298e-02 -5.6230222920919129e-02 0.0000000000000000e+00  -1.2995482996892528e-02 -5.4217922184460109e-02 0.0000000000000000e+00  -1.2530368977671614e-02 -5.2209745730832466e-02 0.0000000000000000e+00  -1.2078615038697841e-02 -5.0222968144483841e-02 0.0000000000000000e+00  -1.1628862122922122e-02 -4.8264115037596166e-02 0.0000000000000000e+00  -1.1178797416905266e-02 -4.6311843039925887e-02 0.0000000000000000e+00  -1.0740919231445047e-02 -4.4387070915844561e-02 0.0000000000000000e+00  -1.0309557160695836e-02 -4.2476096731114708e-02 0.0000000000000000e+00  -9.8848032911302720e-03 -4.0589396137740999e-02 0.0000000000000000e+00  -9.4715902252523309e-03 -3.8732018465296676e-02 0.0000000000000000e+00  -9.0565447102506896e-03 -3.6892627119667815e-02 0.0000000000000000e+00  -8.6549380722982863e-03 -3.5082676999051779e-02 0.0000000000000000e+00  -8.2561495411425483e-03 -3.3299583239082158e-02 0.0000000000000000e+00  -7.8637970949389513e-03 -3.1547578361511994e-02 0.0000000000000000e+00  -7.4827879017954858e-03 -2.9827654556681453e-02 0.0000000000000000e+00  -7.1155230009836796e-03 -2.8130624796486019e-02 0.0000000000000000e+00  -6.7596084790652617e-03 -2.6470347238704731e-02 0.0000000000000000e+00  -6.3949464249045311e-03 -2.4840787141695783e-02 0.0000000000000000e+00  -6.0553981010089096e-03 -2.3249809818952173e-02 0.0000000000000000e+00  -5.7119891281853328e-03 -2.1704338382483292e-02 0.0000000000000000e+00  -5.3891813453752881e-03 -2.0186871015480383e-02 0.0000000000000000e+00  -5.0730356073010064e-03 -1.8720518133284094e-02 0.0000000000000000e+00  -4.7718358986812912e-03 -1.7283101054471773e-02 0.0000000000000000e+00  -4.4835561186077144e-03 -1.5894957749940188e-02 0.0000000000000000e+00  -4.1818608914234758e-03 -1.4545369493615604e-02 0.0000000000000000e+00  -3.9099976606395016e-03 -1.3244769552773428e-02 0.0000000000000000e+00  -3.6285124423032756e-03 -1.2003923162764199e-02 0.0000000000000000e+00  -3.3785421610728083e-03 -1.0802926292305965e-02 0.0000000000000000e+00  -3.1338128613245882e-03 -9.6774805706509089e-03 0.0000000000000000e+00  -2.8854023767105564e-03 -8.5692773255002016e-03 0.0000000000000000e+00  -2.6602768980307683e-03 -7.5411937580327900e-03 0.0000000000000000e+00  -2.4153487974261133e-03 -6.5698910990316193e-03 0.0000000000000000e+00  -2.2042428685267504e-03 -5.6507499011440396e-03 0.0000000000000000e+00  -1.9956622875448183e-03 -4.8129884876661876e-03 0.0000000000000000e+00  -1.7992532978111243e-03 -4.0194531488957344e-03 0.0000000000000000e+00  -1.6130708417248063e-03 -3.3043277499508238e-03 0.0000000000000000e+00  -1.4067022917399054e-03 -2.6438670457088901e-03 0.0000000000000000e+00  -1.2352212986118144e-03 -2.0550585092817238e-03 0.0000000000000000e+00  -1.0389378430587580e-03 -1.5398837634648381e-03 0.0000000000000000e+00  -8.6953185984053590e-04 -1.1111371055030717e-03 0.0000000000000000e+00  -6.7855208784577104e-04 -7.5719180726542329e-04 0.0000000000000000e+00  -5.0629763749102758e-04 -4.5846099817828449e-04 0.0000000000000000e+00  -3.3748679232158851e-04 -2.4948510388680712e-04 0.0000000000000000e+00  -1.6762884594396742e-04 -1.4272103045324529e-04 0.0000000000000000e+00  -2.4650656242864347e-02 -1.1430458073528162e-01 0.0000000000000000e+00  -2.0263243942610972e-02 -1.1531849127878195e-01 0.0000000000000000e+00  1.5535544447323850e-05 -1.3811229701415933e-04 0.0000000000000000e+00  -1.6702537864204791e-02 -8.9884287082026434e-02 0.0000000000000000e+00  -1.9249044895252199e-02 -1.0087181424651763e-01 0.0000000000000000e+00  1.5129899438869498e-05 -1.3716569306201779e-03 0.0000000000000000e+00  -1.3832164065268250e-02 -7.7136728413112102e-02 0.0000000000000000e+00  -1.5297512895855195e-02 -8.3566480301860771e-02 0.0000000000000000e+00  -2.8518700879032974e-04 -3.4436800738194724e-03 0.0000000000000000e+00  -2.0910646419126828e-02 -1.0720780456178591e-01 0.0000000000000000e+00  -4.1442724514467098e-04 -6.1235434439633482e-03 0.0000000000000000e+00  -8.7429482425316839e-04 -1.2032617442859604e-02 0.0000000000000000e+00  -1.2393161139044937e-02 -7.0762334740528093e-02 0.0000000000000000e+00  -1.7537980840031480e-03 -1.6942032920118786e-02 0.0000000000000000e+00  -1.0989633339814018e-02 -6.4463143928308236e-02 0.0000000000000000e+00  -2.4600058985299123e-03 -2.1568984956004324e-02 0.0000000000000000e+00  -3.5205979731050079e-03 -2.7849576077699913e-02 0.0000000000000000e+00  -9.7467580939392898e-03 -5.8075981904847002e-02 0.0000000000000000e+00  -8.2591306509223385e-03 -5.2047076501207254e-02 0.0000000000000000e+00  -4.4012847620205527e-03 -3.2918150929486571e-02 0.0000000000000000e+00  -5.5006908062536809e-03 -3.8501727441857751e-02 0.0000000000000000e+00  -6.9797796048661851e-03 -4.5871645649459392e-02 0.0000000000000000e+00  -6.0915434978838152e-04 -8.1012247687265969e-03 0.0000000000000000e+00  -1.8244377156831089e-02 -9.6561676370403124e-02 0.0000000000000000e+00  -6.1953674112717192e-03 -4.1729049904218850e-02 0.0000000000000000e+00  -1.3795441802941244e-03 -1.4565157321514354e-02 0.0000000000000000e+00  -2.9799421099227347e-03 -2.4997739853985752e-02 0.0000000000000000e+00  -1.1117588996360977e-04 -2.3398430995550195e-03 0.0000000000000000e+00  -2.2326608677704023e-02 -1.1073809957354128e-01 0.0000000000000000e+00  8.0564250287149672e-05 -6.1010452692815539e-04 0.0000000000000000e+00  -7.9826838766513218e-03 -5.5263103542430941e-02 0.0000000000000000e+00  -1.0658124799610926e-02 -6.7668837088964109e-02 0.0000000000000000e+00  -1.2067274378288971e-02 -7.4011855479668071e-02 0.0000000000000000e+00  -4.7639040172381955e-03 -3.0273410157360413e-02 0.0000000000000000e+00  -9.2928077850744084e-03 -6.1410921907507861e-02 0.0000000000000000e+00  -1.3510640248984953e-02 -8.0418898416234050e-02 0.0000000000000000e+00  -6.7395816693707122e-03 -4.9250513607701912e-02 0.0000000000000000e+00  -1.4979325306299491e-02 -8.6871817233117349e-02 0.0000000000000000e+00  -5.7947950692040107e-03 -3.5591550562345857e-02 0.0000000000000000e+00  -2.7507461484089354e-03 -1.9015091328453606e-02 0.0000000000000000e+00  -6.7328878196485785e-04 -4.8398154229581476e-03 0.0000000000000000e+00  -2.0936499802111218e-02 -1.0373619393121199e-01 0.0000000000000000e+00  -1.8693595660956349e-02 -9.2794245531466896e-02 0.0000000000000000e+00  -1.6057614707122667e-04 -9.9609465110675772e-03 0.0000000000000000e+00  -1.5555292458399652e-02 -9.2576225236682214e-02 0.0000000000000000e+00  -1.7745333551405789e-03 -1.0266647449287947e-02 0.0000000000000000e+00  -1.7866166851939900e-02 -8.7216162108877546e-02 0.0000000000000000e+00  -1.6378052263061126e-02 -8.0765690093833109e-02 0.0000000000000000e+00  -1.4907465938499882e-02 -7.4361888239664081e-02 0.0000000000000000e+00  -1.8472880071076853e-02 -1.0531783851742674e-01 0.0000000000000000e+00  3.6752746253485258e-04 -4.5645035149579219e-03 0.0000000000000000e+00  -1.2049394717237653e-02 -6.1770093290293218e-02 0.0000000000000000e+00  -1.3461677585649739e-02 -6.8022895011214335e-02 0.0000000000000000e+00  -2.4999057357891377e-03 -2.9893832043031844e-02 0.0000000000000000e+00  -8.4153867078464806e-04 -1.8642608663384224e-02 0.0000000000000000e+00  -1.0289457073845598e-02 -5.3837189333053426e-02 0.0000000000000000e+00  -9.3631068414170657e-03 -4.9621050308227811e-02 0.0000000000000000e+00  -3.4061480911228921e-03 -3.5213735655931361e-02 0.0000000000000000e+00  -7.4041549697661513e-05 -5.8945505410155010e-05 0.0000000000000000e+00  5.2562712725565472e-05 -4.5657073109296022e-05 0.0000000000000000e+00  -5.2013032770332852e-03 -4.4646814781242793e-02 0.0000000000000000e+00  -3.8664818607773185e-03 -2.2614992884158313e-02 0.0000000000000000e+00  -2.2156562982722987e-03 -1.2809487769615940e-02 0.0000000000000000e+00  -4.9504683643190124e-04 -1.7619809272564869e-03 0.0000000000000000e+00  -6.7182266352324934e-04 -2.9754172063080372e-03 0.0000000000000000e+00  -4.3867503615818045e-03 -4.0744241323985478e-02 0.0000000000000000e+00  -2.6310255408447331e-03 -1.5346305573226342e-02 0.0000000000000000e+00  -4.5327405518742619e-03 -2.5897595591062781e-02 0.0000000000000000e+00  -1.3075693478799063e-03 -7.2828602105116311e-03 0.0000000000000000e+00  -1.6963726949106309e-02 -9.8588653215628277e-02 0.0000000000000000e+00  -2.0367666809065575e-02 -9.7935618157655224e-02 0.0000000000000000e+00  2.4481238117402720e-04 -7.3606562006663526e-03 0.0000000000000000e+00  -3.3979849846876869e-04 -8.3966162879366580e-04 0.0000000000000000e+00  -1.9097277054880863e-02 -1.0971807942669710e-01 0.0000000000000000e+00  -8.4167335024598611e-03 -4.3944945769851119e-02 0.0000000000000000e+00  -7.4195264027493860e-03 -4.0008029167699868e-02 0.0000000000000000e+00  3.7066849498624874e-05 -1.3014662037991741e-02 0.0000000000000000e+00  4.2094984584332078e-04 -1.7734395299575496e-03 0.0000000000000000e+00  4.9115372263479470e-04 -3.0844445173480025e-03 0.0000000000000000e+00  -1.2365554847556515e-03 -2.3093328374143070e-02 0.0000000000000000e+00  -1.2358210930907976e-04 -1.5646983713094833e-02 0.0000000000000000e+00  -1.4961208952500441e-03 -2.6345671057326898e-02 0.0000000000000000e+00  -2.1154146542189442e-04 -4.3885594305601076e-04 0.0000000000000000e+00  -2.0108269288495850e-02 -1.1273108798854170e-01 0.0000000000000000e+00  -1.7490158211696017e-02 -8.4631210389991079e-02 0.0000000000000000e+00  -1.6007261078459102e-02 -7.8197883246992436e-02 0.0000000000000000e+00  4.1232792710533682e-04 -5.5866667547925112e-03 0.0000000000000000e+00  -1.4543950023538687e-02 -7.1818246327005952e-02 0.0000000000000000e+00  -1.7677409360056132e-02 -1.0281564445398010e-01 0.0000000000000000e+00  -1.3108113598735965e-02 -6.5511730526510548e-02 0.0000000000000000e+00  -1.1714166610748101e-02 -5.9318384219877514e-02 0.0000000000000000e+00  -9.3184193387304192e-04 -2.0428146159865237e-02 0.0000000000000000e+00  -1.1007548842002749e-02 -5.6159663330025145e-02 0.0000000000000000e+00  -2.6794442901872484e-03 -3.1981652394909910e-02 0.0000000000000000e+00  -9.0631285617845721e-03 -4.7265535786589125e-02 0.0000000000000000e+00  -3.6172467618075651e-03 -3.7404011882879659e-02 0.0000000000000000e+00  -2.2978276746478024e-02 -1.0845340032894213e-01 0.0000000000000000e+00  -1.5872814398869704e-02 -9.5150111444654059e-02 0.0000000000000000e+00  -1.7016045136256238e-03 -8.9404708474992902e-03 0.0000000000000000e+00  3.4179214589948509e-04 -9.2882288359895945e-04 0.0000000000000000e+00  1.8423165908612360e-04 -3.5416425460355088e-04 0.0000000000000000e+00  -6.6026910315778609e-03 -5.3519089397501628e-02 0.0000000000000000e+00  -6.9697282255767740e-03 -3.7148818368955609e-02 0.0000000000000000e+00  -7.8698806512583729e-03 -5.9635232418598146e-02 0.0000000000000000e+00  -1.2046338513403700e-02 -7.8569252328308442e-02 0.0000000000000000e+00  -9.2403522835051884e-03 -6.5852780191322319e-02 0.0000000000000000e+00  -1.0623093445352155e-02 -7.2176427445906993e-02 0.0000000000000000e+00  -5.6719361332851293e-03 -3.1924924935080590e-02 0.0000000000000000e+00  -5.4823705886948805e-03 -4.7575376299826590e-02 0.0000000000000000e+00  -3.6580819316747418e-03 -2.0332271274829773e-02 0.0000000000000000e+00  -5.2758306784522748e-03 -2.8480805434978444e-02 0.0000000000000000e+00  -1.4409161691567094e-02 -8.9199018378098474e-02 0.0000000000000000e+00  -3.2125100621570725e-03 -1.7517707978057448e-02 0.0000000000000000e+00  -1.3785804809498923e-02 -8.4862341215403411e-02 0.0000000000000000e+00  -1.1732120468411363e-03 -5.6214824875466841e-03 0.0000000000000000e+00  -9.5739879875691763e-04 -4.0402187302836876e-03 0.0000000000000000e+00  -2.2349506288142546e-02 -1.0543945906194679e-01 0.0000000000000000e+00  -2.1505321835764125e-02 -1.0139669421060313e-01 0.0000000000000000e+00  -1.2002127890623590e-02 -7.6370446263695754e-02 0.0000000000000000e+00  -1.0586060403945937e-02 -6.9999952853145211e-02 0.0000000000000000e+00  -7.7694843632045716e-03 -5.7462462938246597e-02 0.0000000000000000e+00  -1.3333625186026311e-02 -8.2756146159418190e-02 0.0000000000000000e+00  -9.2123820324457976e-03 -6.3706149163680822e-02 0.0000000000000000e+00  -6.4847162883830507e-03 -5.1406846488957519e-02 0.0000000000000000e+00  -5.9942211528676908e-03 -3.3654947318523948e-02 0.0000000000000000e+00  3.3038202040724273e-04 -8.9414426817354224e-03 0.0000000000000000e+00  -1.9969997815208290e-02 -9.4671157333393638e-02 0.0000000000000000e+00  -1.8956009172611425e-02 -9.0577095475494571e-02 0.0000000000000000e+