<?xml version="1.0"?>
<VTKFile type="UnstructuredGrid"  version="0.1"  >
<UnstructuredGrid>
<Piece  NumberOfPoints="439" NumberOfCells="725">
<Points>
<DataArray  type="Float64"  NumberOfComponents="3"  format="ascii">0.6 0.19 0  0.6 0.21 0  0.2489897949 0.21 0  0.2489897949 0.19 0  0.6 0.2 0  0.2496355385699469 0.2060260530378829 0  0.249959460510575 0.2020130349814059 0  0.2499594605105767 0.1979869650186357 0  0.24963553856995 0.1939739469621422 0  0.2539336006056293 0.21 0  0.2588774063112542 0.21 0  0.2638212120168921 0.21 0  0.26876501772253 0.21 0  0.2737088234281569 0.21 0  0.2786526291337753 0.21 0  0.2835964348393937 0.21 0  0.2885402405450166 0.21 0  0.2934840462506522 0.21 0  0.2984278519562708 0.21 0  0.3033716576618997 0.21 0  0.3083154633675181 0.21 0  0.3132592690731365 0.21 0  0.3182030747787549 0.21 0  0.3231468804843732 0.21 0  0.3280906861899917 0.21 0  0.3330344918956208 0.21 0  0.3379782976012284 0.21 0  0.3429221033068576 0.21 0  0.347865909012476 0.21 0  0.3528097147180944 0.21 0  0.3577535204237128 0.21 0  0.3626973261293311 0.21 0  0.3676411318349495 0.21 0  0.3725849375405788 0.21 0  0.3775287432461877 0.21 0  0.382472548951812 0.21 0  0.3874163546574338 0.21 0  0.3923601603630631 0.21 0  0.3973039660686706 0.21 0  0.4022477717742986 0.21 0  0.4071915774799107 0.21 0  0.4121353831855311 0.21 0  0.4170791888911518 0.21 0  0.4220229945967636 0.21 0  0.4269668003023918 0.21 0  0.4319106060080253 0.21 0  0.4368544117136773 0.21 0  0.4417982174193329 0.21 0  0.4467420231249967 0.21 0  0.4516858288306445 0.21 0  0.4566296345362864 0.21 0  0.461573440241916 0.21 0  0.4665172459475665 0.21 0  0.4714610516531998 0.21 0  0.4764048573588668 0.21 0  0.4813486630645134 0.21 0  0.486292468770176 0.21 0  0.4912362744758066 0.21 0  0.4961800801814611 0.21 0  0.5011238858870897 0.21 0  0.5060676915927493 0.21 0  0.5110114972983872 0.21 0  0.5159553030040036 0.21 0  0.5208991087096415 0.21 0  0.5258429144153002 0.21 0  0.5307867201209391 0.21 0  0.5357305258265987 0.21 0  0.5406743315322367 0.21 0  0.5456181372378529 0.21 0  0.5505619429434908 0.21 0  0.5555057486491456 0.21 0  0.5604495543547885 0.21 0  0.565393360060448 0.21 0  0.5703371657661116 0.21 0  0.5752809714717458 0.21 0  0.5802247771773834 0.21 0  0.5851685828830341 0.21 0  0.5901123885886809 0.21 0  0.5950561942943404 0.21 0  0.5950561942943833 0.19 0  0.590112388588758 0.19 0  0.5851685828831193 0.19 0  0.5802247771774727 0.19 0  0.5752809714718514 0.19 0  0.5703371657662308 0.19 0  0.565393360060618 0.19 0  0.5604495543549889 0.19 0  0.5555057486493581 0.19 0  0.5505619429437035 0.19 0  0.5456181372381043 0.19 0  0.540674331532505 0.19 0  0.5357305258268962 0.19 0  0.530786720121263 0.19 0  0.5258429144156628 0.19 0  0.5208991087100244 0.19 0  0.5159553030044218 0.19 0  0.5110114972988226 0.19 0  0.5060676915932177 0.19 0  0.5011238858875806 0.19 0  0.496180080181972 0.19 0  0.4912362744763531 0.19 0  0.4862924687707343 0.19 0  0.4813486630651046 0.19 0  0.4764048573594966 0.19 0  0.4714610516538683 0.19 0  0.4665172459482555 0.19 0  0.4615734402426349 0.19 0  0.4566296345370104 0.19 0  0.4516858288313808 0.19 0  0.4467420231257716 0.19 0  0.4417982174201465 0.19 0  0.4368544117145297 0.19 0  0.4319106060089131 0.19 0  0.4269668003032866 0.19 0  0.4220229945976482 0.19 0  0.4170791888920056 0.19 0  0.4121353831863594 0.19 0  0.4071915774806995 0.19 0  0.4022477717750478 0.19 0  0.3973039660693901 0.19 0  0.3923601603637548 0.19 0  0.3874163546581082 0.19 0  0.3824725489524824 0.19 0  0.3775287432468258 0.19 0  0.3725849375411773 0.19 0  0.3676411318355085 0.19 0  0.3626973261298614 0.19 0  0.3577535204242108 0.19 0  0.352809714718589 0.19 0  0.347865909012931 0.19 0  0.342922103307292 0.19 0  0.3379782976016536 0.19 0  0.3330344918960152 0.19 0  0.3280906861903751 0.19 0  0.3231468804847171 0.19 0  0.3182030747790592 0.19 0  0.3132592690734012 0.19 0  0.3083154633677581 0.19 0  0.3033716576621197 0.19 0  0.2984278519564813 0.19 0  0.2934840462508429 0.19 0  0.2885402405451874 0.19 0  0.2835964348395295 0.19 0  0.2786526291338716 0.19 0  0.2737088234282243 0.19 0  0.268765017722586 0.19 0  0.2638212120169476 0.19 0  0.2588774063113093 0.19 0  0.2539336006056579 0.19 0  0.6 0.1949999999999783 0  0.6 0.2049999999999729 0  0.2589734265316493 0.2005523893428403 0  0.5431462343853077 0.199999999999969 0  0.5682397894768162 0.1999704585808987 0  0.2774513927118024 0.2007941919421926 0  0.513849583376897 0.1999023426490919 0  0.5286810004937381 0.1999023426490969 0  0.2945108952057646 0.1992911908405386 0  0.5827780831384927 0.1995429801003349 0  0.3104128396569256 0.1999704585808978 0  0.3370001755418551 0.2008294612433967 0  0.4990181662600459 0.1999023426490902 0  0.3552816175709044 0.2000000000000608 0  0.4841867491431925 0.1999023426490849 0  0.3707373713905551 0.2000142376953689 0  0.3898882575102495 0.2000000000000828 0  0.4689857550492734 0.1995416724256694 0  0.4541577316841967 0.1999999999999098 0  0.4043534914018331 0.2000976573509244 0  0.4195510917439569 0.2000000000001057 0  0.4387019778644512 0.1999857623046772 0  0.3202472750256703 0.2000088842146399 0  0.5584053541080851 0.1999911157853577 0  0.4280667146887134 0.1998489048208241 0  0.3467659946265474 0.2001510951794375 0  0.3813726345658908 0.200151095179452 0  0.2860683376922098 0.2000415445706182 0  0.5911223811781194 0.1982449159348744 0  0.2679893161458627 0.201675125646729 0  0.4615734402426278 0.2022503633288003 0  0.4912362744763454 0.2022503633288091 0  0.5060676915931983 0.2022503633288118 0  0.3973039660686774 0.1977496366711965 0  0.4764048573594896 0.2022503633288051 0  0.5208991087100455 0.2022503633288184 0  0.4467420231257656 0.2022503633288 0  0.5357305258268849 0.2022503633288198 0  0.4121353831855317 0.1977496366711976 0  0.3626973261293352 0.1977496366711919 0  0.3033716576618961 0.1977496366711869 0  0.5752809714718229 0.1977496366711503 0  0.550459855919056 0.1971284784737667 0  0.3281927732146841 0.2028715215262406 0  0.5484179020497461 0.2038403215694763 0  0.3302347270839988 0.1961596784305491 0  0.5379210852238114 0.196125181664411 0  0.5230896681069652 0.1961251816644058 0  0.5082582509901222 0.1961251816644098 0  0.5774715308687094 0.2038748183355887 0  0.3011810982649548 0.2038748183355937 0  0.4785954167564111 0.196125181664404 0  0.4934268338732671 0.1961251816644063 0  0.395113406671763 0.2038748183355966 0  0.3605067667324117 0.2038748183355951 0  0.4593828808457146 0.1961251816643993 0  0.4489325825226805 0.1961251816644007 0  0.4099448237886219 0.2038748183355991 0  0.2557862999801971 0.1960858370257295 0  0.2550147360309399 0.2034426429991114 0  0.4348031476464689 0.2037737577641554 0  0.37463620160841 0.1962262422358553 0  0.3406258365864304 0.196046792193989 0  0.2813001681189834 0.1960467921940502 0  0.2912686387439893 0.1960816328649282 0  0.4246705335819892 0.2039532078059544 0  0.350162175732913 0.1960467921941878 0  0.3847688156722694 0.1960467921942359 0  0.316632368538356 0.19615945856337 0  0.5621550011053409 0.2037816492598991 0  0.5624413877019769 0.1960761923611377 0  0.3162395035833128 0.2038679557424692 0  0.2710887134207622 0.1959696443325838 0  0.5873014376403604 0.2047227881030823 0  0.4346679566442709 0.1954651459552513 0  0.4243296504077986 0.1958756980939062 0  0.3402559510833523 0.2047940500290923 0  0.2808684926760933 0.2047742417812656 0  0.2914077033138723 0.2047809517070955 0  0.3747713926104932 0.2045348540448554 0  0.3499216488898867 0.2051753413186305 0  0.3845282888292298 0.205175341318636 0  0.2648144865455052 0.1962089742986374 0  0.5943247643662894 0.2040415423589182 0  0.5320972610456145 0.1956445099050872 0  0.5172658439287727 0.1956445099050854 0  0.3069923255602658 0.2043468033872551 0  0.5024344268119265 0.1956445099050864 0  0.5716603035734351 0.2043468033872761 0  0.4876030096950741 0.1956445099050831 0  0.4728151975296263 0.1956402468909894 0  0.3663301776527538 0.20436745486386 0  0.4651631000724991 0.1956402468909893 0  0.4009372308499527 0.2043554900949198 0  0.4431091716023345 0.1956325451361429 0  0.4157593408842466 0.2043565497109067 0  0.5865057328865416 0.1956918868509067 0  0.5541600609760193 0.2044335994013721 0  0.3244925681577497 0.1955664005986376 0  0.272008018888917 0.2049327968152409 0  0.2633407725863902 0.2042483236346266 0  0.4567948413982566 0.2046536472831198 0  0.4167680012832803 0.1955060004091903 0  0.4716262585151221 0.2046536472831242 0  0.5161054367030595 0.2045563706470633 0  0.4864426024693469 0.2045563706470604 0  0.5012740195862044 0.2045563706470634 0  0.4022810343427545 0.1961423961483001 0  0.4420739040821668 0.2044853411424516 0  0.3673807293464664 0.1955677741328205 0  0.3925253672243162 0.195346352716901 0  0.5405091246712254 0.2046536472831267 0  0.357918727284983 0.1953463527168901 0  0.5307534575528717 0.2038576038516682 0  0.3079697655029555 0.1955637092892754 0  0.2985930588175599 0.1953463527168728 0  0.579671714346879 0.1955441268455555 0  0.5705023726275059 0.1953463527168462 0  0.5112451461103119 0.2035640580783926 0  0.4964137289934448 0.2035640580783915 0  0.4665727251511405 0.2038238154617746 0  0.5259274680675793 0.2038006696000127 0  0.4815823118765752 0.2035640580783898 0  0.4517504165552094 0.2039070625502732 0  0.4071070238280551 0.1961993303999926 0  0.3234846806957546 0.2047001437739977 0  0.5551679484379799 0.1952998562260008 0  0.5457754356464107 0.1954447171286166 0  0.3329307555206357 0.2046017509710421 0  0.4541577316841968 0.1960357661898101 0  0.3358300776141575 0.1950765652117375 0  0.2539718587514912 0.200011552766824 0  0.5826472073721517 0.2039971170156656 0  0.2761021761080182 0.1946948236183283 0  0.3898581462796225 0.2041572776584344 0  0.3552515063402743 0.2041572776584256 0  0.2965028074750666 0.2046578268138723 0  0.4299158836614793 0.1951782397873778 0  0.379426563923736 0.2049969334481307 0  0.2860882692072842 0.2042624797643994 0  0.3449948044168807 0.2051793676155613 0  0.2603922435707652 0.1950997711614917 0  0.5949856943860
[...]
<PointData  Vectors="f_18-1"> 
<DataArray  type="Float64"  Name="f_18-1"  NumberOfComponents="3" format="ascii">-2.8252579981707725e-02 -1.1615723514609644e-01 0.0000000000000000e+00  -1.9148721421954947e-02 -1.1834950269803494e-01 0.0000000000000000e+00  0.0000000000000000e+00 0.0000000000000000e+00 0.0000000000000000e+00  0.0000000000000000e+00 0.0000000000000000e+00 0.0000000000000000e+00  -2.3700595814953117e-02 -1.1725332615778644e-01 0.0000000000000000e+00  0.0000000000000000e+00 0.0000000000000000e+00 0.0000000000000000e+00  0.0000000000000000e+00 0.0000000000000000e+00 0.0000000000000000e+00  0.0000000000000000e+00 0.0000000000000000e+00 0.0000000000000000e+00  0.0000000000000000e+00 0.0000000000000000e+00 0.0000000000000000e+00  1.4826354460849717e-04 -1.2939823208036238e-04 0.0000000000000000e+00  3.1155706417596355e-04 -2.7280523962691601e-04 0.0000000000000000e+00  4.7251790384528420e-04 -4.5661330106376330e-04 0.0000000000000000e+00  6.2129546544118864e-04 -7.6384854321017868e-04 0.0000000000000000e+00  7.5869174553366413e-04 -1.1387013759312579e-03 0.0000000000000000e+00  8.9657559746121466e-04 -1.6088811976595232e-03 0.0000000000000000e+00  1.0147537865609181e-03 -2.1290533913326352e-03 0.0000000000000000e+00  1.1111922514480772e-03 -2.7360643102774052e-03 0.0000000000000000e+00  1.2018115053585516e-03 -3.4125166816746152e-03 0.0000000000000000e+00  1.2749605527248296e-03 -4.1578798133257043e-03 0.0000000000000000e+00  1.3433611916904471e-03 -4.9969190842515197e-03 0.0000000000000000e+00  1.4084999809357741e-03 -5.8516008731759389e-03 0.0000000000000000e+00  1.4368645947220788e-03 -6.8088233705809404e-03 0.0000000000000000e+00  1.4770321163489581e-03 -7.8247473496142837e-03 0.0000000000000000e+00  1.4789115478447959e-03 -8.8893462687085999e-03 0.0000000000000000e+00  1.4711034286612112e-03 -1.0030353994916004e-02 0.0000000000000000e+00  1.4465560970983377e-03 -1.1214286389601860e-02 0.0000000000000000e+00  1.4002115731552170e-03 -1.2471272723684994e-02 0.0000000000000000e+00  1.3353264014605739e-03 -1.3757942107924925e-02 0.0000000000000000e+00  1.2537586344105176e-03 -1.5107489077085296e-02 0.0000000000000000e+00  1.1534009694271279e-03 -1.6499986326853192e-02 0.0000000000000000e+00  1.0329811440893519e-03 -1.7934947698728238e-02 0.0000000000000000e+00  9.0056579858059183e-04 -1.9442146812535612e-02 0.0000000000000000e+00  7.6505285368618869e-04 -2.0960335356396787e-02 0.0000000000000000e+00  5.9945844483039244e-04 -2.2540814447857487e-02 0.0000000000000000e+00  4.1772101384769309e-04 -2.4147281157888317e-02 0.0000000000000000e+00  2.1905073825988515e-04 -2.5801589906276408e-02 0.0000000000000000e+00  3.5803887108641434e-06 -2.7489954280999609e-02 0.0000000000000000e+00  -2.3087288875938146e-04 -2.9210328753157856e-02 0.0000000000000000e+00  -4.7865389977612047e-04 -3.0985995809718173e-02 0.0000000000000000e+00  -7.2892417661763983e-04 -3.2767174558393196e-02 0.0000000000000000e+00  -1.0108318559970911e-03 -3.4593280968111942e-02 0.0000000000000000e+00  -1.3046735948365684e-03 -3.6458003859307295e-02 0.0000000000000000e+00  -1.6027777642876441e-03 -3.8331619458913162e-02 0.0000000000000000e+00  -1.9284999024833439e-03 -4.0245556682663317e-02 0.0000000000000000e+00  -2.2553176514276117e-03 -4.2182489493044241e-02 0.0000000000000000e+00  -2.6050115843085689e-03 -4.4142394750760802e-02 0.0000000000000000e+00  -2.9601465975623398e-03 -4.6132802374990005e-02 0.0000000000000000e+00  -3.3329636544650611e-03 -4.8137934200689195e-02 0.0000000000000000e+00  -3.7195809888036415e-03 -5.0168156078623433e-02 0.0000000000000000e+00  -4.1135679096017562e-03 -5.2216775054854100e-02 0.0000000000000000e+00  -4.5180152304773241e-03 -5.4286023726860082e-02 0.0000000000000000e+00  -4.9376297203684609e-03 -5.6372205812735471e-02 0.0000000000000000e+00  -5.3634753665530721e-03 -5.8474286168547010e-02 0.0000000000000000e+00  -5.7991845752993236e-03 -6.0593991512919547e-02 0.0000000000000000e+00  -6.2478261574049213e-03 -6.2727578637693557e-02 0.0000000000000000e+00  -6.7027359937860496e-03 -6.4873837701364262e-02 0.0000000000000000e+00  -7.1660528529449126e-03 -6.7034399128454381e-02 0.0000000000000000e+00  -7.6395779118073161e-03 -6.9205109598188722e-02 0.0000000000000000e+00  -8.1184293119240802e-03 -7.1385793389487612e-02 0.0000000000000000e+00  -8.6041144864697026e-03 -7.3577547185422740e-02 0.0000000000000000e+00  -9.0980709480709670e-03 -7.5777176016209660e-02 0.0000000000000000e+00  -9.5963675310622564e-03 -7.7984365748326595e-02 0.0000000000000000e+00  -1.0100242288156249e-02 -8.0199942779756436e-02 0.0000000000000000e+00  -1.0610632788133161e-02 -8.2421257918467730e-02 0.0000000000000000e+00  -1.1124253163077601e-02 -8.4648375759012101e-02 0.0000000000000000e+00  -1.1642313305843090e-02 -8.6881241974709034e-02 0.0000000000000000e+00  -1.2164844595454891e-02 -8.9118209567071505e-02 0.0000000000000000e+00  -1.2691114585259008e-02 -9.1358066607821350e-02 0.0000000000000000e+00  -1.3221205051186482e-02 -9.3601475330511233e-02 0.0000000000000000e+00  -1.3753792817164360e-02 -9.5847921162074065e-02 0.0000000000000000e+00  -1.4287221975433259e-02 -9.8094622273170493e-02 0.0000000000000000e+00  -1.4823905859815977e-02 -1.0034379631206321e-01 0.0000000000000000e+00  -1.5361361446953773e-02 -1.0259394367105605e-01 0.0000000000000000e+00  -1.5900505084187371e-02 -1.0484436826226137e-01 0.0000000000000000e+00  -1.6440888019150564e-02 -1.0709545008238155e-01 0.0000000000000000e+00  -1.6981681309992204e-02 -1.0934639817085261e-01 0.0000000000000000e+00  -1.7523170076641809e-02 -1.1159737566726735e-01 0.0000000000000000e+00  -1.8064963234036724e-02 -1.1384832845147011e-01 0.0000000000000000e+00  -1.8606785008989508e-02 -1.1609894749952591e-01 0.0000000000000000e+00  -2.7710586894788787e-02 -1.1390673825369220e-01 0.0000000000000000e+00  -2.7168417365454067e-02 -1.1165623845562066e-01 0.0000000000000000e+00  -2.6626032711989930e-02 -1.0940563939004302e-01 0.0000000000000000e+00  -2.6083345661221436e-02 -1.0715522394831778e-01 0.0000000000000000e+00  -2.5540446151315545e-02 -1.0490527572687548e-01 0.0000000000000000e+00  -2.4997166504450330e-02 -1.0265563764397589e-01 0.0000000000000000e+00  -2.4453680196609057e-02 -1.0040734603221263e-01 0.0000000000000000e+00  -2.3909579258724747e-02 -9.8160613922312456e-02 0.0000000000000000e+00  -2.3365720065069345e-02 -9.5915031065292713e-02 0.0000000000000000e+00  -2.2821835029803578e-02 -9.3672699201563417e-02 0.0000000000000000e+00  -2.2277739021079102e-02 -9.1432349352846803e-02 0.0000000000000000e+00  -2.1735028610439432e-02 -8.9196063884345228e-02 0.0000000000000000e+00  -2.1192735912974891e-02 -8.6965578645273253e-02 0.0000000000000000e+00  -2.0649594108937391e-02 -8.4736886116631341e-02 0.0000000000000000e+00  -2.0109598624747472e-02 -8.2515378019095295e-02 0.0000000000000000e+00  -1.9570708287522189e-02 -8.0302945912691409e-02 0.0000000000000000e+00  -1.9031176431304642e-02 -7.8093157674907598e-02 0.0000000000000000e+00  -1.8497109046681993e-02 -7.5893447819979920e-02 0.0000000000000000e+00  -1.7964683882079481e-02 -7.3705656739998043e-02 0.0000000000000000e+00  -1.7431629914613705e-02 -7.1521277622625182e-02 0.0000000000000000e+00  -1.6906204087310729e-02 -6.9350181699366270e-02 0.0000000000000000e+00  -1.6383065076323644e-02 -6.7194392844041800e-02 0.0000000000000000e+00  -1.5859289332248221e-02 -6.5042902247205242e-02 0.0000000000000000e+00  -1.5345470994683355e-02 -6.2908286258871640e-02 0.0000000000000000e+00  -1.4834619465119988e-02 -6.0793195447888970e-02 0.0000000000000000e+00  -1.4324159357031895e-02 -5.8685305399600533e-02 0.0000000000000000e+00  -1.3822628799365877e-02 -5.6595910729377918e-02 0.0000000000000000e+00  -1.3326416182388875e-02 -5.4531308455462252e-02 0.0000000000000000e+00  -1.2831163815503459e-02 -5.2471495170573167e-02 0.0000000000000000e+00  -1.2351770205423763e-02 -5.0436284758795510e-02 0.0000000000000000e+00  -1.1875180594400025e-02 -4.8433248622621800e-02 0.0000000000000000e+00  -1.1398424547811366e-02 -4.6437697690935635e-02 0.0000000000000000e+00  -1.0936235132239465e-02 -4.4473582021337665e-02 0.0000000000000000e+00  -1.0481814437793946e-02 -4.2524985211154581e-02 0.0000000000000000e+00  -1.0035459626227327e-02 -4.0603805512508563e-02 0.0000000000000000e+00  -9.6026483818783953e-03 -3.8715295090551015e-02 0.0000000000000000e+00  -9.1682856436379988e-03 -3.6846816268748764e-02 0.0000000000000000e+00  -8.7493675307615277e-03 -3.5010776955110762e-02 0.0000000000000000e+00  -8.3340841824140390e-03 -3.3204120560189399e-02 0.0000000000000000e+00  -7.9264718185462699e-03 -3.1431369851183173e-02 0.0000000000000000e+00  -7.5317991997536299e-03 -2.9693311445751259e-02 0.0000000000000000e+00  -7.1524877228316608e-03 -2.7979942801934853e-02 0.0000000000000000e+00  -6.7858771997590462e-03 -2.6306109657495119e-02 0.0000000000000000e+00  -6.4102915892861306e-03 -2.4665319735448200e-02 0.0000000000000000e+00  -6.0620859858928353e-03 -2.3065500836692277e-02 0.0000000000000000e+00  -5.7102971989328316e-03 -2.1514150451073657e-02 0.0000000000000000e+00  -5.3807489341589900e-03 -1.9992313646749041e-02 0.0000000000000000e+00  -5.0586015070637116e-03 -1.8524256694375817e-02 0.0000000000000000e+00  -4.7526445786709708e-03 -1.7086533295881990e-02 0.0000000000000000e+00  -4.4605949248707026e-03 -1.5700219489890831e-02 0.0000000000000000e+00  -4.1549909511637900e-03 -1.4353963148629627e-02 0.0000000000000000e+00  -3.8807344808667278e-03 -1.3058133774421202e-02 0.0000000000000000e+00  -3.5969927556666836e-03 -1.1823828460277897e-02 0.0000000000000000e+00  -3.3458875990514119e-03 -1.0630216756521978e-02 0.0000000000000000e+00  -3.1003790286518100e-03 -9.5137020089707917e-03 0.0000000000000000e+00  -2.8512998589116287e-03 -8.4146497772171393e-03 0.0000000000000000e+00  -2.6261750520111663e-03 -7.3972034475400491e-03 0.0000000000000000e+00  -2.3811745114766642e-03 -6.4372143667036207e-03 0.0000000000000000e+00  -2.1706349677673392e-03 -5.5300720846968307e-03 0.0000000000000000e+00  -1.9628470014345679e-03 -4.7049970014756007e-03 0.0000000000000000e+00  -1.7676517431823820e-03 -3.9244394721329743e-03 0.0000000000000000e+00  -1.5830004243805515e-03 -3.2225304661556370e-03 0.0000000000000000e+00  -1.3785378527036867e-03 -2.5751807347238007e-03 0.0000000000000000e+00  -1.2091800744327915e-03 -1.9989713669079281e-03 0.0000000000000000e+00  -1.0156581288392492e-03 -1.4959143777538270e-03 0.0000000000000000e+00  -8.4906882210038204e-04 -1.0779482639073563e-03 0.0000000000000000e+00  -6.6173731690103810e-04 -7.3362023971205808e-04 0.0000000000000000e+00  -4.9314381459323079e-04 -4.4344415971805240e-04 0.0000000000000000e+00  -3.2827793903332113e-04 -2.4103150266214818e-04 0.0000000000000000e+00  -1.6280776708041105e-04 -1.3820166624578981e-04 0.0000000000000000e+00  -2.5976522912263104e-02 -1.1670530869741053e-01 0.0000000000000000e+00  -2.1424721903698419e-02 -1.1780137389038903e-01 0.0000000000000000e+00  1.4742102570037018e-05 -1.3171104839558242e-04 0.0000000000000000e+00  -1.7479286624071669e-02 -9.1391901126509356e-02 0.0000000000000000e+00  -2.0231769475379947e-02 -1.0279098074587728e-01 0.0000000000000000e+00  1.4397871542330821e-05 -1.3289988964247609e-03 0.0000000000000000e+00  -1.4382930595871254e-02 -7.8184687142148990e-02 0.0000000000000000e+00  -1.5960708092120357e-02 -8.4841879448283239e-02 0.0000000000000000e+00  -2.7846674552549014e-04 -3.3552941110344646e-03 0.0000000000000000e+00  -2.2020186533945663e-02 -1.0936273863730103e-01 0.0000000000000000e+00  -4.0346115216126756e-04 -5.9920004605110650e-03 0.0000000000000000e+00  -8.5509969757200006e-04 -1.1848083475776448e-02 0.0000000000000000e+00  -1.2838717533495381e-02 -7.1595366132805052e-02 0.0000000000000000e+00  -1.7312895035558134e-03 -1.6743361844103254e-02 0.0000000000000000e+00  -1.1338397124877638e-02 -6.5095256079213903e-02 0.0000000000000000e+00  -2.4412084088403264e-03 -2.1377372039554421e-02 0.0000000000000000e+00  -3.5178223194329171e-03 -2.7700034648434901e-02 0.0000000000000000e+00  -1.0010385121675916e-02 -5.8517128202087654e-02 0.0000000000000000e+00  -8.4417624047660334e-03 -5.2327020500326955e-02 0.0000000000000000e+00  -4.4203475733728308e-03 -3.2824857186803447e-02 0.0000000000000000e+00  -5.5550982989891178e-03 -3.8492081023541069e-02 0.0000000000000000e+00  -7.0963710044424991e-03 -4.6004716857052950e-02 0.0000000000000000e+00  -5.9440632219845782e-04 -7.9465588170165805e-03 0.0000000000000000e+00  -1.9145730944034916e-02 -9.8319002959065011e-02 0.0000000000000000e+00  -6.2757578324657655e-03 -4.1777509809023707e-02 0.0000000000000000e+00  -1.3576072054021756e-03 -1.4370320796562971e-02 0.0000000000000000e+00  -2.9679929375659589e-03 -2.4824886685927978e-02 0.0000000000000000e+00  -1.0854843956048760e-04 -2.2745751804517534e-03 0.0000000000000000e+00  -2.3526136341724558e-02 -1.1301953146697599e-01 0.0000000000000000e+00  7.7997762275506638e-05 -5.8847478270740406e-04 0.0000000000000000e+00  -8.1770696964966940e-03 -5.5633518380291243e-02 0.0000000000000000e+00  -1.1020368236067460e-02 -6.8409845167149985e-02 0.0000000000000000e+00  -1.2528169964656355e-02 -7.4961938896487404e-02 0.0000000000000000e+00  -4.7805917288612004e-03 -3.0146811131155901e-02 0.0000000000000000e+00  -9.5657300037857700e-03 -6.1957645695714422e-02 0.0000000000000000e+00  -1.4078439852755080e-02 -8.1591106722683757e-02 0.0000000000000000e+00  -6.8677612966651638e-03 -4.9466194994719132e-02 0.0000000000000000e+00  -1.5660999865687430e-02 -8.8277502270189670e-02 0.0000000000000000e+00  -5.8435746044997643e-03 -3.5533401261295255e-02 0.0000000000000000e+00  -2.7309005712215593e-03 -1.8817091054260784e-02 0.0000000000000000e+00  -6.5981110523128913e-04 -4.7276805022432415e-03 0.0000000000000000e+00  -2.2013735302237183e-02 -1.0575310283493311e-01 0.0000000000000000e+00  -1.9576280027552694e-02 -9.4398121010403901e-02 0.0000000000000000e+00  -1.4757311869468217e-04 -9.7895879975810896e-03 0.0000000000000000e+00  -1.6312759045091454e-02 -9.4200740018249948e-02 0.0000000000000000e+00  -1.7506944717052908e-03 -1.0094801359341394e-02 0.0000000000000000e+00  -1.8662513013197858e-02 -8.8609099938705110e-02 0.0000000000000000e+00  -1.7055946013013190e-02 -8.1925985692423445e-02 0.0000000000000000e+00  -1.5472524536260499e-02 -7.5301110968610002e-02 0.0000000000000000e+00  -1.9467570213934714e-02 -1.0742100645351575e-01 0.0000000000000000e+00  3.6566281691964759e-04 -4.4555547149406150e-03 0.0000000000000000e+00  -1.2411231692187091e-02 -6.2309127506020703e-02 0.0000000000000000e+00  -1.3921017721532584e-02 -6.8754443752738315e-02 0.0000000000000000e+00  -2.4893292991741171e-03 -2.9767822661168741e-02 0.0000000000000000e+00  -8.1755033602006920e-04 -1.8444898054838565e-02 0.0000000000000000e+00  -1.0539697147590229e-02 -5.4153926977971605e-02 0.0000000000000000e+00  -9.5592537152246020e-03 -4.9832584733981847e-02 0.0000000000000000e+00  -3.4161598209527075e-03 -3.5157045492915921e-02 0.0000000000000000e+00  -7.2282888973553743e-05 -5.5939923054960477e-05 0.0000000000000000e+00  5.0880163645252664e-05 -4.2906027301534967e-05 0.0000000000000000e+00  -5.2731719170330572e-03 -4.4760950118839189e-02 0.0000000000000000e+00  -3.8568054602683513e-03 -2.2427305482808101e-02 0.0000000000000000e+00  -2.1911096406558713e-03 -1.2622163549465720e-02 0.0000000000000000e+00  -4.8472621586699983e-04 -1.7106240409032315e-03 0.0000000000000000e+00  -6.5831585603427789e-04 -2.8973026418562045e-03 0.0000000000000000e+00  -4.4285251917833886e-03 -4.0781034883568434e-02 0.0000000000000000e+00  -2.6073025834696738e-03 -1.5150086445981171e-02 0.0000000000000000e+00  -4.5351088547866819e-03 -2.5729719104644069e-02 0.0000000000000000e+00  -1.2862741320938613e-03 -7.1383174045861111e-03 0.0000000000000000e+00  -1.7833932962267381e-02 -1.0043867928489733e-01 0.0000000000000000e+00  -2.1366398494355090e-02 -9.9727526709965528e-02 0.0000000000000000e+00  2.4993709422098441e-04 -7.2133353490860131e-03 0.0000000000000000e+00  -3.3235989832217344e-04 -8.1225472381834325e-04 0.0000000000000000e+00  -2.0158902370779556e-02 -1.1198991380635318e-01 0.0000000000000000e+00  -8.5558247337476911e-03 -4.4029951253985088e-02 0.0000000000000000e+00  -7.5165140107720163e-03 -4.0019056080380845e-02 0.0000000000000000e+00  5.3463796040544381e-05 -1.2825352927253831e-02 0.0000000000000000e+00  4.1201373409537089e-04 -1.7205823396454815e-03 0.0000000000000000e+00  4.8374178638277865e-04 -3.0025484580245496e-03 0.0000000000000000e+00  -1.2122040696283139e-03 -2.2910780934904798e-02 0.0000000000000000e+00  -1.0304772937565695e-04 -1.5450190024892287e-02 0.0000000000000000e+00  -1.4737923002279404e-03 -2.6186312907767368e-02 0.0000000000000000e+00  -2.0675633370304227e-04 -4.2319497931584690e-04 0.0000000000000000e+00  -2.1238840714001714e-02 -1.1511278463267981e-01 0.0000000000000000e+00  -1.8247246103739161e-02 -8.5927941902817231e-02 0.0000000000000000e+00  -1.6647659388851106e-02 -7.9266385056993266e-02 0.0000000000000000e+00  4.1186118014513353e-04 -5.4620232196144749e-03 0.0000000000000000e+00  -1.5073816876707816e-02 -7.2671001562518031e-02 0.0000000000000000e+00  -1.8616527085206953e-02 -1.0482700154074245e-01 0.0000000000000000e+00  -1.3534944956122558e-02 -6.6162790100160754e-02 0.0000000000000000e+00  -1.2046759644024064e-02 -5.9784409467026019e-02 0.0000000000000000e+00  -9.0739896781892853e-04 -2.0234285425752958e-02 0.0000000000000000e+00  -1.1294805484598755e-02 -5.6537411316801608e-02 0.0000000000000000e+00  -2.6741905571299285e-03 -3.1880728173019478e-02 0.0000000000000000e+00  -9.2373962143754082e-03 -4.7421552670715933e-02 0.0000000000000000e+00  -3.6359645060827601e-03 -3.7382509605430249e-02 0.0000000000000000e+00  -2.4181805795152903e-02 -1.1063798927341854e-01 0.0000000000000000e+00  -1.6667131416804117e-02 -9.6873674069964208e-02 0.0000000000000000e+00  -1.6776372354723153e-03 -8.7794621803453324e-03 0.0000000000000000e+00  3.3311143458187372e-04 -8.9776869934173726e-04 0.0000000000000000e+00  1.7892584969647781e-04 -3.4039782238996102e-04 0.0000000000000000e+00  -6.7494292906721751e-03 -5.3848798623372773e-02 0.0000000000000000e+00  -7.0448406930614417e-03 -3.7112129323881568e-02 0.0000000000000000e+00  -8.0878658576311411e-03 -6.0136549826006795e-02 0.0000000000000000e+00  -1.2544332536515563e-02 -7.9685364300556616e-02 0.0000000000000000e+00  -9.5426145764938367e-03 -6.6543852294085562e-02 0.0000000000000000e+00  -1.1018753093316017e-02 -7.3073358853585318e-02 0.0000000000000000e+00  -5.7056415851933027e-03 -3.1816017429877448e-02 0.0000000000000000e+00  -5.5724623411670463e-03 -4.7756455427322132e-02 0.0000000000000000e+00  -3.6429757673291808e-03 -2.0136719350250392e-02 0.0000000000000000e+00  -5.2930082332255648e-03 -2.8334850177603638e-02 0.0000000000000000e+00  -1.5090384954009868e-02 -9.0700908606101874e-02 0.0000000000000000e+00  -3.1915427222169957e-03 -1.7319278308945845e-02 0.0000000000000000e+00  -1.4403448968815480e-02 -8.6201035997175504e-02 0.0000000000000000e+00  -1.1530642367869178e-03 -5.4983880366770961e-03 0.0000000000000000e+00  -9.3963008842445970e-04 -3.9421979857750871e-03 0.0000000000000000e+00  -2.3499204638603069e-02 -1.0751049612443077e-01 0.0000000000000000e+00  -2.2582611940823425e-02 -1.0331530225252582e-01 0.0000000000000000e+00  -1.2480067063498678e-02 -7.7406100121800131e-02 0.0000000000000000e+00  -1.0963530633700549e-02 -7.0821126411250934e-02 0.0000000000000000e+00  -7.9709253888413500e-03 -5.7898539074577787e-02 0.0000000000000000e+00  -1.3915332298859075e-02 -8.4018201245647156e-02 0.0000000000000000e+00  -9.4985389300390275e-03 -6.4326802225024265e-02 0.0000000000000000e+00  -6.6171305640541703e-03 -5.1679894287438272e-02 0.0000000000000000e+00  -6.0387270973745561e-03 -3.3567945444596133e-02 0.0000000000000000e+00  3.3783581947314237e-04 -8.7783160953340093e-03 0.0000000000000000e+00  -2.0921271700799614e-02 -9.6337386215267731e-02 0.0000000000000000e+00  -1.9827524835903856e-02 -9.2091270332632993e-02 0.0000000000000000e+0