<?xml version="1.0"?>
<VTKFile type="UnstructuredGrid"  version="0.1"  >
<UnstructuredGrid>
<Piece  NumberOfPoints="439" NumberOfCells="725">
<Points>
<DataArray  type="Float64"  NumberOfComponents="3"  format="ascii">0.6 0.19 0  0.6 0.21 0  0.2489897949 0.21 0  0.2489897949 0.19 0  0.6 0.2 0  0.2496355385699469 0.2060260530378829 0  0.249959460510575 0.2020130349814059 0  0.2499594605105767 0.1979869650186357 0  0.24963553856995 0.1939739469621422 0  0.2539336006056293 0.21 0  0.2588774063112542 0.21 0  0.2638212120168921 0.21 0  0.26876501772253 0.21 0  0.2737088234281569 0.21 0  0.2786526291337753 0.21 0  0.2835964348393937 0.21 0  0.2885402405450166 0.21 0  0.2934840462506522 0.21 0  0.2984278519562708 0.21 0  0.3033716576618997 0.21 0  0.3083154633675181 0.21 0  0.3132592690731365 0.21 0  0.3182030747787549 0.21 0  0.3231468804843732 0.21 0  0.3280906861899917 0.21 0  0.3330344918956208 0.21 0  0.3379782976012284 0.21 0  0.3429221033068576 0.21 0  0.347865909012476 0.21 0  0.3528097147180944 0.21 0  0.3577535204237128 0.21 0  0.3626973261293311 0.21 0  0.3676411318349495 0.21 0  0.3725849375405788 0.21 0  0.3775287432461877 0.21 0  0.382472548951812 0.21 0  0.3874163546574338 0.21 0  0.3923601603630631 0.21 0  0.3973039660686706 0.21 0  0.4022477717742986 0.21 0  0.4071915774799107 0.21 0  0.4121353831855311 0.21 0  0.4170791888911518 0.21 0  0.4220229945967636 0.21 0  0.4269668003023918 0.21 0  0.4319106060080253 0.21 0  0.4368544117136773 0.21 0  0.4417982174193329 0.21 0  0.4467420231249967 0.21 0  0.4516858288306445 0.21 0  0.4566296345362864 0.21 0  0.461573440241916 0.21 0  0.4665172459475665 0.21 0  0.4714610516531998 0.21 0  0.4764048573588668 0.21 0  0.4813486630645134 0.21 0  0.486292468770176 0.21 0  0.4912362744758066 0.21 0  0.4961800801814611 0.21 0  0.5011238858870897 0.21 0  0.5060676915927493 0.21 0  0.5110114972983872 0.21 0  0.5159553030040036 0.21 0  0.5208991087096415 0.21 0  0.5258429144153002 0.21 0  0.5307867201209391 0.21 0  0.5357305258265987 0.21 0  0.5406743315322367 0.21 0  0.5456181372378529 0.21 0  0.5505619429434908 0.21 0  0.5555057486491456 0.21 0  0.5604495543547885 0.21 0  0.565393360060448 0.21 0  0.5703371657661116 0.21 0  0.5752809714717458 0.21 0  0.5802247771773834 0.21 0  0.5851685828830341 0.21 0  0.5901123885886809 0.21 0  0.5950561942943404 0.21 0  0.5950561942943833 0.19 0  0.590112388588758 0.19 0  0.5851685828831193 0.19 0  0.5802247771774727 0.19 0  0.5752809714718514 0.19 0  0.5703371657662308 0.19 0  0.565393360060618 0.19 0  0.5604495543549889 0.19 0  0.5555057486493581 0.19 0  0.5505619429437035 0.19 0  0.5456181372381043 0.19 0  0.540674331532505 0.19 0  0.5357305258268962 0.19 0  0.530786720121263 0.19 0  0.5258429144156628 0.19 0  0.5208991087100244 0.19 0  0.5159553030044218 0.19 0  0.5110114972988226 0.19 0  0.5060676915932177 0.19 0  0.5011238858875806 0.19 0  0.496180080181972 0.19 0  0.4912362744763531 0.19 0  0.4862924687707343 0.19 0  0.4813486630651046 0.19 0  0.4764048573594966 0.19 0  0.4714610516538683 0.19 0  0.4665172459482555 0.19 0  0.4615734402426349 0.19 0  0.4566296345370104 0.19 0  0.4516858288313808 0.19 0  0.4467420231257716 0.19 0  0.4417982174201465 0.19 0  0.4368544117145297 0.19 0  0.4319106060089131 0.19 0  0.4269668003032866 0.19 0  0.4220229945976482 0.19 0  0.4170791888920056 0.19 0  0.4121353831863594 0.19 0  0.4071915774806995 0.19 0  0.4022477717750478 0.19 0  0.3973039660693901 0.19 0  0.3923601603637548 0.19 0  0.3874163546581082 0.19 0  0.3824725489524824 0.19 0  0.3775287432468258 0.19 0  0.3725849375411773 0.19 0  0.3676411318355085 0.19 0  0.3626973261298614 0.19 0  0.3577535204242108 0.19 0  0.352809714718589 0.19 0  0.347865909012931 0.19 0  0.342922103307292 0.19 0  0.3379782976016536 0.19 0  0.3330344918960152 0.19 0  0.3280906861903751 0.19 0  0.3231468804847171 0.19 0  0.3182030747790592 0.19 0  0.3132592690734012 0.19 0  0.3083154633677581 0.19 0  0.3033716576621197 0.19 0  0.2984278519564813 0.19 0  0.2934840462508429 0.19 0  0.2885402405451874 0.19 0  0.2835964348395295 0.19 0  0.2786526291338716 0.19 0  0.2737088234282243 0.19 0  0.268765017722586 0.19 0  0.2638212120169476 0.19 0  0.2588774063113093 0.19 0  0.2539336006056579 0.19 0  0.6 0.1949999999999783 0  0.6 0.2049999999999729 0  0.2589734265316493 0.2005523893428403 0  0.5431462343853077 0.199999999999969 0  0.5682397894768162 0.1999704585808987 0  0.2774513927118024 0.2007941919421926 0  0.513849583376897 0.1999023426490919 0  0.5286810004937381 0.1999023426490969 0  0.2945108952057646 0.1992911908405386 0  0.5827780831384927 0.1995429801003349 0  0.3104128396569256 0.1999704585808978 0  0.3370001755418551 0.2008294612433967 0  0.4990181662600459 0.1999023426490902 0  0.3552816175709044 0.2000000000000608 0  0.4841867491431925 0.1999023426490849 0  0.3707373713905551 0.2000142376953689 0  0.3898882575102495 0.2000000000000828 0  0.4689857550492734 0.1995416724256694 0  0.4541577316841967 0.1999999999999098 0  0.4043534914018331 0.2000976573509244 0  0.4195510917439569 0.2000000000001057 0  0.4387019778644512 0.1999857623046772 0  0.3202472750256703 0.2000088842146399 0  0.5584053541080851 0.1999911157853577 0  0.4280667146887134 0.1998489048208241 0  0.3467659946265474 0.2001510951794375 0  0.3813726345658908 0.200151095179452 0  0.2860683376922098 0.2000415445706182 0  0.5911223811781194 0.1982449159348744 0  0.2679893161458627 0.201675125646729 0  0.4615734402426278 0.2022503633288003 0  0.4912362744763454 0.2022503633288091 0  0.5060676915931983 0.2022503633288118 0  0.3973039660686774 0.1977496366711965 0  0.4764048573594896 0.2022503633288051 0  0.5208991087100455 0.2022503633288184 0  0.4467420231257656 0.2022503633288 0  0.5357305258268849 0.2022503633288198 0  0.4121353831855317 0.1977496366711976 0  0.3626973261293352 0.1977496366711919 0  0.3033716576618961 0.1977496366711869 0  0.5752809714718229 0.1977496366711503 0  0.550459855919056 0.1971284784737667 0  0.3281927732146841 0.2028715215262406 0  0.5484179020497461 0.2038403215694763 0  0.3302347270839988 0.1961596784305491 0  0.5379210852238114 0.196125181664411 0  0.5230896681069652 0.1961251816644058 0  0.5082582509901222 0.1961251816644098 0  0.5774715308687094 0.2038748183355887 0  0.3011810982649548 0.2038748183355937 0  0.4785954167564111 0.196125181664404 0  0.4934268338732671 0.1961251816644063 0  0.395113406671763 0.2038748183355966 0  0.3605067667324117 0.2038748183355951 0  0.4593828808457146 0.1961251816643993 0  0.4489325825226805 0.1961251816644007 0  0.4099448237886219 0.2038748183355991 0  0.2557862999801971 0.1960858370257295 0  0.2550147360309399 0.2034426429991114 0  0.4348031476464689 0.2037737577641554 0  0.37463620160841 0.1962262422358553 0  0.3406258365864304 0.196046792193989 0  0.2813001681189834 0.1960467921940502 0  0.2912686387439893 0.1960816328649282 0  0.4246705335819892 0.2039532078059544 0  0.350162175732913 0.1960467921941878 0  0.3847688156722694 0.1960467921942359 0  0.316632368538356 0.19615945856337 0  0.5621550011053409 0.2037816492598991 0  0.5624413877019769 0.1960761923611377 0  0.3162395035833128 0.2038679557424692 0  0.2710887134207622 0.1959696443325838 0  0.5873014376403604 0.2047227881030823 0  0.4346679566442709 0.1954651459552513 0  0.4243296504077986 0.1958756980939062 0  0.3402559510833523 0.2047940500290923 0  0.2808684926760933 0.2047742417812656 0  0.2914077033138723 0.2047809517070955 0  0.3747713926104932 0.2045348540448554 0  0.3499216488898867 0.2051753413186305 0  0.3845282888292298 0.205175341318636 0  0.2648144865455052 0.1962089742986374 0  0.5943247643662894 0.2040415423589182 0  0.5320972610456145 0.1956445099050872 0  0.5172658439287727 0.1956445099050854 0  0.3069923255602658 0.2043468033872551 0  0.5024344268119265 0.1956445099050864 0  0.5716603035734351 0.2043468033872761 0  0.4876030096950741 0.1956445099050831 0  0.4728151975296263 0.1956402468909894 0  0.3663301776527538 0.20436745486386 0  0.4651631000724991 0.1956402468909893 0  0.4009372308499527 0.2043554900949198 0  0.4431091716023345 0.1956325451361429 0  0.4157593408842466 0.2043565497109067 0  0.5865057328865416 0.1956918868509067 0  0.5541600609760193 0.2044335994013721 0  0.3244925681577497 0.1955664005986376 0  0.272008018888917 0.2049327968152409 0  0.2633407725863902 0.2042483236346266 0  0.4567948413982566 0.2046536472831198 0  0.4167680012832803 0.1955060004091903 0  0.4716262585151221 0.2046536472831242 0  0.5161054367030595 0.2045563706470633 0  0.4864426024693469 0.2045563706470604 0  0.5012740195862044 0.2045563706470634 0  0.4022810343427545 0.1961423961483001 0  0.4420739040821668 0.2044853411424516 0  0.3673807293464664 0.1955677741328205 0  0.3925253672243162 0.195346352716901 0  0.5405091246712254 0.2046536472831267 0  0.357918727284983 0.1953463527168901 0  0.5307534575528717 0.2038576038516682 0  0.3079697655029555 0.1955637092892754 0  0.2985930588175599 0.1953463527168728 0  0.579671714346879 0.1955441268455555 0  0.5705023726275059 0.1953463527168462 0  0.5112451461103119 0.2035640580783926 0  0.4964137289934448 0.2035640580783915 0  0.4665727251511405 0.2038238154617746 0  0.5259274680675793 0.2038006696000127 0  0.4815823118765752 0.2035640580783898 0  0.4517504165552094 0.2039070625502732 0  0.4071070238280551 0.1961993303999926 0  0.3234846806957546 0.2047001437739977 0  0.5551679484379799 0.1952998562260008 0  0.5457754356464107 0.1954447171286166 0  0.3329307555206357 0.2046017509710421 0  0.4541577316841968 0.1960357661898101 0  0.3358300776141575 0.1950765652117375 0  0.2539718587514912 0.200011552766824 0  0.5826472073721517 0.2039971170156656 0  0.2761021761080182 0.1946948236183283 0  0.3898581462796225 0.2041572776584344 0  0.3552515063402743 0.2041572776584256 0  0.2965028074750666 0.2046578268138723 0  0.4299158836614793 0.1951782397873778 0  0.379426563923736 0.2049969334481307 0  0.2860882692072842 0.2042624797643994 0  0.3449948044168807 0.2051793676155613 0  0.2603922435707652 0.1950997711614917 0  0.5949856943860
[...]
<PointData  Vectors="f_18-1"> 
<DataArray  type="Float64"  Name="f_18-1"  NumberOfComponents="3" format="ascii">-7.3845359116254592e-04 -1.4332011829959121e-02 0.0000000000000000e+00  1.1301616568455389e-04 -1.4350192735832396e-02 0.0000000000000000e+00  0.0000000000000000e+00 0.0000000000000000e+00 0.0000000000000000e+00  0.0000000000000000e+00 0.0000000000000000e+00 0.0000000000000000e+00  -3.1273162436158333e-04 -1.4341120076338639e-02 0.0000000000000000e+00  0.0000000000000000e+00 0.0000000000000000e+00 0.0000000000000000e+00  0.0000000000000000e+00 0.0000000000000000e+00 0.0000000000000000e+00  0.0000000000000000e+00 0.0000000000000000e+00 0.0000000000000000e+00  0.0000000000000000e+00 0.0000000000000000e+00 0.0000000000000000e+00  3.1337332277738393e-05 -2.7904251231010719e-05 0.0000000000000000e+00  6.4746340841856292e-05 -5.7822735129369789e-05 0.0000000000000000e+00  9.7375512440003769e-05 -9.5526144100628002e-05 0.0000000000000000e+00  1.2768028086196313e-04 -1.5669172708620728e-04 0.0000000000000000e+00  1.5567976523241187e-04 -2.2994168261537628e-04 0.0000000000000000e+00  1.8417107737976328e-04 -3.2048647300634528e-04 0.0000000000000000e+00  2.0918777512134027e-04 -4.1941195805516993e-04 0.0000000000000000e+00  2.3098669584078346e-04 -5.3351122267849302e-04 0.0000000000000000e+00  2.5236431542560055e-04 -6.5905213914285363e-04 0.0000000000000000e+00  2.7149547147907704e-04 -7.9577323737211963e-04 0.0000000000000000e+00  2.9107226764234586e-04 -9.4688796999926796e-04 0.0000000000000000e+00  3.0993995916130872e-04 -1.1000533919338345e-03 0.0000000000000000e+00  3.2463047121079658e-04 -1.2689270347639337e-03 0.0000000000000000e+00  3.4178568887263796e-04 -1.4454145080339612e-03 0.0000000000000000e+00  3.5402438060410209e-04 -1.6291398775259273e-03 0.0000000000000000e+00  3.6614591325138945e-04 -1.8225423364520833e-03 0.0000000000000000e+00  3.7648214866957777e-04 -2.0214200459327532e-03 0.0000000000000000e+00  3.8527095777592899e-04 -2.2292246192160171e-03 0.0000000000000000e+00  3.9211751914671703e-04 -2.4402051937674214e-03 0.0000000000000000e+00  3.9798213858906585e-04 -2.6580766909947580e-03 0.0000000000000000e+00  4.0235198031254215e-04 -2.8804348504493332e-03 0.0000000000000000e+00  4.0523699827685458e-04 -3.1067858003451347e-03 0.0000000000000000e+00  4.0788087825648978e-04 -3.3392023091126993e-03 0.0000000000000000e+00  4.0997644585488545e-04 -3.5722276318059447e-03 0.0000000000000000e+00  4.1030241949116574e-04 -3.8102830317947021e-03 0.0000000000000000e+00  4.0954787135387096e-04 -4.0497776084515887e-03 0.0000000000000000e+00  4.0792503883271890e-04 -4.2921587304323387e-03 0.0000000000000000e+00  4.0539366765444251e-04 -4.5362866583757034e-03 0.0000000000000000e+00  4.0195343191132206e-04 -4.7816072862809384e-03 0.0000000000000000e+00  3.9800873962399035e-04 -5.0285910808394356e-03 0.0000000000000000e+00  3.9361566296878831e-04 -5.2755450575015742e-03 0.0000000000000000e+00  3.8825890247957793e-04 -5.5234502006061923e-03 0.0000000000000000e+00  3.8239015912792143e-04 -5.7713815912603817e-03 0.0000000000000000e+00  3.7616301552220472e-04 -6.0191958692146653e-03 0.0000000000000000e+00  3.6936944566061912e-04 -6.2667123844844476e-03 0.0000000000000000e+00  3.6208286216409766e-04 -6.5138084047435402e-03 0.0000000000000000e+00  3.5457828840024301e-04 -6.7599863068876784e-03 0.0000000000000000e+00  3.4640359650741758e-04 -7.0052058988086547e-03 0.0000000000000000e+00  3.3832462067091628e-04 -7.2494413876130594e-03 0.0000000000000000e+00  3.3008532097140113e-04 -7.4922030410721459e-03 0.0000000000000000e+00  3.2149793539807688e-04 -7.7337349613085717e-03 0.0000000000000000e+00  3.1260425354156005e-04 -7.9737303200924665e-03 0.0000000000000000e+00  3.0401409451198756e-04 -8.2121095342686280e-03 0.0000000000000000e+00  2.9512108700876735e-04 -8.4489507406213683e-03 0.0000000000000000e+00  2.8610132168327093e-04 -8.6839953973279101e-03 0.0000000000000000e+00  2.7751996709032096e-04 -8.9172718735730152e-03 0.0000000000000000e+00  2.6880797150832082e-04 -9.1489749203981299e-03 0.0000000000000000e+00  2.6008443001832168e-04 -9.3788588838362805e-03 0.0000000000000000e+00  2.5184919017746737e-04 -9.6071329847035609e-03 0.0000000000000000e+00  2.4356853881686151e-04 -9.8339517493561974e-03 0.0000000000000000e+00  2.3533515390864371e-04 -1.0059116593870345e-02 0.0000000000000000e+00  2.2757421209221101e-04 -1.0282854994488649e-02 0.0000000000000000e+00  2.1979309679074082e-04 -1.0505317386473870e-02 0.0000000000000000e+00  2.1207131041599370e-04 -1.0726309863562813e-02 0.0000000000000000e+00  2.0478896114835504e-04 -1.0946060886856868e-02 0.0000000000000000e+00  1.9744417034743564e-04 -1.1164644260571446e-02 0.0000000000000000e+00  1.9020460838292300e-04 -1.1381948789708194e-02 0.0000000000000000e+00  1.8323887720453087e-04 -1.1598114787017158e-02 0.0000000000000000e+00  1.7659311354924179e-04 -1.1813386106463632e-02 0.0000000000000000e+00  1.7027281010444168e-04 -1.2027483150745982e-02 0.0000000000000000e+00  1.6408384982282694e-04 -1.2240537353650082e-02 0.0000000000000000e+00  1.5798484774163374e-04 -1.2453388466992928e-02 0.0000000000000000e+00  1.5230300023894873e-04 -1.2665174881251285e-02 0.0000000000000000e+00  1.4664266723939722e-04 -1.2876519633812124e-02 0.0000000000000000e+00  1.4138233290980374e-04 -1.3087509875889951e-02 0.0000000000000000e+00  1.3634424650401470e-04 -1.3298075086756053e-02 0.0000000000000000e+00  1.3142830459959398e-04 -1.3508624329552880e-02 0.0000000000000000e+00  1.2671562140211215e-04 -1.3719019299259332e-02 0.0000000000000000e+00  1.2208860965393168e-04 -1.3929346532553720e-02 0.0000000000000000e+00  1.1751991124448771e-04 -1.4139768377956642e-02 0.0000000000000000e+00  -7.3398026221303510e-04 -1.4121576703414355e-02 0.0000000000000000e+00  -7.2955434390295233e-04 -1.3911151922678382e-02 0.0000000000000000e+00  -7.2517732551034267e-04 -1.3700770819778647e-02 0.0000000000000000e+00  -7.2092721487583198e-04 -1.3490355300701163e-02 0.0000000000000000e+00  -7.1680932343530350e-04 -1.3279806522937202e-02 0.0000000000000000e+00  -7.1283751401353390e-04 -1.3069174518223913e-02 0.0000000000000000e+00  -7.0908479268360052e-04 -1.2858146616331953e-02 0.0000000000000000e+00  -7.0568046213030915e-04 -1.2646705806920762e-02 0.0000000000000000e+00  -7.0229885414155085e-04 -1.2434846275518923e-02 0.0000000000000000e+00  -6.9921632731148153e-04 -1.2222113258744227e-02 0.0000000000000000e+00  -6.9629448045893238e-04 -1.2008857016789195e-02 0.0000000000000000e+00  -6.9333415797187331e-04 -1.1794466701420392e-02 0.0000000000000000e+00  -6.9067024336781917e-04 -1.1578799855449594e-02 0.0000000000000000e+00  -6.8820778202697218e-04 -1.1362842394189542e-02 0.0000000000000000e+00  -6.8555052418876493e-04 -1.1145244942262964e-02 0.0000000000000000e+00  -6.8320062168795385e-04 -1.0926090593343997e-02 0.0000000000000000e+00  -6.8101338523576197e-04 -1.0706569788691464e-02 0.0000000000000000e+00  -6.7849481123929793e-04 -1.0485170953095832e-02 0.0000000000000000e+00  -6.7631572418607626e-04 -1.0262088438250837e-02 0.0000000000000000e+00  -6.7431091697019499e-04 -1.0038596333232213e-02 0.0000000000000000e+00  -6.7191967720922824e-04 -9.8129897944501283e-03 0.0000000000000000e+00  -6.6988758317357234e-04 -9.5854708442634842e-03 0.0000000000000000e+00  -6.6802331413918928e-04 -9.3574793035946686e-03 0.0000000000000000e+00  -6.6566249714457672e-04 -9.1271082638248215e-03 0.0000000000000000e+00  -6.6361183609661657e-04 -8.8946233936971954e-03 0.0000000000000000e+00  -6.6164632657430026e-04 -8.6614476035073353e-03 0.0000000000000000e+00  -6.5928995633204412e-04 -8.4260485734869387e-03 0.0000000000000000e+00  -6.5700175641582640e-04 -8.1885037901095522e-03 0.0000000000000000e+00  -6.5454086079272107e-04 -7.9504300688701818e-03 0.0000000000000000e+00  -6.5132157424839857e-04 -7.7101248556817109e-03 0.0000000000000000e+00  -6.4827585917598440e-04 -7.4677934776566013e-03 0.0000000000000000e+00  -6.4510049949788708e-04 -7.2251296758771956e-03 0.0000000000000000e+00  -6.4133538725110514e-04 -6.9805042221447126e-03 0.0000000000000000e+00  -6.3714668824037398e-04 -6.7352404353601437e-03 0.0000000000000000e+00  -6.3256539669639673e-04 -6.4888495666956874e-03 0.0000000000000000e+00  -6.2748777707479181e-04 -6.2416978365330235e-03 0.0000000000000000e+00  -6.2207648694667618e-04 -5.9941030761833094e-03 0.0000000000000000e+00  -6.1623402488567166e-04 -5.7461737686900225e-03 0.0000000000000000e+00  -6.0984656882097864e-04 -5.4982814989636168e-03 0.0000000000000000e+00  -6.0279564918087631e-04 -5.2505984224625489e-03 0.0000000000000000e+00  -5.9511755091641767e-04 -5.0035970290225554e-03 0.0000000000000000e+00  -5.8708972222346165e-04 -4.7571743660218173e-03 0.0000000000000000e+00  -5.7856503588591302e-04 -4.5120546605633815e-03 0.0000000000000000e+00  -5.6873981343534400e-04 -4.2679037144210639e-03 0.0000000000000000e+00  -5.5885232098186748e-04 -4.0261958267231567e-03 0.0000000000000000e+00  -5.4726890404903123e-04 -3.7868616699975230e-03 0.0000000000000000e+00  -5.3590901186898300e-04 -3.5498186233632440e-03 0.0000000000000000e+00  -5.2346620752115878e-04 -3.3167882101551149e-03 0.0000000000000000e+00  -5.1093522099200325e-04 -3.0863166232643268e-03 0.0000000000000000e+00  -4.9788183909387819e-04 -2.8604423236426807e-03 0.0000000000000000e+00  -4.8217631482686809e-04 -2.6377831152790687e-03 0.0000000000000000e+00  -4.6755540043023214e-04 -2.4209405004785123e-03 0.0000000000000000e+00  -4.4978990897003127e-04 -2.2100868858921153e-03 0.0000000000000000e+00  -4.3396865124464915e-04 -2.0047145461669275e-03 0.0000000000000000e+00  -4.1624249286008585e-04 -1.8086818921955112e-03 0.0000000000000000e+00  -3.9720268909383135e-04 -1.6149399932029879e-03 0.0000000000000000e+00  -3.7843809403303265e-04 -1.4321194694301863e-03 0.0000000000000000e+00  -3.5508275640580480e-04 -1.2568858359572040e-03 0.0000000000000000e+00  -3.3461559869931194e-04 -1.0899554800265707e-03 0.0000000000000000e+00  -3.1205398059085419e-04 -9.3529560887375962e-04 0.0000000000000000e+00  -2.8973723848946893e-04 -7.8784289415590868e-04 0.0000000000000000e+00  -2.6682338764509405e-04 -6.5308028743445471e-04 0.0000000000000000e+00  -2.3917673739750839e-04 -5.2704457441582735e-04 0.0000000000000000e+00  -2.1526624973516631e-04 -4.1399844330242076e-04 0.0000000000000000e+00  -1.8545445983631265e-04 -3.1314774710168152e-04 0.0000000000000000e+00  -1.5837808158850506e-04 -2.2839729378341188e-04 0.0000000000000000e+00  -1.2585880263018089e-04 -1.5708105547510489e-04 0.0000000000000000e+00  -9.5595097050926955e-05 -9.6569623249566109e-05 0.0000000000000000e+00  -6.4749343720874882e-05 -5.3335115831839959e-05 0.0000000000000000e+00  -3.2578502183309048e-05 -2.9721678324032525e-05 0.0000000000000000e+00  -5.2561335676013985e-04 -1.4336559149979692e-02 0.0000000000000000e+00  -9.9836980583224480e-05 -1.4345665991417096e-02 0.0000000000000000e+00  3.9265869751231456e-06 -3.0899842086602939e-05 0.0000000000000000e+00  -2.6061664861268025e-04 -1.1912302236764143e-02 0.0000000000000000e+00  -2.8510920366332196e-04 -1.2989338158539091e-02 0.0000000000000000e+00  1.1279324382724195e-05 -2.7442462050757669e-04 0.0000000000000000e+00  -2.3666861329660961e-04 -1.0624051745326022e-02 0.0000000000000000e+00  -2.5120571921045118e-04 -1.1281364009715078e-02 0.0000000000000000e+00  -2.4293170745101285e-05 -6.6656269322028791e-04 0.0000000000000000e+00  -3.1656160847569456e-04 -1.3607906245966471e-02 0.0000000000000000e+00  -1.3495637701152594e-05 -1.1522276975159129e-03 0.0000000000000000e+00  1.7790811978138425e-06 -2.1700940815390954e-03 0.0000000000000000e+00  -2.2171049228241643e-04 -9.9549095034017071e-03 0.0000000000000000e+00  -4.9365299609658358e-05 -2.9775239417108674e-03 0.0000000000000000e+00  -2.0620716488580651e-04 -9.2723871471710444e-03 0.0000000000000000e+00  -6.5795009561009891e-05 -3.7049180041799881e-03 0.0000000000000000e+00  -8.9176295984902157e-05 -4.6448949178021278e-03 0.0000000000000000e+00  -2.0677147738827519e-04 -8.5569568631642130e-03 0.0000000000000000e+00  -1.6804827192013510e-04 -7.8439316124078434e-03 0.0000000000000000e+00  -1.0233407427242603e-04 -5.3680044959707593e-03 0.0000000000000000e+00  -1.2610450676496217e-04 -6.1309064210039056e-03 0.0000000000000000e+00  -1.5036985240524266e-04 -7.0859748837015825e-03 0.0000000000000000e+00  -1.8398440252243155e-05 -1.5014111447643579e-03 0.0000000000000000e+00  -2.7526487896794102e-04 -1.2569307077853333e-02 0.0000000000000000e+00  -1.4420504072975356e-04 -6.5568765764995639e-03 0.0000000000000000e+00  -3.4861887802112747e-05 -2.5924515317334567e-03 0.0000000000000000e+00  -7.1646348239671581e-05 -4.2235561756049315e-03 0.0000000000000000e+00  -3.6832508520228508e-06 -4.5892366356970724e-04 0.0000000000000000e+00  -3.7940557734885674e-04 -1.3961715265010383e-02 0.0000000000000000e+00  1.8682995550071053e-05 -1.2551821936595796e-04 0.0000000000000000e+00  -6.8562952501653341e-05 -8.2051247977830578e-03 0.0000000000000000e+00  -1.0541285288631007e-04 -9.6008544245780349e-03 0.0000000000000000e+00  -1.2272867713561855e-04 -1.0276721730806744e-02 0.0000000000000000e+00  -2.0991778995854538e-04 -5.0119881403504762e-03 0.0000000000000000e+00  -8.7346208925594978e-05 -8.9107393210752974e-03 0.0000000000000000e+00  -1.3932736821491211e-04 -1.0940010327721062e-02 0.0000000000000000e+00  -4.9251887238371781e-05 -7.4845069464471690e-03 0.0000000000000000e+00  -1.5524800142923453e-04 -1.1592048213010100e-02 0.0000000000000000e+00  -2.2904833599292224e-04 -5.7559352911899318e-03 0.0000000000000000e+00  -1.6198716081871635e-04 -3.3202707825504894e-03 0.0000000000000000e+00  -7.6469500215852655e-05 -9.2561720287793472e-04 0.0000000000000000e+00  -3.8632514521160335e-04 -1.3287234177563520e-02 0.0000000000000000e+00  -3.9153373169173650e-04 -1.2225359736376635e-02 0.0000000000000000e+00  8.6560457246571021e-05 -1.8115283546934306e-03 0.0000000000000000e+00  -9.9517957783677079e-05 -1.2143451412475022e-02 0.0000000000000000e+00  -1.7825435436527427e-04 -1.8893218790614274e-03 0.0000000000000000e+00  -4.2487132854013521e-04 -1.1681569508540338e-02 0.0000000000000000e+00  -4.1324839335307674e-04 -1.1030910536535841e-02 0.0000000000000000e+00  -4.0153722025287338e-04 -1.0369104455759641e-02 0.0000000000000000e+00  -1.2691039025900200e-04 -1.3386066535515282e-02 0.0000000000000000e+00  1.0581093753206551e-04 -8.6277250603781477e-04 0.0000000000000000e+00  -3.7757028908218666e-04 -9.0066931617494763e-03 0.0000000000000000e+00  -3.8970527359941858e-04 -9.6949344199725451e-03 0.0000000000000000e+00  9.6114811145731931e-05 -4.9102523866308085e-03 0.0000000000000000e+00  1.2406053223268712e-04 -3.2246026285780481e-03 0.0000000000000000e+00  -3.6049103963827097e-04 -8.0922654572743724e-03 0.0000000000000000e+00  -3.5104138438642196e-04 -7.5843211854458087e-03 0.0000000000000000e+00  7.8983188428728376e-05 -5.6536427708363951e-03 0.0000000000000000e+00  -1.3830407366089234e-05 -1.4103659120781013e-05 0.0000000000000000e+00  1.0764499724238978e-05 -1.1028429286731700e-05 0.0000000000000000e+00  4.1700738144476359e-05 -6.8970839954180839e-03 0.0000000000000000e+00  -2.5245549115619027e-04 -3.8898928545231235e-03 0.0000000000000000e+00  -2.0280712588498112e-04 -2.3214042332001645e-03 0.0000000000000000e+00  -8.0683769992658487e-05 -3.5291084221178318e-04 0.0000000000000000e+00  -1.0016181898556410e-04 -5.8334991983820055e-04 0.0000000000000000e+00  6.4148149666763883e-05 -6.3921107368199127e-03 0.0000000000000000e+00  -2.1923122430941657e-04 -2.7407981540824660e-03 0.0000000000000000e+00  -2.7631426864954635e-04 -4.3863449984269456e-03 0.0000000000000000e+00  -1.5121293633113515e-04 -1.3689207492859330e-03 0.0000000000000000e+00  -1.1618315549730885e-04 -1.2733053237495301e-02 0.0000000000000000e+00  -4.4673043704872756e-04 -1.2738176473722985e-02 0.0000000000000000e+00  1.1847692207153628e-04 -1.3596726714454473e-03 0.0000000000000000e+00  -5.9683407617978282e-05 -1.7291244985208096e-04 0.0000000000000000e+00  -1.0000232346526003e-04 -1.3805024090246606e-02 0.0000000000000000e+00  -3.6892826773107936e-04 -6.8800253514241377e-03 0.0000000000000000e+00  -3.3723005071672747e-04 -6.3650806163128180e-03 0.0000000000000000e+00  1.6738679991302441e-04 -2.3143392267179282e-03 0.0000000000000000e+00  9.0519268019994672e-05 -3.4734578844236965e-04 0.0000000000000000e+00  1.1383887096672565e-04 -5.9141270616988877e-04 0.0000000000000000e+00  1.4664800862181635e-04 -3.9063996742917193e-03 0.0000000000000000e+00  1.8495410388734608e-04 -2.7407449007579529e-03 0.0000000000000000e+00  1.7025323246110666e-04 -4.3860069554308330e-03 0.0000000000000000e+00  -3.8224470176780815e-05 -9.2407836584477919e-05 0.0000000000000000e+00  -1.3548405237315622e-04 -1.4103250549693299e-02 0.0000000000000000e+00  -4.4121437075525104e-04 -1.1426732802326376e-02 0.0000000000000000e+00  -4.2985023332061349e-04 -1.0771785612570384e-02 0.0000000000000000e+00  1.2559237703677371e-04 -1.0451341761412657e-03 0.0000000000000000e+00  -4.1846746870402530e-04 -1.0105264851288804e-02 0.0000000000000000e+00  -1.0124760674382155e-04 -1.3139015212069701e-02 0.0000000000000000e+00  -4.0695768584824620e-04 -9.4257549525884280e-03 0.0000000000000000e+00  -3.9535695317131447e-04 -8.7336552089624341e-03 0.0000000000000000e+00  1.4339944472229854e-04 -3.5000683153685866e-03 0.0000000000000000e+00  -3.8913602037204563e-04 -8.3694379212957935e-03 0.0000000000000000e+00  1.1341930784704231e-04 -5.2021766696906625e-03 0.0000000000000000e+00  -3.6914673373292706e-04 -7.2977635044689558e-03 0.0000000000000000e+00  9.5755541941302971e-05 -5.9460845894096859e-03 0.0000000000000000e+00  -4.8398378799911263e-04 -1.3762941019234469e-02 0.0000000000000000e+00  -7.9936795323513700e-05 -1.2391146625448808e-02 0.0000000000000000e+00  -1.8988830734193514e-04 -1.6623405686935133e-03 0.0000000000000000e+00  7.0436196781579409e-05 -1.8626152864883061e-04 0.0000000000000000e+00  3.7567314344426900e-05 -7.3871584281803398e-05 0.0000000000000000e+00  5.3834029335085996e-05 -7.9770685395164336e-03 0.0000000000000000e+00  -3.4670581806519653e-04 -5.9856099551956771e-03 0.0000000000000000e+00  3.2529405970608293e-05 -8.6875581137081381e-03 0.0000000000000000e+00  -3.1076933002327258e-05 -1.0729000631598595e-02 0.0000000000000000e+00  7.3462729031409725e-06 -9.3816748205558728e-03 0.0000000000000000e+00  -1.2334667559120489e-05 -1.0061881189148986e-02 0.0000000000000000e+00  -2.9650799681046333e-04 -5.2592770832375763e-03 0.0000000000000000e+00  6.6621250049904933e-05 -7.2575021315350527e-03 0.0000000000000000e+00  -2.7176223155194173e-04 -3.5403876351543214e-03 0.0000000000000000e+00  -3.2218309891991130e-04 -4.7707657106849143e-03 0.0000000000000000e+00  -5.5560682189445291e-05 -1.1802060746539007e-02 0.0000000000000000e+00  -2.6480812708923129e-04 -3.0954415485390826e-03 0.0000000000000000e+00  -7.9366534974745518e-05 -1.1375902294893790e-02 0.0000000000000000e+00  -1.5360468178638625e-04 -1.0725604177757406e-03 0.0000000000000000e+00  -1.3801856914500102e-04 -7.8334321161829508e-04 0.0000000000000000e+00  -4.8421886987498218e-04 -1.3472041846074647e-02 0.0000000000000000e+00  -4.8479444660974981e-04 -1.3081413715501682e-02 0.0000000000000000e+00  -6.9677852449345979e-05 -1.0510925339024172e-02 0.0000000000000000e+00  -5.1495102265759921e-05 -9.8396872260631194e-03 0.0000000000000000e+00  1.0846927567532294e-09 -8.4464210117569816e-03 0.0000000000000000e+00  -7.6394812910085614e-05 -1.1163743371282819e-02 0.0000000000000000e+00  -3.2446240876928728e-05 -9.1547825567196619e-03 0.0000000000000000e+00  2.4623357015180590e-05 -7.7312350679394010e-03 0.0000000000000000e+00  -3.0001517744924930e-04 -5.5014562625182537e-03 0.0000000000000000e+00  1.5476734675483477e-04 -1.6302213677906719e-03 0.0000000000000000e+00  -4.7421620736706922e-04 -1.2425901927151270e-02 0.0000000000000000e+00  -4.6053968341099478e-04 -1.2021539315859021e-02 0.0000000000000000e+00  1.5630309126766386e-04 -2.0058437929622829e-03 0.0000000000