<?xml version="1.0"?>
<VTKFile type="UnstructuredGrid"  version="0.1"  >
<UnstructuredGrid>
<Piece  NumberOfPoints="439" NumberOfCells="725">
<Points>
<DataArray  type="Float64"  NumberOfComponents="3"  format="ascii">0.6 0.19 0  0.6 0.21 0  0.2489897949 0.21 0  0.2489897949 0.19 0  0.6 0.2 0  0.2496355385699469 0.2060260530378829 0  0.249959460510575 0.2020130349814059 0  0.2499594605105767 0.1979869650186357 0  0.24963553856995 0.1939739469621422 0  0.2539336006056293 0.21 0  0.2588774063112542 0.21 0  0.2638212120168921 0.21 0  0.26876501772253 0.21 0  0.2737088234281569 0.21 0  0.2786526291337753 0.21 0  0.2835964348393937 0.21 0  0.2885402405450166 0.21 0  0.2934840462506522 0.21 0  0.2984278519562708 0.21 0  0.3033716576618997 0.21 0  0.3083154633675181 0.21 0  0.3132592690731365 0.21 0  0.3182030747787549 0.21 0  0.3231468804843732 0.21 0  0.3280906861899917 0.21 0  0.3330344918956208 0.21 0  0.3379782976012284 0.21 0  0.3429221033068576 0.21 0  0.347865909012476 0.21 0  0.3528097147180944 0.21 0  0.3577535204237128 0.21 0  0.3626973261293311 0.21 0  0.3676411318349495 0.21 0  0.3725849375405788 0.21 0  0.3775287432461877 0.21 0  0.382472548951812 0.21 0  0.3874163546574338 0.21 0  0.3923601603630631 0.21 0  0.3973039660686706 0.21 0  0.4022477717742986 0.21 0  0.4071915774799107 0.21 0  0.4121353831855311 0.21 0  0.4170791888911518 0.21 0  0.4220229945967636 0.21 0  0.4269668003023918 0.21 0  0.4319106060080253 0.21 0  0.4368544117136773 0.21 0  0.4417982174193329 0.21 0  0.4467420231249967 0.21 0  0.4516858288306445 0.21 0  0.4566296345362864 0.21 0  0.461573440241916 0.21 0  0.4665172459475665 0.21 0  0.4714610516531998 0.21 0  0.4764048573588668 0.21 0  0.4813486630645134 0.21 0  0.486292468770176 0.21 0  0.4912362744758066 0.21 0  0.4961800801814611 0.21 0  0.5011238858870897 0.21 0  0.5060676915927493 0.21 0  0.5110114972983872 0.21 0  0.5159553030040036 0.21 0  0.5208991087096415 0.21 0  0.5258429144153002 0.21 0  0.5307867201209391 0.21 0  0.5357305258265987 0.21 0  0.5406743315322367 0.21 0  0.5456181372378529 0.21 0  0.5505619429434908 0.21 0  0.5555057486491456 0.21 0  0.5604495543547885 0.21 0  0.565393360060448 0.21 0  0.5703371657661116 0.21 0  0.5752809714717458 0.21 0  0.5802247771773834 0.21 0  0.5851685828830341 0.21 0  0.5901123885886809 0.21 0  0.5950561942943404 0.21 0  0.5950561942943833 0.19 0  0.590112388588758 0.19 0  0.5851685828831193 0.19 0  0.5802247771774727 0.19 0  0.5752809714718514 0.19 0  0.5703371657662308 0.19 0  0.565393360060618 0.19 0  0.5604495543549889 0.19 0  0.5555057486493581 0.19 0  0.5505619429437035 0.19 0  0.5456181372381043 0.19 0  0.540674331532505 0.19 0  0.5357305258268962 0.19 0  0.530786720121263 0.19 0  0.5258429144156628 0.19 0  0.5208991087100244 0.19 0  0.5159553030044218 0.19 0  0.5110114972988226 0.19 0  0.5060676915932177 0.19 0  0.5011238858875806 0.19 0  0.496180080181972 0.19 0  0.4912362744763531 0.19 0  0.4862924687707343 0.19 0  0.4813486630651046 0.19 0  0.4764048573594966 0.19 0  0.4714610516538683 0.19 0  0.4665172459482555 0.19 0  0.4615734402426349 0.19 0  0.4566296345370104 0.19 0  0.4516858288313808 0.19 0  0.4467420231257716 0.19 0  0.4417982174201465 0.19 0  0.4368544117145297 0.19 0  0.4319106060089131 0.19 0  0.4269668003032866 0.19 0  0.4220229945976482 0.19 0  0.4170791888920056 0.19 0  0.4121353831863594 0.19 0  0.4071915774806995 0.19 0  0.4022477717750478 0.19 0  0.3973039660693901 0.19 0  0.3923601603637548 0.19 0  0.3874163546581082 0.19 0  0.3824725489524824 0.19 0  0.3775287432468258 0.19 0  0.3725849375411773 0.19 0  0.3676411318355085 0.19 0  0.3626973261298614 0.19 0  0.3577535204242108 0.19 0  0.352809714718589 0.19 0  0.347865909012931 0.19 0  0.342922103307292 0.19 0  0.3379782976016536 0.19 0  0.3330344918960152 0.19 0  0.3280906861903751 0.19 0  0.3231468804847171 0.19 0  0.3182030747790592 0.19 0  0.3132592690734012 0.19 0  0.3083154633677581 0.19 0  0.3033716576621197 0.19 0  0.2984278519564813 0.19 0  0.2934840462508429 0.19 0  0.2885402405451874 0.19 0  0.2835964348395295 0.19 0  0.2786526291338716 0.19 0  0.2737088234282243 0.19 0  0.268765017722586 0.19 0  0.2638212120169476 0.19 0  0.2588774063113093 0.19 0  0.2539336006056579 0.19 0  0.6 0.1949999999999783 0  0.6 0.2049999999999729 0  0.2589734265316493 0.2005523893428403 0  0.5431462343853077 0.199999999999969 0  0.5682397894768162 0.1999704585808987 0  0.2774513927118024 0.2007941919421926 0  0.513849583376897 0.1999023426490919 0  0.5286810004937381 0.1999023426490969 0  0.2945108952057646 0.1992911908405386 0  0.5827780831384927 0.1995429801003349 0  0.3104128396569256 0.1999704585808978 0  0.3370001755418551 0.2008294612433967 0  0.4990181662600459 0.1999023426490902 0  0.3552816175709044 0.2000000000000608 0  0.4841867491431925 0.1999023426490849 0  0.3707373713905551 0.2000142376953689 0  0.3898882575102495 0.2000000000000828 0  0.4689857550492734 0.1995416724256694 0  0.4541577316841967 0.1999999999999098 0  0.4043534914018331 0.2000976573509244 0  0.4195510917439569 0.2000000000001057 0  0.4387019778644512 0.1999857623046772 0  0.3202472750256703 0.2000088842146399 0  0.5584053541080851 0.1999911157853577 0  0.4280667146887134 0.1998489048208241 0  0.3467659946265474 0.2001510951794375 0  0.3813726345658908 0.200151095179452 0  0.2860683376922098 0.2000415445706182 0  0.5911223811781194 0.1982449159348744 0  0.2679893161458627 0.201675125646729 0  0.4615734402426278 0.2022503633288003 0  0.4912362744763454 0.2022503633288091 0  0.5060676915931983 0.2022503633288118 0  0.3973039660686774 0.1977496366711965 0  0.4764048573594896 0.2022503633288051 0  0.5208991087100455 0.2022503633288184 0  0.4467420231257656 0.2022503633288 0  0.5357305258268849 0.2022503633288198 0  0.4121353831855317 0.1977496366711976 0  0.3626973261293352 0.1977496366711919 0  0.3033716576618961 0.1977496366711869 0  0.5752809714718229 0.1977496366711503 0  0.550459855919056 0.1971284784737667 0  0.3281927732146841 0.2028715215262406 0  0.5484179020497461 0.2038403215694763 0  0.3302347270839988 0.1961596784305491 0  0.5379210852238114 0.196125181664411 0  0.5230896681069652 0.1961251816644058 0  0.5082582509901222 0.1961251816644098 0  0.5774715308687094 0.2038748183355887 0  0.3011810982649548 0.2038748183355937 0  0.4785954167564111 0.196125181664404 0  0.4934268338732671 0.1961251816644063 0  0.395113406671763 0.2038748183355966 0  0.3605067667324117 0.2038748183355951 0  0.4593828808457146 0.1961251816643993 0  0.4489325825226805 0.1961251816644007 0  0.4099448237886219 0.2038748183355991 0  0.2557862999801971 0.1960858370257295 0  0.2550147360309399 0.2034426429991114 0  0.4348031476464689 0.2037737577641554 0  0.37463620160841 0.1962262422358553 0  0.3406258365864304 0.196046792193989 0  0.2813001681189834 0.1960467921940502 0  0.2912686387439893 0.1960816328649282 0  0.4246705335819892 0.2039532078059544 0  0.350162175732913 0.1960467921941878 0  0.3847688156722694 0.1960467921942359 0  0.316632368538356 0.19615945856337 0  0.5621550011053409 0.2037816492598991 0  0.5624413877019769 0.1960761923611377 0  0.3162395035833128 0.2038679557424692 0  0.2710887134207622 0.1959696443325838 0  0.5873014376403604 0.2047227881030823 0  0.4346679566442709 0.1954651459552513 0  0.4243296504077986 0.1958756980939062 0  0.3402559510833523 0.2047940500290923 0  0.2808684926760933 0.2047742417812656 0  0.2914077033138723 0.2047809517070955 0  0.3747713926104932 0.2045348540448554 0  0.3499216488898867 0.2051753413186305 0  0.3845282888292298 0.205175341318636 0  0.2648144865455052 0.1962089742986374 0  0.5943247643662894 0.2040415423589182 0  0.5320972610456145 0.1956445099050872 0  0.5172658439287727 0.1956445099050854 0  0.3069923255602658 0.2043468033872551 0  0.5024344268119265 0.1956445099050864 0  0.5716603035734351 0.2043468033872761 0  0.4876030096950741 0.1956445099050831 0  0.4728151975296263 0.1956402468909894 0  0.3663301776527538 0.20436745486386 0  0.4651631000724991 0.1956402468909893 0  0.4009372308499527 0.2043554900949198 0  0.4431091716023345 0.1956325451361429 0  0.4157593408842466 0.2043565497109067 0  0.5865057328865416 0.1956918868509067 0  0.5541600609760193 0.2044335994013721 0  0.3244925681577497 0.1955664005986376 0  0.272008018888917 0.2049327968152409 0  0.2633407725863902 0.2042483236346266 0  0.4567948413982566 0.2046536472831198 0  0.4167680012832803 0.1955060004091903 0  0.4716262585151221 0.2046536472831242 0  0.5161054367030595 0.2045563706470633 0  0.4864426024693469 0.2045563706470604 0  0.5012740195862044 0.2045563706470634 0  0.4022810343427545 0.1961423961483001 0  0.4420739040821668 0.2044853411424516 0  0.3673807293464664 0.1955677741328205 0  0.3925253672243162 0.195346352716901 0  0.5405091246712254 0.2046536472831267 0  0.357918727284983 0.1953463527168901 0  0.5307534575528717 0.2038576038516682 0  0.3079697655029555 0.1955637092892754 0  0.2985930588175599 0.1953463527168728 0  0.579671714346879 0.1955441268455555 0  0.5705023726275059 0.1953463527168462 0  0.5112451461103119 0.2035640580783926 0  0.4964137289934448 0.2035640580783915 0  0.4665727251511405 0.2038238154617746 0  0.5259274680675793 0.2038006696000127 0  0.4815823118765752 0.2035640580783898 0  0.4517504165552094 0.2039070625502732 0  0.4071070238280551 0.1961993303999926 0  0.3234846806957546 0.2047001437739977 0  0.5551679484379799 0.1952998562260008 0  0.5457754356464107 0.1954447171286166 0  0.3329307555206357 0.2046017509710421 0  0.4541577316841968 0.1960357661898101 0  0.3358300776141575 0.1950765652117375 0  0.2539718587514912 0.200011552766824 0  0.5826472073721517 0.2039971170156656 0  0.2761021761080182 0.1946948236183283 0  0.3898581462796225 0.2041572776584344 0  0.3552515063402743 0.2041572776584256 0  0.2965028074750666 0.2046578268138723 0  0.4299158836614793 0.1951782397873778 0  0.379426563923736 0.2049969334481307 0  0.2860882692072842 0.2042624797643994 0  0.3449948044168807 0.2051793676155613 0  0.2603922435707652 0.1950997711614917 0  0.5949856943860
[...]
<PointData  Vectors="f_18-1"> 
<DataArray  type="Float64"  Name="f_18-1"  NumberOfComponents="3" format="ascii">-1.5051471065184917e-02 -8.3309880461313310e-02 0.0000000000000000e+00  -8.5734395640700532e-03 -8.4388061171387224e-02 0.0000000000000000e+00  0.0000000000000000e+00 0.0000000000000000e+00 0.0000000000000000e+00  0.0000000000000000e+00 0.0000000000000000e+00 0.0000000000000000e+00  -1.1812397566950534e-02 -8.3848938756668531e-02 0.0000000000000000e+00  0.0000000000000000e+00 0.0000000000000000e+00 0.0000000000000000e+00  0.0000000000000000e+00 0.0000000000000000e+00 0.0000000000000000e+00  0.0000000000000000e+00 0.0000000000000000e+00 0.0000000000000000e+00  0.0000000000000000e+00 0.0000000000000000e+00 0.0000000000000000e+00  1.0706557281381719e-04 -9.2725896524359570e-05 0.0000000000000000e+00  2.2504727901496221e-04 -1.9424438120492802e-04 0.0000000000000000e+00  3.4168486059802511e-04 -3.2411336361910949e-04 0.0000000000000000e+00  4.5074064875561193e-04 -5.4174644071501251e-04 0.0000000000000000e+00  5.5259364628193616e-04 -8.0713791272201763e-04 0.0000000000000000e+00  6.5641824440374548e-04 -1.1401619331386503e-03 0.0000000000000000e+00  7.4714233656343393e-04 -1.5085395183491853e-03 0.0000000000000000e+00  8.2425705653981060e-04 -1.9390230262030224e-03 0.0000000000000000e+00  8.9908394608927274e-04 -2.4187168090504868e-03 0.0000000000000000e+00  9.6342047082562208e-04 -2.9476219295332920e-03 0.0000000000000000e+00  1.0274855912438116e-03 -3.5430727637342503e-03 0.0000000000000000e+00  1.0897898779827758e-03 -4.1493724480119462e-03 0.0000000000000000e+00  1.1296307075394547e-03 -4.8298013954862339e-03 0.0000000000000000e+00  1.1803961966845079e-03 -5.5513323705322880e-03 0.0000000000000000e+00  1.2057719690467875e-03 -6.3087980725370120e-03 0.0000000000000000e+00  1.2277464242844015e-03 -7.1208728737708130e-03 0.0000000000000000e+00  1.2398076257914758e-03 -7.9639890979895187e-03 0.0000000000000000e+00  1.2399515510160524e-03 -8.8600033696226051e-03 0.0000000000000000e+00  1.2284086821833338e-03 -9.7777390645965110e-03 0.0000000000000000e+00  1.2083185066701812e-03 -1.0740907787529940e-02 0.0000000000000000e+00  1.1771862046282451e-03 -1.1735327853439368e-02 0.0000000000000000e+00  1.1342159320421616e-03 -1.2760681667458541e-02 0.0000000000000000e+00  1.0869814757994115e-03 -1.3837462142050795e-02 0.0000000000000000e+00  1.0381456285174057e-03 -1.4921863424777125e-02 0.0000000000000000e+00  9.7191615872878996e-04 -1.6051636082788309e-02 0.0000000000000000e+00  8.9602500193020919e-04 -1.7200257230037399e-02 0.0000000000000000e+00  8.1135866995950972e-04 -1.8383214518867947e-02 0.0000000000000000e+00  7.1721863883954554e-04 -1.9590757193101917e-02 0.0000000000000000e+00  6.1207284704568800e-04 -2.0821573603266648e-02 0.0000000000000000e+00  5.0156903161758897e-04 -2.2091354904830204e-02 0.0000000000000000e+00  3.8968031179859421e-04 -2.3364925762811784e-02 0.0000000000000000e+00  2.5921364884177442e-04 -2.4671527921331548e-02 0.0000000000000000e+00  1.2342685151687331e-04 -2.6005235527697994e-02 0.0000000000000000e+00  -1.4650039901395141e-05 -2.7345195023464528e-02 0.0000000000000000e+00  -1.6855019731534208e-04 -2.8714581228893307e-02 0.0000000000000000e+00  -3.2145802900254266e-04 -3.0099515113080125e-02 0.0000000000000000e+00  -4.8812377389125932e-04 -3.1501581543865884e-02 0.0000000000000000e+00  -6.5613092958850339e-04 -3.2924502292127331e-02 0.0000000000000000e+00  -8.3489737789159174e-04 -3.4358541768083652e-02 0.0000000000000000e+00  -1.0209328900910618e-03 -3.5810292908060343e-02 0.0000000000000000e+00  -1.2104681812472433e-03 -3.7274694112928788e-02 0.0000000000000000e+00  -1.4053812887027161e-03 -3.8753414904526710e-02 0.0000000000000000e+00  -1.6089650958552046e-03 -4.0244362416768521e-02 0.0000000000000000e+00  -1.8153983055012809e-03 -4.1745988538592890e-02 0.0000000000000000e+00  -2.0269151168050207e-03 -4.3259710697837385e-02 0.0000000000000000e+00  -2.2456845796754036e-03 -4.4783319734952608e-02 0.0000000000000000e+00  -2.4674846559486264e-03 -4.6315387409652714e-02 0.0000000000000000e+00  -2.6935489969447646e-03 -4.7857145439290920e-02 0.0000000000000000e+00  -2.9252597359772431e-03 -4.9406082399745643e-02 0.0000000000000000e+00  -3.1595466347139754e-03 -5.0961589499542284e-02 0.0000000000000000e+00  -3.3972836724280296e-03 -5.2524458857106868e-02 0.0000000000000000e+00  -3.6395257266891158e-03 -5.4092781515838267e-02 0.0000000000000000e+00  -3.8838837694938687e-03 -5.5665896998526782e-02 0.0000000000000000e+00  -4.1310572349240460e-03 -5.7244369025609594e-02 0.0000000000000000e+00  -4.3816793051816337e-03 -5.8826598655979438e-02 0.0000000000000000e+00  -4.6337919490115481e-03 -6.0412260128821220e-02 0.0000000000000000e+00  -4.8880752541911139e-03 -6.2001410385081626e-02 0.0000000000000000e+00  -5.1445865144131870e-03 -6.3593080058269760e-02 0.0000000000000000e+00  -5.4029370954996707e-03 -6.5186561873514806e-02 0.0000000000000000e+00  -5.6630903510015802e-03 -6.6782257733063996e-02 0.0000000000000000e+00  -5.9243417072045654e-03 -6.8379874604752644e-02 0.0000000000000000e+00  -6.1859996717694102e-03 -6.9977735980774322e-02 0.0000000000000000e+00  -6.4492466534718613e-03 -7.1577380877004826e-02 0.0000000000000000e+00  -6.7128029103926939e-03 -7.3177798601528649e-02 0.0000000000000000e+00  -6.9773588096870521e-03 -7.4778637309088819e-02 0.0000000000000000e+00  -7.2426223700251171e-03 -7.6380178128484022e-02 0.0000000000000000e+00  -7.5081671309881505e-03 -7.7981694858336004e-02 0.0000000000000000e+00  -7.7742337419685311e-03 -7.9583394594405416e-02 0.0000000000000000e+00  -8.0405506805945725e-03 -8.1185154826896352e-02 0.0000000000000000e+00  -8.3069337066019530e-03 -8.2786641711949410e-02 0.0000000000000000e+00  -1.4784904116506259e-02 -8.1708471035194560e-02 0.0000000000000000e+00  -1.4518232255318555e-02 -8.0107004957518255e-02 0.0000000000000000e+00  -1.4251414673787642e-02 -7.8505439627967660e-02 0.0000000000000000e+00  -1.3984377002964446e-02 -7.6904006847752671e-02 0.0000000000000000e+00  -1.3717184465085019e-02 -7.5302938205592224e-02 0.0000000000000000e+00  -1.3449766951217761e-02 -7.3702132282029820e-02 0.0000000000000000e+00  -1.3182186687789867e-02 -7.2102258008997167e-02 0.0000000000000000e+00  -1.2914155110537423e-02 -7.0503368039753100e-02 0.0000000000000000e+00  -1.2646282083559206e-02 -6.8905256315194771e-02 0.0000000000000000e+00  -1.2378211393487566e-02 -6.7309041856691870e-02 0.0000000000000000e+00  -1.2109935111025599e-02 -6.5713934272845803e-02 0.0000000000000000e+00  -1.1842160028829244e-02 -6.4121172804978976e-02 0.0000000000000000e+00  -1.1574154891050431e-02 -6.2531569775840734e-02 0.0000000000000000e+00  -1.1305514553073584e-02 -6.0942852736236640e-02 0.0000000000000000e+00  -1.1037978235610113e-02 -5.9358307943308528e-02 0.0000000000000000e+00  -1.0770226366764522e-02 -5.7778949318618010e-02 0.0000000000000000e+00  -1.0501800735455744e-02 -5.6201056292440342e-02 0.0000000000000000e+00  -1.0235538978165462e-02 -5.4629436199500614e-02 0.0000000000000000e+00  -9.9691169272335817e-03 -5.3065092120674610e-02 0.0000000000000000e+00  -9.7019246013132568e-03 -5.1502797565443070e-02 0.0000000000000000e+00  -9.4380632700813236e-03 -4.9949244005572185e-02 0.0000000000000000e+00  -9.1742055382000413e-03 -4.8405413499711752e-02 0.0000000000000000e+00  -8.9095009113469674e-03 -4.6864252096633488e-02 0.0000000000000000e+00  -8.6494444774623119e-03 -4.5334512494961149e-02 0.0000000000000000e+00  -8.3895076700582199e-03 -4.3817435936264838e-02 0.0000000000000000e+00  -8.1291317246851361e-03 -4.2305030554293840e-02 0.0000000000000000e+00  -7.8727424126152929e-03 -4.0805181139090076e-02 0.0000000000000000e+00  -7.6175858902959998e-03 -3.9321905278592570e-02 0.0000000000000000e+00  -7.3625355954346989e-03 -3.7841823800589799e-02 0.0000000000000000e+00  -7.1156387985002916e-03 -3.6379187078089736e-02 0.0000000000000000e+00  -6.8678043169623105e-03 -3.4938052344257141e-02 0.0000000000000000e+00  -6.6191589771908968e-03 -3.3501972273818167e-02 0.0000000000000000e+00  -6.3774525981472041e-03 -3.2088011239501946e-02 0.0000000000000000e+00  -6.1396034136027072e-03 -3.0685198305308675e-02 0.0000000000000000e+00  -5.9048333619895711e-03 -2.9301475526923075e-02 0.0000000000000000e+00  -5.6764953401128660e-03 -2.7940957305349387e-02 0.0000000000000000e+00  -5.4454529932674257e-03 -2.6593977322209514e-02 0.0000000000000000e+00  -5.2222781943207621e-03 -2.5270334771066785e-02 0.0000000000000000e+00  -4.9992559388137266e-03 -2.3967133324998075e-02 0.0000000000000000e+00  -4.7788148157097551e-03 -2.2687801178679721e-02 0.0000000000000000e+00  -4.5645475198734893e-03 -2.1433371569610924e-02 0.0000000000000000e+00  -4.3589216724871527e-03 -2.0197172755578009e-02 0.0000000000000000e+00  -4.1591517206521732e-03 -1.8989279514143035e-02 0.0000000000000000e+00  -3.9508585399725378e-03 -1.7803734644931471e-02 0.0000000000000000e+00  -3.7585846621374522e-03 -1.6648676633416567e-02 0.0000000000000000e+00  -3.5605228266575111e-03 -1.5527211063256019e-02 0.0000000000000000e+00  -3.3759079035372355e-03 -1.4428009103886967e-02 0.0000000000000000e+00  -3.1930230040056570e-03 -1.3367116966591236e-02 0.0000000000000000e+00  -3.0194462116825979e-03 -1.2328726201628018e-02 0.0000000000000000e+00  -2.8524796932382496e-03 -1.1327596489487810e-02 0.0000000000000000e+00  -2.6736686637810932e-03 -1.0354245283198064e-02 0.0000000000000000e+00  -2.5140257568944968e-03 -9.4186749041109217e-03 0.0000000000000000e+00  -2.3443819418211462e-03 -8.5264902427632933e-03 0.0000000000000000e+00  -2.1956991608242699e-03 -7.6652687208392115e-03 0.0000000000000000e+00  -2.0472723462541384e-03 -6.8594806064819535e-03 0.0000000000000000e+00  -1.8955360402074493e-03 -6.0662456184287002e-03 0.0000000000000000e+00  -1.7571347198026453e-03 -5.3325267414620408e-03 0.0000000000000000e+00  -1.6024564777685538e-03 -4.6392889415036642e-03 0.0000000000000000e+00  -1.4701321277697959e-03 -3.9854184188803550e-03 0.0000000000000000e+00  -1.3368397831507112e-03 -3.3905081537249485e-03 0.0000000000000000e+00  -1.2110605146095456e-03 -2.8281869617964731e-03 0.0000000000000000e+00  -1.0903998147856620e-03 -2.3225395218719066e-03 0.0000000000000000e+00  -9.5430738832835932e-04 -1.8556369854783599e-03 0.0000000000000000e+00  -8.4122674025930984e-04 -1.4407417736776041e-03 0.0000000000000000e+00  -7.0949586090635986e-04 -1.0779244632437251e-03 0.0000000000000000e+00  -5.9524274451305055e-04 -7.7668833580745984e-04 0.0000000000000000e+00  -4.6509300024609538e-04 -5.2814956270919695e-04 0.0000000000000000e+00  -3.4753518332512710e-04 -3.1905057566828846e-04 0.0000000000000000e+00  -2.3181006005094194e-04 -1.7316003618868896e-04 0.0000000000000000e+00  -1.1504383217102541e-04 -9.8732173545382400e-05 0.0000000000000000e+00  -1.3431884344059711e-02 -8.3579429937489777e-02 0.0000000000000000e+00  -1.0192950431463680e-02 -8.4118476051856753e-02 0.0000000000000000e+00  1.2166735531717190e-05 -9.4310982126280662e-05 0.0000000000000000e+00  -8.7538182807339465e-03 -6.5447979773354370e-02 0.0000000000000000e+00  -1.0109847908771178e-02 -7.3558779036456329e-02 0.0000000000000000e+00  2.2717180693499588e-05 -9.4900130054290143e-04 0.0000000000000000e+00  -7.2359846357562749e-03 -5.6039678748135556e-02 0.0000000000000000e+00  -8.0154408929937835e-03 -6.0786206311624784e-02 0.0000000000000000e+00  -1.5926493811092808e-04 -2.3986022093882096e-03 0.0000000000000000e+00  -1.1031759562696471e-02 -7.8245048656897562e-02 0.0000000000000000e+00  -2.0181298556799177e-04 -4.2824976853495442e-03 0.0000000000000000e+00  -3.8849909317395032e-04 -8.4732789897142471e-03 0.0000000000000000e+00  -6.4705807214090905e-03 -5.1335257531260378e-02 0.0000000000000000e+00  -8.7586129034668660e-04 -1.1992786945681001e-02 0.0000000000000000e+00  -5.7245106516534304e-03 -4.6689096025749104e-02 0.0000000000000000e+00  -1.2367318377344127e-03 -1.5322456830498926e-02 0.0000000000000000e+00  -1.7841889426954826e-03 -1.9865849942250352e-02 0.0000000000000000e+00  -5.0950777207857678e-03 -4.1988953745611686e-02 0.0000000000000000e+00  -4.2678546511003019e-03 -3.7544488656643615e-02 0.0000000000000000e+00  -2.2345598211163716e-03 -2.3546505901110040e-02 0.0000000000000000e+00  -2.8157635003832021e-03 -2.7618095999147971e-02 0.0000000000000000e+00  -3.5936022623176728e-03 -3.3010722616344107e-02 0.0000000000000000e+00  -2.9720197857548164e-04 -5.6815243961896777e-03 0.0000000000000000e+00  -9.5740437636066232e-03 -7.0376853650011270e-02 0.0000000000000000e+00  -3.1913864327900569e-03 -2.9979114757747213e-02 0.0000000000000000e+00  -6.7847905014868561e-04 -1.0287701593011619e-02 0.0000000000000000e+00  -1.4951124923387356e-03 -1.7798330244062254e-02 0.0000000000000000e+00  -5.3289064736981561e-05 -1.6251139852836839e-03 0.0000000000000000e+00  -1.1902172068439718e-02 -8.0878510106467946e-02 0.0000000000000000e+00  6.0949269907307606e-05 -4.2006258707735523e-04 0.0000000000000000e+00  -3.9321872048967282e-03 -3.9869483361623805e-02 0.0000000000000000e+00  -5.3435929623255607e-03 -4.9007649619845217e-02 0.0000000000000000e+00  -6.0899184152903383e-03 -5.3686483252809801e-02 0.0000000000000000e+00  -2.5923413398983787e-03 -2.1654396425176876e-02 0.0000000000000000e+00  -4.6221373539594166e-03 -4.4395267218136261e-02 0.0000000000000000e+00  -6.8555978779209319e-03 -5.8414907702093607e-02 0.0000000000000000e+00  -3.2811057522563096e-03 -3.5451626833506847e-02 0.0000000000000000e+00  -7.6353287476806416e-03 -6.3177933117677776e-02 0.0000000000000000e+00  -3.1394080973552625e-03 -2.5527502929573044e-02 0.0000000000000000e+00  -1.5252523964049637e-03 -1.3504100640762044e-02 0.0000000000000000e+00  -4.0820722631284016e-04 -3.3844290618938590e-03 0.0000000000000000e+00  -1.1207971299000918e-02 -7.5719695640033391e-02 0.0000000000000000e+00  -1.0071396342287597e-02 -6.7655510826218068e-02 0.0000000000000000e+00  6.4774862297579545e-05 -6.9868824422157343e-03 0.0000000000000000e+00  -7.7973164219981433e-03 -6.7355283330810548e-02 0.0000000000000000e+00  -1.0716717497649703e-03 -7.2427899662574806e-03 0.0000000000000000e+00  -9.7209579529671485e-03 -6.3558306765355094e-02 0.0000000000000000e+00  -8.9273435599849082e-03 -5.8795398404460075e-02 0.0000000000000000e+00  -8.1417578186203307e-03 -5.4066932544190323e-02 0.0000000000000000e+00  -9.3434331682953516e-03 -7.6759158663712593e-02 0.0000000000000000e+00  3.1876329038116623e-04 -3.1732846808953130e-03 0.0000000000000000e+00  -6.6114882428707136e-03 -4.4775101880959220e-02 0.0000000000000000e+00  -7.3682105646156650e-03 -4.9387795501287371e-02 0.0000000000000000e+00  -9.7634903587317254e-04 -2.1299936689938941e-02 0.0000000000000000e+00  -1.7193619787313785e-04 -1.3179429723768274e-02 0.0000000000000000e+00  -5.6679013402542765e-03 -3.8930230827987203e-02 0.0000000000000000e+00  -5.1691162839986714e-03 -3.5828415010329531e-02 0.0000000000000000e+00  -1.4299081272995165e-03 -2.5164828649095767e-02 0.0000000000000000e+00  -5.0553693095660633e-05 -4.0155163418209511e-05 0.0000000000000000e+00  3.7150186950153737e-05 -3.0867133888048808e-05 0.0000000000000000e+00  -2.3548076616262252e-03 -3.2052132911328871e-02 0.0000000000000000e+00  -2.2103964732614109e-03 -1.6118499538243347e-02 0.0000000000000000e+00  -1.3212552092658240e-03 -9.0611323932641378e-03 0.0000000000000000e+00  -3.2883942124292909e-04 -1.2264772091384656e-03 0.0000000000000000e+00  -4.3688956302009478e-04 -2.0766761407867364e-03 0.0000000000000000e+00  -1.9221273673818353e-03 -2.9196252856596445e-02 0.0000000000000000e+00  -1.5478467571985674e-03 -1.0879828628741520e-02 0.0000000000000000e+00  -2.5792068172315321e-03 -1.8497885752267022e-02 0.0000000000000000e+00  -8.0810427867238847e-04 -5.1187142779594011e-03 0.0000000000000000e+00  -8.5502720577894566e-03 -7.1793945902454900e-02 0.0000000000000000e+00  -1.1056919862897965e-02 -7.1472694979587983e-02 0.0000000000000000e+00  2.8974138644176860e-04 -5.1410165815700187e-03 0.0000000000000000e+00  -2.2966694994403390e-04 -5.8266967014696436e-04 0.0000000000000000e+00  -9.5982814834425258e-03 -7.9989814755347693e-02 0.0000000000000000e+00  -4.7117162709848026e-03 -3.1672603739131701e-02 0.0000000000000000e+00  -4.1442996775708767e-03 -2.8782198912708279e-02 0.0000000000000000e+00  2.8645738093832011e-04 -9.1470323606331529e-03 0.0000000000000000e+00  3.1117920367069172e-04 -1.2243004626100408e-03 0.0000000000000000e+00  3.7959744547002113e-04 -2.1365380535947700e-03 0.0000000000000000e+00  -3.0911856261517970e-04 -1.6374964143525197e-02 0.0000000000000000e+00  2.4843185133828662e-04 -1.1023115793385175e-02 0.0000000000000000e+00  -3.8244611410306054e-04 -1.8715840564889338e-02 0.0000000000000000e+00  -1.4355681759293244e-04 -3.0341684666443104e-04 0.0000000000000000e+00  -1.0197430325927223e-02 -8.2228430249106838e-02 0.0000000000000000e+00  -9.5635433771416711e-03 -6.1659665618578462e-02 0.0000000000000000e+00  -8.7719920257435576e-03 -5.6909166096399844e-02 0.0000000000000000e+00  3.7013529435810848e-04 -3.8897919120180480e-03 0.0000000000000000e+00  -7.9894377849167187e-03 -5.2198798666950048e-02 0.0000000000000000e+00  -8.8780122085038854e-03 -7.4902203244048490e-02 0.0000000000000000e+00  -7.2202534201913976e-03 -4.7544409730438948e-02 0.0000000000000000e+00  -6.4725071289201321e-03 -4.2976867889976109e-02 0.0000000000000000e+00  -1.7957119015599214e-04 -1.4458178316225607e-02 0.0000000000000000e+00  -6.0923433153407458e-03 -4.0649013996652272e-02 0.0000000000000000e+00  -1.0286264115371530e-03 -2.2809160169056049e-02 0.0000000000000000e+00  -5.0473833553907064e-03 -3.4106682168604741e-02 0.0000000000000000e+00  -1.4976527191867103e-03 -2.6753427167764021e-02 0.0000000000000000e+00  -1.2479989751585777e-02 -7.9245275893897724e-02 0.0000000000000000e+00  -7.9120567584022375e-03 -6.9242568700865717e-02 0.0000000000000000e+00  -1.0508989847773306e-03 -6.3006537900571575e-03 0.0000000000000000e+00  2.4588656584030897e-04 -6.3884574584621191e-04 0.0000000000000000e+00  1.3098440830934831e-04 -2.4261928769448392e-04 0.0000000000000000e+00  -3.0033870996034480e-03 -3.8544824200612560e-02 0.0000000000000000e+00  -3.9287054310853612e-03 -2.6697433501085093e-02 0.0000000000000000e+00  -3.6637657187969280e-03 -4.3043109580111726e-02 0.0000000000000000e+00  -5.8721509423568076e-03 -5.7003202546570153e-02 0.0000000000000000e+00  -4.3912703569643540e-03 -4.7624540615156495e-02 0.0000000000000000e+00  -5.1198436894174786e-03 -5.2286819495179951e-02 0.0000000000000000e+00  -3.1867042147021604e-03 -2.2877672167425679e-02 0.0000000000000000e+00  -2.4384261979918630e-03 -3.4185566666828593e-02 0.0000000000000000e+00  -2.1334598915453123e-03 -1.4475575937285452e-02 0.0000000000000000e+00  -3.0240173867113478e-03 -2.0382283073842506e-02 0.0000000000000000e+00  -7.1155319250220663e-03 -6.4846026007106844e-02 0.0000000000000000e+00  -1.8999042868268253e-03 -1.2447776054761453e-02 0.0000000000000000e+00  -6.8568823709492131e-03 -6.1661764962897596e-02 0.0000000000000000e+00  -7.4576540612275415e-04 -3.9439253132377951e-03 0.0000000000000000e+00  -6.2117030597937421e-04 -2.8278205693035639e-03 0.0000000000000000e+00  -1.2159033907301558e-02 -7.7023291738209432e-02 0.0000000000000000e+00  -1.1727953584420697e-02 -7.4042894796319619e-02 0.0000000000000000e+00  -5.9378583186606836e-03 -5.5400569585541445e-02 0.0000000000000000e+00  -5.1888557670328756e-03 -5.0701040353961266e-02 0.0000000000000000e+00  -3.6837787137836346e-03 -4.1459066724159180e-02 0.0000000000000000e+00  -6.6221769356424902e-03 -6.0108413597031014e-02 0.0000000000000000e+00  -4.4643587215415816e-03 -4.6061481468178726e-02 0.0000000000000000e+00  -3.0063424836502353e-03 -3.7006088434494301e-02 0.0000000000000000e+00  -3.3556280733825646e-03 -2.4137288162713155e-02 0.0000000000000000e+00  3.8749782406753182e-04 -6.2546920835864920e-03 0.0000000000000000e+00  -1.0915340211254582e-02 -6.9079063862592105e-02 0.0000000000000000e+00  -1.0362523917445497e-02 -6.6053731553015693e-02 0.0000000000000000e+00  3.12