<?xml version="1.0"?>
<VTKFile type="UnstructuredGrid"  version="0.1"  >
<UnstructuredGrid>
<Piece  NumberOfPoints="439" NumberOfCells="725">
<Points>
<DataArray  type="Float64"  NumberOfComponents="3"  format="ascii">0.6 0.19 0  0.6 0.21 0  0.2489897949 0.21 0  0.2489897949 0.19 0  0.6 0.2 0  0.2496355385699469 0.2060260530378829 0  0.249959460510575 0.2020130349814059 0  0.2499594605105767 0.1979869650186357 0  0.24963553856995 0.1939739469621422 0  0.2539336006056293 0.21 0  0.2588774063112542 0.21 0  0.2638212120168921 0.21 0  0.26876501772253 0.21 0  0.2737088234281569 0.21 0  0.2786526291337753 0.21 0  0.2835964348393937 0.21 0  0.2885402405450166 0.21 0  0.2934840462506522 0.21 0  0.2984278519562708 0.21 0  0.3033716576618997 0.21 0  0.3083154633675181 0.21 0  0.3132592690731365 0.21 0  0.3182030747787549 0.21 0  0.3231468804843732 0.21 0  0.3280906861899917 0.21 0  0.3330344918956208 0.21 0  0.3379782976012284 0.21 0  0.3429221033068576 0.21 0  0.347865909012476 0.21 0  0.3528097147180944 0.21 0  0.3577535204237128 0.21 0  0.3626973261293311 0.21 0  0.3676411318349495 0.21 0  0.3725849375405788 0.21 0  0.3775287432461877 0.21 0  0.382472548951812 0.21 0  0.3874163546574338 0.21 0  0.3923601603630631 0.21 0  0.3973039660686706 0.21 0  0.4022477717742986 0.21 0  0.4071915774799107 0.21 0  0.4121353831855311 0.21 0  0.4170791888911518 0.21 0  0.4220229945967636 0.21 0  0.4269668003023918 0.21 0  0.4319106060080253 0.21 0  0.4368544117136773 0.21 0  0.4417982174193329 0.21 0  0.4467420231249967 0.21 0  0.4516858288306445 0.21 0  0.4566296345362864 0.21 0  0.461573440241916 0.21 0  0.4665172459475665 0.21 0  0.4714610516531998 0.21 0  0.4764048573588668 0.21 0  0.4813486630645134 0.21 0  0.486292468770176 0.21 0  0.4912362744758066 0.21 0  0.4961800801814611 0.21 0  0.5011238858870897 0.21 0  0.5060676915927493 0.21 0  0.5110114972983872 0.21 0  0.5159553030040036 0.21 0  0.5208991087096415 0.21 0  0.5258429144153002 0.21 0  0.5307867201209391 0.21 0  0.5357305258265987 0.21 0  0.5406743315322367 0.21 0  0.5456181372378529 0.21 0  0.5505619429434908 0.21 0  0.5555057486491456 0.21 0  0.5604495543547885 0.21 0  0.565393360060448 0.21 0  0.5703371657661116 0.21 0  0.5752809714717458 0.21 0  0.5802247771773834 0.21 0  0.5851685828830341 0.21 0  0.5901123885886809 0.21 0  0.5950561942943404 0.21 0  0.5950561942943833 0.19 0  0.590112388588758 0.19 0  0.5851685828831193 0.19 0  0.5802247771774727 0.19 0  0.5752809714718514 0.19 0  0.5703371657662308 0.19 0  0.565393360060618 0.19 0  0.5604495543549889 0.19 0  0.5555057486493581 0.19 0  0.5505619429437035 0.19 0  0.5456181372381043 0.19 0  0.540674331532505 0.19 0  0.5357305258268962 0.19 0  0.530786720121263 0.19 0  0.5258429144156628 0.19 0  0.5208991087100244 0.19 0  0.5159553030044218 0.19 0  0.5110114972988226 0.19 0  0.5060676915932177 0.19 0  0.5011238858875806 0.19 0  0.496180080181972 0.19 0  0.4912362744763531 0.19 0  0.4862924687707343 0.19 0  0.4813486630651046 0.19 0  0.4764048573594966 0.19 0  0.4714610516538683 0.19 0  0.4665172459482555 0.19 0  0.4615734402426349 0.19 0  0.4566296345370104 0.19 0  0.4516858288313808 0.19 0  0.4467420231257716 0.19 0  0.4417982174201465 0.19 0  0.4368544117145297 0.19 0  0.4319106060089131 0.19 0  0.4269668003032866 0.19 0  0.4220229945976482 0.19 0  0.4170791888920056 0.19 0  0.4121353831863594 0.19 0  0.4071915774806995 0.19 0  0.4022477717750478 0.19 0  0.3973039660693901 0.19 0  0.3923601603637548 0.19 0  0.3874163546581082 0.19 0  0.3824725489524824 0.19 0  0.3775287432468258 0.19 0  0.3725849375411773 0.19 0  0.3676411318355085 0.19 0  0.3626973261298614 0.19 0  0.3577535204242108 0.19 0  0.352809714718589 0.19 0  0.347865909012931 0.19 0  0.342922103307292 0.19 0  0.3379782976016536 0.19 0  0.3330344918960152 0.19 0  0.3280906861903751 0.19 0  0.3231468804847171 0.19 0  0.3182030747790592 0.19 0  0.3132592690734012 0.19 0  0.3083154633677581 0.19 0  0.3033716576621197 0.19 0  0.2984278519564813 0.19 0  0.2934840462508429 0.19 0  0.2885402405451874 0.19 0  0.2835964348395295 0.19 0  0.2786526291338716 0.19 0  0.2737088234282243 0.19 0  0.268765017722586 0.19 0  0.2638212120169476 0.19 0  0.2588774063113093 0.19 0  0.2539336006056579 0.19 0  0.6 0.1949999999999783 0  0.6 0.2049999999999729 0  0.2589734265316493 0.2005523893428403 0  0.5431462343853077 0.199999999999969 0  0.5682397894768162 0.1999704585808987 0  0.2774513927118024 0.2007941919421926 0  0.513849583376897 0.1999023426490919 0  0.5286810004937381 0.1999023426490969 0  0.2945108952057646 0.1992911908405386 0  0.5827780831384927 0.1995429801003349 0  0.3104128396569256 0.1999704585808978 0  0.3370001755418551 0.2008294612433967 0  0.4990181662600459 0.1999023426490902 0  0.3552816175709044 0.2000000000000608 0  0.4841867491431925 0.1999023426490849 0  0.3707373713905551 0.2000142376953689 0  0.3898882575102495 0.2000000000000828 0  0.4689857550492734 0.1995416724256694 0  0.4541577316841967 0.1999999999999098 0  0.4043534914018331 0.2000976573509244 0  0.4195510917439569 0.2000000000001057 0  0.4387019778644512 0.1999857623046772 0  0.3202472750256703 0.2000088842146399 0  0.5584053541080851 0.1999911157853577 0  0.4280667146887134 0.1998489048208241 0  0.3467659946265474 0.2001510951794375 0  0.3813726345658908 0.200151095179452 0  0.2860683376922098 0.2000415445706182 0  0.5911223811781194 0.1982449159348744 0  0.2679893161458627 0.201675125646729 0  0.4615734402426278 0.2022503633288003 0  0.4912362744763454 0.2022503633288091 0  0.5060676915931983 0.2022503633288118 0  0.3973039660686774 0.1977496366711965 0  0.4764048573594896 0.2022503633288051 0  0.5208991087100455 0.2022503633288184 0  0.4467420231257656 0.2022503633288 0  0.5357305258268849 0.2022503633288198 0  0.4121353831855317 0.1977496366711976 0  0.3626973261293352 0.1977496366711919 0  0.3033716576618961 0.1977496366711869 0  0.5752809714718229 0.1977496366711503 0  0.550459855919056 0.1971284784737667 0  0.3281927732146841 0.2028715215262406 0  0.5484179020497461 0.2038403215694763 0  0.3302347270839988 0.1961596784305491 0  0.5379210852238114 0.196125181664411 0  0.5230896681069652 0.1961251816644058 0  0.5082582509901222 0.1961251816644098 0  0.5774715308687094 0.2038748183355887 0  0.3011810982649548 0.2038748183355937 0  0.4785954167564111 0.196125181664404 0  0.4934268338732671 0.1961251816644063 0  0.395113406671763 0.2038748183355966 0  0.3605067667324117 0.2038748183355951 0  0.4593828808457146 0.1961251816643993 0  0.4489325825226805 0.1961251816644007 0  0.4099448237886219 0.2038748183355991 0  0.2557862999801971 0.1960858370257295 0  0.2550147360309399 0.2034426429991114 0  0.4348031476464689 0.2037737577641554 0  0.37463620160841 0.1962262422358553 0  0.3406258365864304 0.196046792193989 0  0.2813001681189834 0.1960467921940502 0  0.2912686387439893 0.1960816328649282 0  0.4246705335819892 0.2039532078059544 0  0.350162175732913 0.1960467921941878 0  0.3847688156722694 0.1960467921942359 0  0.316632368538356 0.19615945856337 0  0.5621550011053409 0.2037816492598991 0  0.5624413877019769 0.1960761923611377 0  0.3162395035833128 0.2038679557424692 0  0.2710887134207622 0.1959696443325838 0  0.5873014376403604 0.2047227881030823 0  0.4346679566442709 0.1954651459552513 0  0.4243296504077986 0.1958756980939062 0  0.3402559510833523 0.2047940500290923 0  0.2808684926760933 0.2047742417812656 0  0.2914077033138723 0.2047809517070955 0  0.3747713926104932 0.2045348540448554 0  0.3499216488898867 0.2051753413186305 0  0.3845282888292298 0.205175341318636 0  0.2648144865455052 0.1962089742986374 0  0.5943247643662894 0.2040415423589182 0  0.5320972610456145 0.1956445099050872 0  0.5172658439287727 0.1956445099050854 0  0.3069923255602658 0.2043468033872551 0  0.5024344268119265 0.1956445099050864 0  0.5716603035734351 0.2043468033872761 0  0.4876030096950741 0.1956445099050831 0  0.4728151975296263 0.1956402468909894 0  0.3663301776527538 0.20436745486386 0  0.4651631000724991 0.1956402468909893 0  0.4009372308499527 0.2043554900949198 0  0.4431091716023345 0.1956325451361429 0  0.4157593408842466 0.2043565497109067 0  0.5865057328865416 0.1956918868509067 0  0.5541600609760193 0.2044335994013721 0  0.3244925681577497 0.1955664005986376 0  0.272008018888917 0.2049327968152409 0  0.2633407725863902 0.2042483236346266 0  0.4567948413982566 0.2046536472831198 0  0.4167680012832803 0.1955060004091903 0  0.4716262585151221 0.2046536472831242 0  0.5161054367030595 0.2045563706470633 0  0.4864426024693469 0.2045563706470604 0  0.5012740195862044 0.2045563706470634 0  0.4022810343427545 0.1961423961483001 0  0.4420739040821668 0.2044853411424516 0  0.3673807293464664 0.1955677741328205 0  0.3925253672243162 0.195346352716901 0  0.5405091246712254 0.2046536472831267 0  0.357918727284983 0.1953463527168901 0  0.5307534575528717 0.2038576038516682 0  0.3079697655029555 0.1955637092892754 0  0.2985930588175599 0.1953463527168728 0  0.579671714346879 0.1955441268455555 0  0.5705023726275059 0.1953463527168462 0  0.5112451461103119 0.2035640580783926 0  0.4964137289934448 0.2035640580783915 0  0.4665727251511405 0.2038238154617746 0  0.5259274680675793 0.2038006696000127 0  0.4815823118765752 0.2035640580783898 0  0.4517504165552094 0.2039070625502732 0  0.4071070238280551 0.1961993303999926 0  0.3234846806957546 0.2047001437739977 0  0.5551679484379799 0.1952998562260008 0  0.5457754356464107 0.1954447171286166 0  0.3329307555206357 0.2046017509710421 0  0.4541577316841968 0.1960357661898101 0  0.3358300776141575 0.1950765652117375 0  0.2539718587514912 0.200011552766824 0  0.5826472073721517 0.2039971170156656 0  0.2761021761080182 0.1946948236183283 0  0.3898581462796225 0.2041572776584344 0  0.3552515063402743 0.2041572776584256 0  0.2965028074750666 0.2046578268138723 0  0.4299158836614793 0.1951782397873778 0  0.379426563923736 0.2049969334481307 0  0.2860882692072842 0.2042624797643994 0  0.3449948044168807 0.2051793676155613 0  0.2603922435707652 0.1950997711614917 0  0.5949856943860
[...]
<PointData  Vectors="f_18-1"> 
<DataArray  type="Float64"  Name="f_18-1"  NumberOfComponents="3" format="ascii">-1.7851421725906901e-05 -8.7199896708035329e-05 0.0000000000000000e+00  1.3576672637185164e-05 -8.7730323007488055e-05 0.0000000000000000e+00  0.0000000000000000e+00 0.0000000000000000e+00 0.0000000000000000e+00  0.0000000000000000e+00 0.0000000000000000e+00 0.0000000000000000e+00  -2.0256296758252675e-06 -8.7441400818634487e-05 0.0000000000000000e+00  0.0000000000000000e+00 0.0000000000000000e+00 0.0000000000000000e+00  0.0000000000000000e+00 0.0000000000000000e+00 0.0000000000000000e+00  0.0000000000000000e+00 0.0000000000000000e+00 0.0000000000000000e+00  0.0000000000000000e+00 0.0000000000000000e+00 0.0000000000000000e+00  3.1307800217666961e-06 -3.2732781125785793e-06 0.0000000000000000e+00  5.9912713309805767e-06 -6.7207980737651572e-06 0.0000000000000000e+00  8.5432262057401381e-06 -1.0920323918061324e-05 0.0000000000000000e+00  1.0558372122124692e-05 -1.6856040012740590e-05 0.0000000000000000e+00  1.1987720034016784e-05 -2.3438073675431144e-05 0.0000000000000000e+00  1.2983193211867167e-05 -3.0973577186581681e-05 0.0000000000000000e+00  1.3455993607408794e-05 -3.8617999145315162e-05 0.0000000000000000e+00  1.3374758083769801e-05 -4.6434029378059829e-05 0.0000000000000000e+00  1.2813659302712611e-05 -5.4065053838867946e-05 0.0000000000000000e+00  1.1886014040117521e-05 -6.1184737179712282e-05 0.0000000000000000e+00  1.0491215106091852e-05 -6.7229065405334309e-05 0.0000000000000000e+00  8.8813814147143299e-06 -7.2969690414425824e-05 0.0000000000000000e+00  7.2255555176279286e-06 -7.7233756538709253e-05 0.0000000000000000e+00  5.1245293113085063e-06 -8.0559262888752907e-05 0.0000000000000000e+00  3.3724781634397833e-06 -8.2963676402271269e-05 0.0000000000000000e+00  1.4902273367554397e-06 -8.4152717536411029e-05 0.0000000000000000e+00  -3.0773083325654322e-07 -8.4666868891418592e-05 0.0000000000000000e+00  -2.0758019965765945e-06 -8.4078441781857167e-05 0.0000000000000000e+00  -3.7254294637749871e-06 -8.3040841324667896e-05 0.0000000000000000e+00  -5.4469462450181090e-06 -8.1018213239078998e-05 0.0000000000000000e+00  -7.1267848618006623e-06 -7.8270837425863552e-05 0.0000000000000000e+00  -8.7252309556933927e-06 -7.4726675298106363e-05 0.0000000000000000e+00  -1.0494176541868323e-05 -6.9834435616158511e-05 0.0000000000000000e+00  -1.2234994771830851e-05 -6.4727081806296836e-05 0.0000000000000000e+00  -1.3705515368691552e-05 -5.8281048050773999e-05 0.0000000000000000e+00  -1.4892037014525990e-05 -5.1305625063540895e-05 0.0000000000000000e+00  -1.5817642899312286e-05 -4.3536130096583250e-05 0.0000000000000000e+00  -1.6396841811415531e-05 -3.5254607849535515e-05 0.0000000000000000e+00  -1.6596617308143511e-05 -2.6786928332928603e-05 0.0000000000000000e+00  -1.6395870042866550e-05 -1.8357865745985891e-05 0.0000000000000000e+00  -1.5934551033994713e-05 -1.0043283511042119e-05 0.0000000000000000e+00  -1.5209880749489145e-05 -2.2175507875594289e-06 0.0000000000000000e+00  -1.4203442061401369e-05 4.7914385530027740e-06 0.0000000000000000e+00  -1.3082749908764874e-05 1.1537785380788673e-05 0.0000000000000000e+00  -1.2003355057455942e-05 1.7263759424285010e-05 0.0000000000000000e+00  -1.0715532812525322e-05 2.2387904119313414e-05 0.0000000000000000e+00  -9.6916242151695158e-06 2.6796791721343395e-05 0.0000000000000000e+00  -8.5546235000431872e-06 3.0520295424264186e-05 0.0000000000000000e+00  -7.6714839502975794e-06 3.3828453306463027e-05 0.0000000000000000e+00  -6.8662754522858941e-06 3.6655387611193285e-05 0.0000000000000000e+00  -6.0446358053259314e-06 3.9217352419928256e-05 0.0000000000000000e+00  -5.1486824143454212e-06 4.1422170814649986e-05 0.0000000000000000e+00  -4.2835360200634152e-06 4.3338731606755372e-05 0.0000000000000000e+00  -3.2192893312536641e-06 4.4896109938698463e-05 0.0000000000000000e+00  -1.9299308354688684e-06 4.5938343127982753e-05 0.0000000000000000e+00  -6.4851234465261973e-07 4.6369851203744970e-05 0.0000000000000000e+00  8.3760685162876950e-07 4.6104484367905740e-05 0.0000000000000000e+00  2.4695070247248975e-06 4.4991429320464301e-05 0.0000000000000000e+00  3.9199049389059325e-06 4.2931706149579931e-05 0.0000000000000000e+00  5.3694617446393220e-06 4.0044266696542785e-05 0.0000000000000000e+00  6.6766688640869129e-06 3.6272859597283471e-05 0.0000000000000000e+00  7.6427339676175274e-06 3.1700614606708549e-05 0.0000000000000000e+00  8.3933014370646225e-06 2.6667084012417060e-05 0.0000000000000000e+00  8.8317778026565603e-06 2.1211943391985761e-05 0.0000000000000000e+00  9.0305442907790888e-06 1.5645066838157001e-05 0.0000000000000000e+00  9.0868345171064353e-06 1.0171837332951187e-05 0.0000000000000000e+00  9.0543892792491165e-06 4.8453042759423508e-06 0.0000000000000000e+00  9.0790877998048451e-06 -2.7741109972874211e-07 0.0000000000000000e+00  9.2584357749647567e-06 -5.1863828930152564e-06 0.0000000000000000e+00  9.6113806426701935e-06 -1.0080508212919866e-05 0.0000000000000000e+00  1.0185492526619732e-05 -1.5248849870335384e-05 0.0000000000000000e+00  1.0898662185363168e-05 -2.0519302229041643e-05 0.0000000000000000e+00  1.1679246714067771e-05 -2.6433550689013385e-05 0.0000000000000000e+00  1.2612596505940390e-05 -3.2892891391684718e-05 0.0000000000000000e+00  1.3257566139885506e-05 -3.9898514334111153e-05 0.0000000000000000e+00  1.3725505935480412e-05 -4.7585866522890001e-05 0.0000000000000000e+00  1.4008613355966139e-05 -5.5454264015382820e-05 0.0000000000000000e+00  1.4017527638011008e-05 -6.3584063135064457e-05 0.0000000000000000e+00  1.3885810776082165e-05 -7.1756043683105034e-05 0.0000000000000000e+00  1.3691377367543946e-05 -7.9806651690908650e-05 0.0000000000000000e+00  -1.7762617616278301e-05 -7.9458311597502070e-05 0.0000000000000000e+00  -1.7524107871200867e-05 -7.1569810021859638e-05 0.0000000000000000e+00  -1.7181808396875096e-05 -6.3446290161893795e-05 0.0000000000000000e+00  -1.6669997398975266e-05 -5.5351139710331119e-05 0.0000000000000000e+00  -1.6028475049246999e-05 -4.7507706449978910e-05 0.0000000000000000e+00  -1.5295012941954866e-05 -3.9901455756412105e-05 0.0000000000000000e+00  -1.4540331152476142e-05 -3.2936085603130458e-05 0.0000000000000000e+00  -1.3663166989531418e-05 -2.6511485900781071e-05 0.0000000000000000e+00  -1.3021357753506516e-05 -2.0622500092452529e-05 0.0000000000000000e+00  -1.2492281147235977e-05 -1.5249097249443147e-05 0.0000000000000000e+00  -1.2164636158484574e-05 -1.0154384142963143e-05 0.0000000000000000e+00  -1.2037245310561068e-05 -5.2617241096418401e-06 0.0000000000000000e+00  -1.2002674096087224e-05 -2.5026740082268622e-07 0.0000000000000000e+00  -1.2002180433741605e-05 4.8452030330092912e-06 0.0000000000000000e+00  -1.1942062479409713e-05 1.0165965902679502e-05 0.0000000000000000e+00  -1.1689874357248645e-05 1.5668723273911181e-05 0.0000000000000000e+00  -1.1266477487665116e-05 2.1238466294559045e-05 0.0000000000000000e+00  -1.0595193727834243e-05 2.6679447483513589e-05 0.0000000000000000e+00  -9.5691430231819371e-06 3.1589388814889077e-05 0.0000000000000000e+00  -8.3231293648672476e-06 3.6334623223557608e-05 0.0000000000000000e+00  -7.0497147266258420e-06 4.0110628980326706e-05 0.0000000000000000e+00  -5.5535459291072516e-06 4.2770565329408610e-05 0.0000000000000000e+00  -3.9837220072239898e-06 4.5124179447362992e-05 0.0000000000000000e+00  -2.7048607695311210e-06 4.6173440748245592e-05 0.0000000000000000e+00  -1.3924335036630615e-06 4.6218504631968703e-05 0.0000000000000000e+00  -1.4079938744520583e-07 4.5971647384514632e-05 0.0000000000000000e+00  8.5231917538576768e-07 4.4848620272595461e-05 0.0000000000000000e+00  1.8049049717225117e-06 4.3194893415398601e-05 0.0000000000000000e+00  2.6779703399070178e-06 4.1420217925318985e-05 0.0000000000000000e+00  3.3996919498117809e-06 3.9182652616158975e-05 0.0000000000000000e+00  4.3284408079900141e-06 3.6520271088908872e-05 0.0000000000000000e+00  5.3427167609576168e-06 3.3787301816228382e-05 0.0000000000000000e+00  6.4260680282033784e-06 3.0475247432379201e-05 0.0000000000000000e+00  7.5469398723591838e-06 2.6797171402708817e-05 0.0000000000000000e+00  8.7744525583308533e-06 2.2464320020514121e-05 0.0000000000000000e+00  9.9790412553999994e-06 1.7289951011578566e-05 0.0000000000000000e+00  1.1300323113423977e-05 1.1576004530232645e-05 0.0000000000000000e+00  1.2470402302477775e-05 4.9653203290211962e-06 0.0000000000000000e+00  1.3545577371337802e-05 -2.2592205626562521e-06 0.0000000000000000e+00  1.4368986264409079e-05 -1.0105789443563909e-05 0.0000000000000000e+00  1.4801089039282499e-05 -1.8350215909149841e-05 0.0000000000000000e+00  1.4873835279235450e-05 -2.6854064719726673e-05 0.0000000000000000e+00  1.4632871083553702e-05 -3.5334548913697764e-05 0.0000000000000000e+00  1.3957825175732554e-05 -4.3680508371987900e-05 0.0000000000000000e+00  1.3063888654042918e-05 -5.1386712696452227e-05 0.0000000000000000e+00  1.1689131007829760e-05 -5.8442288031730655e-05 0.0000000000000000e+00  1.0366745623035054e-05 -6.4771284792595614e-05 0.0000000000000000e+00  8.8384302478532299e-06 -7.0041245121699227e-05 0.0000000000000000e+00  7.4044553785878330e-06 -7.4644514756684705e-05 0.0000000000000000e+00  5.9676805453726976e-06 -7.8251487827790594e-05 0.0000000000000000e+00  4.1820799117305971e-06 -8.1201125516779977e-05 0.0000000000000000e+00  2.7114722688817109e-06 -8.3222582994523788e-05 0.0000000000000000e+00  8.9781460083001386e-07 -8.4347810359633560e-05 0.0000000000000000e+00  -5.9356013005430775e-07 -8.4774751854180611e-05 0.0000000000000000e+00  -2.2977416876561966e-06 -8.4043657908815150e-05 0.0000000000000000e+00  -4.1225854190601248e-06 -8.3044434062213540e-05 0.0000000000000000e+00  -5.8747809850151890e-06 -8.0633814577892631e-05 0.0000000000000000e+00  -7.9983195165490529e-06 -7.7309272781324412e-05 0.0000000000000000e+00  -9.6648489465647098e-06 -7.2994974708654906e-05 0.0000000000000000e+00  -1.1288410152616420e-05 -6.7441319629017678e-05 0.0000000000000000e+00  -1.2540320669547328e-05 -6.1185845832566793e-05 0.0000000000000000e+00  -1.3413964701228145e-05 -5.4017865724280981e-05 0.0000000000000000e+00  -1.4015901301337604e-05 -4.6376769717032514e-05 0.0000000000000000e+00  -1.4002113883132287e-05 -3.8656338825153377e-05 0.0000000000000000e+00  -1.3409785820904277e-05 -3.0758321596583171e-05 0.0000000000000000e+00  -1.2332463693622295e-05 -2.3566730297122984e-05 0.0000000000000000e+00  -1.0498903168983954e-05 -1.6960189294397977e-05 0.0000000000000000e+00  -8.4520145390623332e-06 -1.1101156881144236e-05 0.0000000000000000e+00  -6.0431474461420052e-06 -6.5251827092159592e-06 0.0000000000000000e+00  -3.2094743309821298e-06 -3.4720773248313786e-06 0.0000000000000000e+00  -9.9382779063295038e-06 -8.7284771518817596e-05 0.0000000000000000e+00  5.7546180617877247e-06 -8.7623396551482987e-05 0.0000000000000000e+00  2.9732623435371394e-07 -4.6080686103054285e-06 0.0000000000000000e+00  -1.3005807374994077e-06 -7.4872966333083516e-06 0.0000000000000000e+00  -1.0617474635212993e-06 -3.6428848827137225e-05 0.0000000000000000e+00  7.8743978385240438e-07 -2.8394020166209722e-05 0.0000000000000000e+00  -1.3448098020959926e-06 2.3946520372953865e-05 0.0000000000000000e+00  -1.5978563019425304e-06 7.1680783190340006e-06 0.0000000000000000e+00  -1.1874649863912459e-06 -5.6145195461197207e-05 0.0000000000000000e+00  -2.1869802747532730e-06 -5.9402395440205651e-05 0.0000000000000000e+00  -4.7222195507222213e-07 -7.6055239548061701e-05 0.0000000000000000e+00  -4.4869358765504204e-07 -8.5571894831135023e-05 0.0000000000000000e+00  -8.9216210355645678e-07 3.8809354885579969e-05 0.0000000000000000e+00  -7.3277736892960909e-07 -7.7599138356466082e-05 0.0000000000000000e+00  -7.9522238391109258e-07 4.6561629061451709e-05 0.0000000000000000e+00  -9.6299151811814381e-07 -6.1885317785469402e-05 0.0000000000000000e+00  -9.4416472424487123e-07 -3.1224648505879068e-05 0.0000000000000000e+00  -1.0532537257141181e-06 4.6285040122600956e-05 0.0000000000000000e+00  -1.3332130343663374e-06 4.0878225517627485e-05 0.0000000000000000e+00  -9.1763022898514810e-07 -6.2270914497808914e-06 0.0000000000000000e+00  -8.4506532903034515e-07 1.5336072717504276e-05 0.0000000000000000e+00  -1.2122402182298676e-06 3.2564445835020989e-05 0.0000000000000000e+00  -4.1970420394304528e-07 -8.3050895836085908e-05 0.0000000000000000e+00  -9.7718338320504689e-07 -2.3451910847507867e-05 0.0000000000000000e+00  -8.0912446361162430e-07 2.4231835602296641e-05 0.0000000000000000e+00  -5.4315385272105695e-07 -8.2730362655084567e-05 0.0000000000000000e+00  -1.1923931959752644e-06 -4.5886963449432329e-05 0.0000000000000000e+00  -1.8728393243176378e-07 -4.2536156399630653e-05 0.0000000000000000e+00  -4.6169577998951765e-06 -7.3194320830620538e-05 0.0000000000000000e+00  1.4091462497181905e-06 -1.4609284921430481e-05 0.0000000000000000e+00  -1.8902000868377488e-06 4.3934199226983079e-05 0.0000000000000000e+00  2.9005127670425967e-07 4.3851876289363748e-05 0.0000000000000000e+00  8.1755116493304808e-07 3.2331500536384197e-05 0.0000000000000000e+00  2.5339475180090402e-06 -1.8185867895852533e-05 0.0000000000000000e+00  -7.8438607026514919e-07 4.7198719336681791e-05 0.0000000000000000e+00  8.4755180058389899e-07 1.5831769028417347e-05 0.0000000000000000e+00  -2.6116053439403841e-06 3.7219231174134649e-05 0.0000000000000000e+00  9.7759843900957647e-07 -1.9145847683560446e-07 0.0000000000000000e+00  2.1627141387174559e-06 5.6116215299548359e-06 0.0000000000000000e+00  1.3294056950129915e-06 -7.1064096274223032e-05 0.0000000000000000e+00  -2.7281203682505798e-06 -6.8336162744973955e-05 0.0000000000000000e+00  -4.4809130100270476e-06 -4.7162735021616502e-05 0.0000000000000000e+00  -4.4593609479288215e-06 -1.4809092584188783e-05 0.0000000000000000e+00  2.1677110595788263e-07 -8.5355267230661711e-05 0.0000000000000000e+00  3.2159077476370618e-06 -1.2677800215884343e-05 0.0000000000000000e+00  -8.5784796795908969e-07 -8.5491012884929220e-05 0.0000000000000000e+00  -5.5568248164307206e-06 -2.4206858825018130e-06 0.0000000000000000e+00  -5.3729059093027431e-06 1.3370685188022996e-05 0.0000000000000000e+00  -4.3578514378111426e-06 3.0073135598581305e-05 0.0000000000000000e+00  4.4793277251901624e-06 -5.0736635586060104e-05 0.0000000000000000e+00  3.8198350625135524e-06 -6.5503973020124447e-05 0.0000000000000000e+00  -1.2405078850161425e-06 4.7127496380900858e-05 0.0000000000000000e+00  -2.7144248808224176e-06 4.2607956247362883e-05 0.0000000000000000e+00  -6.7541772905850686e-06 -2.1958878226230673e-05 0.0000000000000000e+00  -4.3467845423178962e-06 -7.3107676817663400e-05 0.0000000000000000e+00  -7.4601483105430455e-08 4.3011303868538905e-05 0.0000000000000000e+00  7.6299865697977702e-07 3.8305379300393177e-05 0.0000000000000000e+00  -5.9807144467227862e-06 2.4018944004454299e-06 0.0000000000000000e+00  -1.2481298788384338e-06 -2.4292692592042871e-06 0.0000000000000000e+00  9.7214417329597938e-07 -1.9726088139284723e-06 0.0000000000000000e+00  -4.1969955033092535e-06 2.9707848029670580e-05 0.0000000000000000e+00  3.9813866294158155e-06 -5.6309807742402518e-05 0.0000000000000000e+00  5.4044151496704658e-07 -8.4718462561016601e-05 0.0000000000000000e+00  -5.2661882320145488e-06 -3.4694487189597750e-05 0.0000000000000000e+00  -5.3545328812855521e-06 -5.0953665028198070e-05 0.0000000000000000e+00  -5.0428120084036550e-06 2.0725555034664502e-05 0.0000000000000000e+00  1.5354229482739143e-06 -8.0917009172977060e-05 0.0000000000000000e+00  4.8915034536165885e-06 -4.0169659857140297e-05 0.0000000000000000e+00  -2.8296209425785145e-06 -8.0777444171453228e-05 0.0000000000000000e+00  3.9946334485663170e-06 -2.8152174139941308e-05 0.0000000000000000e+00  -6.1132636251947685e-06 -2.8602243959205114e-05 0.0000000000000000e+00  2.0879724199518412e-06 -8.0472795075171510e-05 0.0000000000000000e+00  -4.5599860634620831e-06 -1.9052359215018977e-05 0.0000000000000000e+00  5.6061843912749753e-06 -6.7066602002803779e-05 0.0000000000000000e+00  2.5221060368650483e-06 2.9543059181062765e-05 0.0000000000000000e+00  3.4049359751082258e-06 2.0515154273633012e-05 0.0000000000000000e+00  -1.5518791677163796e-06 -8.4657539884037174e-05 0.0000000000000000e+00  5.9676916689596327e-06 -3.4029993293559399e-05 0.0000000000000000e+00  5.8642028213676933e-06 -5.1189372445903492e-05 0.0000000000000000e+00  -6.8635445338730810e-06 -5.6012797196694669e-05 0.0000000000000000e+00  -3.4267266066389351e-06 -8.0746805765581308e-05 0.0000000000000000e+00  -8.6180167777617728e-06 -4.0437236043684374e-05 0.0000000000000000e+00  -3.1940445304005447e-06 -1.1120668327281218e-05 0.0000000000000000e+00  4.3324124897237762e-06 -7.8550909473960889e-05 0.0000000000000000e+00  -6.0638318157017915e-06 3.5233017806435599e-06 0.0000000000000000e+00  -5.6027226531260483e-06 1.9975507683854684e-05 0.0000000000000000e+00  3.7033189976895657e-06 -7.2320648670355506e-05 0.0000000000000000e+00  -4.2112163915465881e-06 3.5700675214760007e-05 0.0000000000000000e+00  5.1494653947393802e-06 -4.1618886396740878e-05 0.0000000000000000e+00  -2.3941478779227602e-06 4.5305339807355100e-05 0.0000000000000000e+00  -8.8461769012131786e-07 4.6771760682860170e-05 0.0000000000000000e+00  -5.5027380839714511e-06 -6.7007840588136604e-05 0.0000000000000000e+00  -2.3016606144100366e-07 4.5018838051203407e-05 0.0000000000000000e+00  -7.3108916791105799e-06 -1.1982323639027398e-05 0.0000000000000000e+00  1.4532957450708690e-06 3.5079759923214146e-05 0.0000000000000000e+00  -6.2111882048924770e-06 1.0392402669960067e-05 0.0000000000000000e+00  -8.3355916238304591e-06 -6.5565817291372220e-05 0.0000000000000000e+00  4.2741388033553241e-06 -1.8697060156639233e-05 0.0000000000000000e+00  -1.8269765252741188e-06 -8.4396437563051584e-05 0.0000000000000000e+00  5.3730143622324735e-06 -2.0291503422174406e-05 0.0000000000000000e+00  3.1307681266956541e-06 -9.1970770181745293e-06 0.0000000000000000e+00  -3.0841304231143852e-06 4.1965617927764006e-05 0.0000000000000000e+00  4.6734380399463726e-06 1.1727780013929376e-05 0.0000000000000000e+00  -1.3621948155545654e-06 4.6621948448436101e-05 0.0000000000000000e+00  3.1399733576332205e-06 2.1259672450685238e-05 0.0000000000000000e+00  7.2605570207575879e-07 4.5740401607862355e-05 0.0000000000000000e+00  2.4168382096016859e-06 3.6752243649598771e-05 0.0000000000000000e+00  4.8874135199689866e-06 -9.6939479518177981e-06 0.0000000000000000e+00  -4.1830722393212377e-06 3.4489376880820072e-05 0.0000000000000000e+00  4.0164690530740729e-06 -6.5800913409528379e-05 0.0000000000000000e+00  6.2069885934311631e-06 -2.6593698414057867e-05 0.0000000000000000e+00  3.6825271116422514e-06 -4.9274254492811827e-06 0.0000000000000000e+00  2.9565550888027953e-06 -7.5301457099881684e-05 0.0000000000000000e+00  2.5702240265679200e-06 4.9069436104849458e-06 0.0000000000000000e+00  -4.4470801481538844e-06 -7.3413308228921062e-05 0.0000000000000000e+00  -5.7804442441648476e-06 -6.1957770353601456e-05 0.0000000000000000e+00  -8.0850618091833493e-06 -5.4262571980973622e-05 0.0000000000000000e+00  -7.6399654311257151e-06 -3.9867228706310566e-05 0.0000000000000000e+00  2.1157048101384473e-06 2.6806693767092220e-05 0.0000000000000000e+00  1.3932114633873808e-06 4.0689398756625805e-05 0.0000000000000000e+00  -1.8203208578016075e-06 4.5538890318085528e-05 0.0000000000000000e+00  2.4777209985546966e-06 1.0134847187327396e-05 0.0000000000000000e+00  -1.0949650893642157e-07 4.6945955689654176e-05 0.0000000000000000e+00  -3.1226817532400643e-06 3.9710659968256244e-05 0.0000000000000000e+00  4.5802033515504966e-06 -1.8867453952416065e-06 0.0000000000000000e+00  1.3466805806824852e-06 -8.3993815571922138e-05 0.0000000000000000e+00  -6.7216972336058166e-06 -1.9921372887586298e-05 0.0000000000000000e+00  -6.3207364332608716e-06 -1.0139793981351663e-05 0.0000000000000000e+00  -2.0761087153907824e-07 -8.5568600009941896e-05 0.0000000000000000e+00  3.5275696867652427e-07 4.0831759815669667e-05 0.0000000000000000e+00  6.2278050535816492e-08 -8.54583