<?xml version="1.0"?>
<VTKFile type="UnstructuredGrid"  version="0.1"  >
<UnstructuredGrid>
<Piece  NumberOfPoints="439" NumberOfCells="725">
<Points>
<DataArray  type="Float64"  NumberOfComponents="3"  format="ascii">0.6 0.19 0  0.6 0.21 0  0.2489897949 0.21 0  0.2489897949 0.19 0  0.6 0.2 0  0.2496355385699469 0.2060260530378829 0  0.249959460510575 0.2020130349814059 0  0.2499594605105767 0.1979869650186357 0  0.24963553856995 0.1939739469621422 0  0.2539336006056293 0.21 0  0.2588774063112542 0.21 0  0.2638212120168921 0.21 0  0.26876501772253 0.21 0  0.2737088234281569 0.21 0  0.2786526291337753 0.21 0  0.2835964348393937 0.21 0  0.2885402405450166 0.21 0  0.2934840462506522 0.21 0  0.2984278519562708 0.21 0  0.3033716576618997 0.21 0  0.3083154633675181 0.21 0  0.3132592690731365 0.21 0  0.3182030747787549 0.21 0  0.3231468804843732 0.21 0  0.3280906861899917 0.21 0  0.3330344918956208 0.21 0  0.3379782976012284 0.21 0  0.3429221033068576 0.21 0  0.347865909012476 0.21 0  0.3528097147180944 0.21 0  0.3577535204237128 0.21 0  0.3626973261293311 0.21 0  0.3676411318349495 0.21 0  0.3725849375405788 0.21 0  0.3775287432461877 0.21 0  0.382472548951812 0.21 0  0.3874163546574338 0.21 0  0.3923601603630631 0.21 0  0.3973039660686706 0.21 0  0.4022477717742986 0.21 0  0.4071915774799107 0.21 0  0.4121353831855311 0.21 0  0.4170791888911518 0.21 0  0.4220229945967636 0.21 0  0.4269668003023918 0.21 0  0.4319106060080253 0.21 0  0.4368544117136773 0.21 0  0.4417982174193329 0.21 0  0.4467420231249967 0.21 0  0.4516858288306445 0.21 0  0.4566296345362864 0.21 0  0.461573440241916 0.21 0  0.4665172459475665 0.21 0  0.4714610516531998 0.21 0  0.4764048573588668 0.21 0  0.4813486630645134 0.21 0  0.486292468770176 0.21 0  0.4912362744758066 0.21 0  0.4961800801814611 0.21 0  0.5011238858870897 0.21 0  0.5060676915927493 0.21 0  0.5110114972983872 0.21 0  0.5159553030040036 0.21 0  0.5208991087096415 0.21 0  0.5258429144153002 0.21 0  0.5307867201209391 0.21 0  0.5357305258265987 0.21 0  0.5406743315322367 0.21 0  0.5456181372378529 0.21 0  0.5505619429434908 0.21 0  0.5555057486491456 0.21 0  0.5604495543547885 0.21 0  0.565393360060448 0.21 0  0.5703371657661116 0.21 0  0.5752809714717458 0.21 0  0.5802247771773834 0.21 0  0.5851685828830341 0.21 0  0.5901123885886809 0.21 0  0.5950561942943404 0.21 0  0.5950561942943833 0.19 0  0.590112388588758 0.19 0  0.5851685828831193 0.19 0  0.5802247771774727 0.19 0  0.5752809714718514 0.19 0  0.5703371657662308 0.19 0  0.565393360060618 0.19 0  0.5604495543549889 0.19 0  0.5555057486493581 0.19 0  0.5505619429437035 0.19 0  0.5456181372381043 0.19 0  0.540674331532505 0.19 0  0.5357305258268962 0.19 0  0.530786720121263 0.19 0  0.5258429144156628 0.19 0  0.5208991087100244 0.19 0  0.5159553030044218 0.19 0  0.5110114972988226 0.19 0  0.5060676915932177 0.19 0  0.5011238858875806 0.19 0  0.496180080181972 0.19 0  0.4912362744763531 0.19 0  0.4862924687707343 0.19 0  0.4813486630651046 0.19 0  0.4764048573594966 0.19 0  0.4714610516538683 0.19 0  0.4665172459482555 0.19 0  0.4615734402426349 0.19 0  0.4566296345370104 0.19 0  0.4516858288313808 0.19 0  0.4467420231257716 0.19 0  0.4417982174201465 0.19 0  0.4368544117145297 0.19 0  0.4319106060089131 0.19 0  0.4269668003032866 0.19 0  0.4220229945976482 0.19 0  0.4170791888920056 0.19 0  0.4121353831863594 0.19 0  0.4071915774806995 0.19 0  0.4022477717750478 0.19 0  0.3973039660693901 0.19 0  0.3923601603637548 0.19 0  0.3874163546581082 0.19 0  0.3824725489524824 0.19 0  0.3775287432468258 0.19 0  0.3725849375411773 0.19 0  0.3676411318355085 0.19 0  0.3626973261298614 0.19 0  0.3577535204242108 0.19 0  0.352809714718589 0.19 0  0.347865909012931 0.19 0  0.342922103307292 0.19 0  0.3379782976016536 0.19 0  0.3330344918960152 0.19 0  0.3280906861903751 0.19 0  0.3231468804847171 0.19 0  0.3182030747790592 0.19 0  0.3132592690734012 0.19 0  0.3083154633677581 0.19 0  0.3033716576621197 0.19 0  0.2984278519564813 0.19 0  0.2934840462508429 0.19 0  0.2885402405451874 0.19 0  0.2835964348395295 0.19 0  0.2786526291338716 0.19 0  0.2737088234282243 0.19 0  0.268765017722586 0.19 0  0.2638212120169476 0.19 0  0.2588774063113093 0.19 0  0.2539336006056579 0.19 0  0.6 0.1949999999999783 0  0.6 0.2049999999999729 0  0.2589734265316493 0.2005523893428403 0  0.5431462343853077 0.199999999999969 0  0.5682397894768162 0.1999704585808987 0  0.2774513927118024 0.2007941919421926 0  0.513849583376897 0.1999023426490919 0  0.5286810004937381 0.1999023426490969 0  0.2945108952057646 0.1992911908405386 0  0.5827780831384927 0.1995429801003349 0  0.3104128396569256 0.1999704585808978 0  0.3370001755418551 0.2008294612433967 0  0.4990181662600459 0.1999023426490902 0  0.3552816175709044 0.2000000000000608 0  0.4841867491431925 0.1999023426490849 0  0.3707373713905551 0.2000142376953689 0  0.3898882575102495 0.2000000000000828 0  0.4689857550492734 0.1995416724256694 0  0.4541577316841967 0.1999999999999098 0  0.4043534914018331 0.2000976573509244 0  0.4195510917439569 0.2000000000001057 0  0.4387019778644512 0.1999857623046772 0  0.3202472750256703 0.2000088842146399 0  0.5584053541080851 0.1999911157853577 0  0.4280667146887134 0.1998489048208241 0  0.3467659946265474 0.2001510951794375 0  0.3813726345658908 0.200151095179452 0  0.2860683376922098 0.2000415445706182 0  0.5911223811781194 0.1982449159348744 0  0.2679893161458627 0.201675125646729 0  0.4615734402426278 0.2022503633288003 0  0.4912362744763454 0.2022503633288091 0  0.5060676915931983 0.2022503633288118 0  0.3973039660686774 0.1977496366711965 0  0.4764048573594896 0.2022503633288051 0  0.5208991087100455 0.2022503633288184 0  0.4467420231257656 0.2022503633288 0  0.5357305258268849 0.2022503633288198 0  0.4121353831855317 0.1977496366711976 0  0.3626973261293352 0.1977496366711919 0  0.3033716576618961 0.1977496366711869 0  0.5752809714718229 0.1977496366711503 0  0.550459855919056 0.1971284784737667 0  0.3281927732146841 0.2028715215262406 0  0.5484179020497461 0.2038403215694763 0  0.3302347270839988 0.1961596784305491 0  0.5379210852238114 0.196125181664411 0  0.5230896681069652 0.1961251816644058 0  0.5082582509901222 0.1961251816644098 0  0.5774715308687094 0.2038748183355887 0  0.3011810982649548 0.2038748183355937 0  0.4785954167564111 0.196125181664404 0  0.4934268338732671 0.1961251816644063 0  0.395113406671763 0.2038748183355966 0  0.3605067667324117 0.2038748183355951 0  0.4593828808457146 0.1961251816643993 0  0.4489325825226805 0.1961251816644007 0  0.4099448237886219 0.2038748183355991 0  0.2557862999801971 0.1960858370257295 0  0.2550147360309399 0.2034426429991114 0  0.4348031476464689 0.2037737577641554 0  0.37463620160841 0.1962262422358553 0  0.3406258365864304 0.196046792193989 0  0.2813001681189834 0.1960467921940502 0  0.2912686387439893 0.1960816328649282 0  0.4246705335819892 0.2039532078059544 0  0.350162175732913 0.1960467921941878 0  0.3847688156722694 0.1960467921942359 0  0.316632368538356 0.19615945856337 0  0.5621550011053409 0.2037816492598991 0  0.5624413877019769 0.1960761923611377 0  0.3162395035833128 0.2038679557424692 0  0.2710887134207622 0.1959696443325838 0  0.5873014376403604 0.2047227881030823 0  0.4346679566442709 0.1954651459552513 0  0.4243296504077986 0.1958756980939062 0  0.3402559510833523 0.2047940500290923 0  0.2808684926760933 0.2047742417812656 0  0.2914077033138723 0.2047809517070955 0  0.3747713926104932 0.2045348540448554 0  0.3499216488898867 0.2051753413186305 0  0.3845282888292298 0.205175341318636 0  0.2648144865455052 0.1962089742986374 0  0.5943247643662894 0.2040415423589182 0  0.5320972610456145 0.1956445099050872 0  0.5172658439287727 0.1956445099050854 0  0.3069923255602658 0.2043468033872551 0  0.5024344268119265 0.1956445099050864 0  0.5716603035734351 0.2043468033872761 0  0.4876030096950741 0.1956445099050831 0  0.4728151975296263 0.1956402468909894 0  0.3663301776527538 0.20436745486386 0  0.4651631000724991 0.1956402468909893 0  0.4009372308499527 0.2043554900949198 0  0.4431091716023345 0.1956325451361429 0  0.4157593408842466 0.2043565497109067 0  0.5865057328865416 0.1956918868509067 0  0.5541600609760193 0.2044335994013721 0  0.3244925681577497 0.1955664005986376 0  0.272008018888917 0.2049327968152409 0  0.2633407725863902 0.2042483236346266 0  0.4567948413982566 0.2046536472831198 0  0.4167680012832803 0.1955060004091903 0  0.4716262585151221 0.2046536472831242 0  0.5161054367030595 0.2045563706470633 0  0.4864426024693469 0.2045563706470604 0  0.5012740195862044 0.2045563706470634 0  0.4022810343427545 0.1961423961483001 0  0.4420739040821668 0.2044853411424516 0  0.3673807293464664 0.1955677741328205 0  0.3925253672243162 0.195346352716901 0  0.5405091246712254 0.2046536472831267 0  0.357918727284983 0.1953463527168901 0  0.5307534575528717 0.2038576038516682 0  0.3079697655029555 0.1955637092892754 0  0.2985930588175599 0.1953463527168728 0  0.579671714346879 0.1955441268455555 0  0.5705023726275059 0.1953463527168462 0  0.5112451461103119 0.2035640580783926 0  0.4964137289934448 0.2035640580783915 0  0.4665727251511405 0.2038238154617746 0  0.5259274680675793 0.2038006696000127 0  0.4815823118765752 0.2035640580783898 0  0.4517504165552094 0.2039070625502732 0  0.4071070238280551 0.1961993303999926 0  0.3234846806957546 0.2047001437739977 0  0.5551679484379799 0.1952998562260008 0  0.5457754356464107 0.1954447171286166 0  0.3329307555206357 0.2046017509710421 0  0.4541577316841968 0.1960357661898101 0  0.3358300776141575 0.1950765652117375 0  0.2539718587514912 0.200011552766824 0  0.5826472073721517 0.2039971170156656 0  0.2761021761080182 0.1946948236183283 0  0.3898581462796225 0.2041572776584344 0  0.3552515063402743 0.2041572776584256 0  0.2965028074750666 0.2046578268138723 0  0.4299158836614793 0.1951782397873778 0  0.379426563923736 0.2049969334481307 0  0.2860882692072842 0.2042624797643994 0  0.3449948044168807 0.2051793676155613 0  0.2603922435707652 0.1950997711614917 0  0.5949856943860
[...]
<PointData  Vectors="f_18-1"> 
<DataArray  type="Float64"  Name="f_18-1"  NumberOfComponents="3" format="ascii">-6.0967742981404686e-05 -3.8282562630884360e-03 0.0000000000000000e+00  1.3003005163712503e-05 -3.8284381469195889e-03 0.0000000000000000e+00  0.0000000000000000e+00 0.0000000000000000e+00 0.0000000000000000e+00  0.0000000000000000e+00 0.0000000000000000e+00 0.0000000000000000e+00  -2.3992777493148527e-05 -3.8283575892746015e-03 0.0000000000000000e+00  0.0000000000000000e+00 0.0000000000000000e+00 0.0000000000000000e+00  0.0000000000000000e+00 0.0000000000000000e+00 0.0000000000000000e+00  0.0000000000000000e+00 0.0000000000000000e+00 0.0000000000000000e+00  0.0000000000000000e+00 0.0000000000000000e+00 0.0000000000000000e+00  1.6590435752534088e-05 -1.5312906371533557e-05 0.0000000000000000e+00  3.3703743671577992e-05 -3.1640075507787457e-05 0.0000000000000000e+00  5.0149590261760399e-05 -5.1985200129427107e-05 0.0000000000000000e+00  6.5073921621381186e-05 -8.3901046737916917e-05 0.0000000000000000e+00  7.8483762997026780e-05 -1.2149857072077055e-04 0.0000000000000000e+00  9.1783138411614552e-05 -1.6726744148739728e-04 0.0000000000000000e+00  1.0319672319464889e-04 -2.1666818335108509e-04 0.0000000000000000e+00  1.1285442752665882e-04 -2.7275449112946587e-04 0.0000000000000000e+00  1.2202660907365115e-04 -3.3365235026616344e-04 0.0000000000000000e+00  1.2998995452010470e-04 -3.9903700292743790e-04 0.0000000000000000e+00  1.3781725280004106e-04 -4.6988630196083051e-04 0.0000000000000000e+00  1.4511075756397346e-04 -5.4140583850111415e-04 0.0000000000000000e+00  1.5051906847873744e-04 -6.1852462984598219e-04 0.0000000000000000e+00  1.5649531991175227e-04 -6.9804168812224923e-04 0.0000000000000000e+00  1.6058744202425215e-04 -7.7983550697779307e-04 0.0000000000000000e+00  1.6436001743413522e-04 -8.6433605814606202e-04 0.0000000000000000e+00  1.6731034201230180e-04 -9.5031864607715490e-04 0.0000000000000000e+00  1.6954228152035492e-04 -1.0385025117374499e-03 0.0000000000000000e+00  1.7104309591499221e-04 -1.1271867703872456e-03 0.0000000000000000e+00  1.7198242166335939e-04 -1.2171772882005965e-03 0.0000000000000000e+00  1.7233520588882739e-04 -1.3078374208443906e-03 0.0000000000000000e+00  1.7214878494974076e-04 -1.3987872653820187e-03 0.0000000000000000e+00  1.7140740649368094e-04 -1.4899485849715710e-03 0.0000000000000000e+00  1.7026669008936112e-04 -1.5809474014025790e-03 0.0000000000000000e+00  1.6857502664616980e-04 -1.6716936819200408e-03 0.0000000000000000e+00  1.6656885210108045e-04 -1.7618286963076877e-03 0.0000000000000000e+00  1.6406930069918601e-04 -1.8511258361204013e-03 0.0000000000000000e+00  1.6125247012885717e-04 -1.9395461094360027e-03 0.0000000000000000e+00  1.5824216805789001e-04 -2.0267364133350931e-03 0.0000000000000000e+00  1.5453741023064256e-04 -2.1118314636316246e-03 0.0000000000000000e+00  1.5051836690796949e-04 -2.1965995487588878e-03 0.0000000000000000e+00  1.4664222056685739e-04 -2.2789646005314233e-03 0.0000000000000000e+00  1.4218304645860814e-04 -2.3589622877263306e-03 0.0000000000000000e+00  1.3746200136653314e-04 -2.4383083360326281e-03 0.0000000000000000e+00  1.3290603219740958e-04 -2.5145362069157822e-03 0.0000000000000000e+00  1.2740862058929260e-04 -2.5891090443183971e-03 0.0000000000000000e+00  1.2243658122827118e-04 -2.6610264694942412e-03 0.0000000000000000e+00  1.1637100266734263e-04 -2.7302201721417074e-03 0.0000000000000000e+00  1.1101613346025609e-04 -2.7972348357394737e-03 0.0000000000000000e+00  1.0563677777350878e-04 -2.8611012459078622e-03 0.0000000000000000e+00  9.9857367891123262e-05 -2.9226033662989584e-03 0.0000000000000000e+00  9.3824346157407414e-05 -2.9812482297892932e-03 0.0000000000000000e+00  8.8468271729601718e-05 -3.0370481876402437e-03 0.0000000000000000e+00  8.2716850796025129e-05 -3.0903877927842874e-03 0.0000000000000000e+00  7.6859592613381019e-05 -3.1408110656190673e-03 0.0000000000000000e+00  7.1699527212039114e-05 -3.1884676177855566e-03 0.0000000000000000e+00  6.6317184296959999e-05 -3.2337360773120162e-03 0.0000000000000000e+00  6.0867544786605454e-05 -3.2761896644448217e-03 0.0000000000000000e+00  5.6098108815185043e-05 -3.3161426991817106e-03 0.0000000000000000e+00  5.1198353320343889e-05 -3.3538431433401757e-03 0.0000000000000000e+00  4.6329500741482292e-05 -3.3889697750708880e-03 0.0000000000000000e+00  4.2159487890470118e-05 -3.4218092402249871e-03 0.0000000000000000e+00  3.8001249988863897e-05 -3.4527221146919912e-03 0.0000000000000000e+00  3.4036467079861249e-05 -3.4814627216790670e-03 0.0000000000000000e+00  3.0769616823362003e-05 -3.5083912057499267e-03 0.0000000000000000e+00  2.7562190351580945e-05 -3.5338400575266726e-03 0.0000000000000000e+00  2.4671928735330799e-05 -3.5577258355893940e-03 0.0000000000000000e+00  2.2274293887199018e-05 -3.5803801469674579e-03 0.0000000000000000e+00  2.0334778275112581e-05 -3.6021195895338067e-03 0.0000000000000000e+00  1.8796968998335104e-05 -3.6228263899830116e-03 0.0000000000000000e+00  1.7450249115606552e-05 -3.6427340407515709e-03 0.0000000000000000e+00  1.6235722064182093e-05 -3.6625195904651693e-03 0.0000000000000000e+00  1.5394383720108106e-05 -3.6815345512204779e-03 0.0000000000000000e+00  1.4594040522876603e-05 -3.7003021566704214e-03 0.0000000000000000e+00  1.4075527252013560e-05 -3.7188633782826723e-03 0.0000000000000000e+00  1.3711093791489442e-05 -3.7371796589617005e-03 0.0000000000000000e+00  1.3425062626769198e-05 -3.7555001837789323e-03 0.0000000000000000e+00  1.3257967434254240e-05 -3.7737396674979006e-03 0.0000000000000000e+00  1.3136164270596401e-05 -3.7919363550200200e-03 0.0000000000000000e+00  1.3050457343513990e-05 -3.8101868278202227e-03 0.0000000000000000e+00  -6.0938933842634858e-05 -3.8099953752254224e-03 0.0000000000000000e+00  -6.0941536690339622e-05 -3.7917312002528946e-03 0.0000000000000000e+00  -6.0972500550399982e-05 -3.7734902021520941e-03 0.0000000000000000e+00  -6.1085700666956165e-05 -3.7552391381691342e-03 0.0000000000000000e+00  -6.1287662325339130e-05 -3.7369247039605847e-03 0.0000000000000000e+00  -6.1593242318603827e-05 -3.7185860150519439e-03 0.0000000000000000e+00  -6.2081689999756364e-05 -3.7000324697676612e-03 0.0000000000000000e+00  -6.2842217637258088e-05 -3.6812499762371308e-03 0.0000000000000000e+00  -6.3683808412050457e-05 -3.6622405589031223e-03 0.0000000000000000e+00  -6.4856044851184646e-05 -3.6426349718053207e-03 0.0000000000000000e+00  -6.6270443697653773e-05 -3.6226823668831210e-03 0.0000000000000000e+00  -6.7825183834373297e-05 -3.6018350052624245e-03 0.0000000000000000e+00  -6.9875551078611202e-05 -3.5798372334857145e-03 0.0000000000000000e+00  -7.2273541386400707e-05 -3.5575757805872219e-03 0.0000000000000000e+00  -7.4769953172601397e-05 -3.5335985202165814e-03 0.0000000000000000e+00  -7.7934965739240547e-05 -3.5076949624024151e-03 0.0000000000000000e+00  -8.1473649499465669e-05 -3.4813093779884658e-03 0.0000000000000000e+00  -8.4878407172850405e-05 -3.4523510186553544e-03 0.0000000000000000e+00  -8.9010323931894143e-05 -3.4208539683229155e-03 0.0000000000000000e+00  -9.3502059659299650e-05 -3.3887172469883636e-03 0.0000000000000000e+00  -9.7608282017715731e-05 -3.3532967247423516e-03 0.0000000000000000e+00  -1.0240405910811741e-04 -3.3148958154801001e-03 0.0000000000000000e+00  -1.0750238861892739e-04 -3.2757656132131416e-03 0.0000000000000000e+00  -1.1198756025429898e-04 -3.2329336501914093e-03 0.0000000000000000e+00  -1.1712566980118507e-04 -3.1868720559551315e-03 0.0000000000000000e+00  -1.2249385806678128e-04 -3.1397394169655635e-03 0.0000000000000000e+00  -1.2748552274382058e-04 -3.0891903175698904e-03 0.0000000000000000e+00  -1.3292298951363577e-04 -3.0351155683494874e-03 0.0000000000000000e+00  -1.3827393250817523e-04 -2.9802373788038036e-03 0.0000000000000000e+00  -1.4270913447132248e-04 -2.9214464079575400e-03 0.0000000000000000e+00  -1.4800883869047724e-04 -2.8588367595203256e-03 0.0000000000000000e+00  -1.5338905002646624e-04 -2.7954662995053848e-03 0.0000000000000000e+00  -1.5820528763296209e-04 -2.7280457863895851e-03 0.0000000000000000e+00  -1.6255734731640621e-04 -2.6589114010752216e-03 0.0000000000000000e+00  -1.6674467183778950e-04 -2.5869338371391866e-03 0.0000000000000000e+00  -1.7045997593360593e-04 -2.5120525855842728e-03 0.0000000000000000e+00  -1.7440977799454405e-04 -2.4356388279100647e-03 0.0000000000000000e+00  -1.7782322870955747e-04 -2.3567193964375102e-03 0.0000000000000000e+00  -1.8119178085629500e-04 -2.2760482582855220e-03 0.0000000000000000e+00  -1.8428680398164117e-04 -2.1934148559592808e-03 0.0000000000000000e+00  -1.8685745046104552e-04 -2.1090438703910805e-03 0.0000000000000000e+00  -1.8878639423741859e-04 -2.0233734211542258e-03 0.0000000000000000e+00  -1.9037419488538094e-04 -1.9361624281169264e-03 0.0000000000000000e+00  -1.9208435404583624e-04 -1.8479080612246023e-03 0.0000000000000000e+00  -1.9292390747538917e-04 -1.7586083538186563e-03 0.0000000000000000e+00  -1.9351216024880106e-04 -1.6683126136101002e-03 0.0000000000000000e+00  -1.9348832263447354e-04 -1.5776027650575878e-03 0.0000000000000000e+00  -1.9306087549897364e-04 -1.4866187465806876e-03 0.0000000000000000e+00  -1.9210649415725192e-04 -1.3954744483570130e-03 0.0000000000000000e+00  -1.9070119292136662e-04 -1.3045121412417592e-03 0.0000000000000000e+00  -1.8862201772940307e-04 -1.2137214291454168e-03 0.0000000000000000e+00  -1.8620798390437315e-04 -1.1238469488244740e-03 0.0000000000000000e+00  -1.8273664681906743e-04 -1.0348924073306526e-03 0.0000000000000000e+00  -1.7930916734852377e-04 -9.4718250203469059e-04 0.0000000000000000e+00  -1.7496023205098595e-04 -8.6179049994710149e-04 0.0000000000000000e+00  -1.6999983618049339e-04 -7.7704732645190880e-04 0.0000000000000000e+00  -1.6465091867283010e-04 -6.9533516294779799e-04 0.0000000000000000e+00  -1.5745090403422436e-04 -6.1599164233412250e-04 0.0000000000000000e+00  -1.5082942305037598e-04 -5.3936864684664637e-04 0.0000000000000000e+00  -1.4302318858690457e-04 -4.6702909692964193e-04 0.0000000000000000e+00  -1.3487746506470356e-04 -3.9730301876854759e-04 0.0000000000000000e+00  -1.2604271227559691e-04 -3.3244439482241423e-04 0.0000000000000000e+00  -1.1489411563389679e-04 -2.7104653450087259e-04 0.0000000000000000e+00  -1.0481987919995824e-04 -2.1526107900356284e-04 0.0000000000000000e+00  -9.1697371906036742e-05 -1.6458039847330895e-04 0.0000000000000000e+00  -7.9292864225285369e-05 -1.2141449072982419e-04 0.0000000000000000e+00  -6.3836431613093888e-05 -8.4461868910664113e-05 0.0000000000000000e+00  -4.9076051240585148e-05 -5.2766541962561454e-05 0.0000000000000000e+00  -3.3641719326341132e-05 -2.9618840273883107e-05 0.0000000000000000e+00  -1.7131787144596224e-05 -1.6290724475477980e-05 0.0000000000000000e+00  -4.2493918119323014e-05 -3.8283014840577645e-03 0.0000000000000000e+00  -5.4801621102857962e-06 -3.8284045635611870e-03 0.0000000000000000e+00  2.0105218129506280e-06 -1.8122154593291436e-05 0.0000000000000000e+00  -2.3619367659545297e-05 -3.6135291933580135e-03 0.0000000000000000e+00  -2.3867162653634793e-05 -3.7112128247035543e-03 0.0000000000000000e+00  5.9628416275684161e-06 -1.4543428009682014e-04 0.0000000000000000e+00  -2.4102212922850643e-05 -3.4717819617904248e-03 0.0000000000000000e+00  -2.4142592982180960e-05 -3.5494115044940023e-03 0.0000000000000000e+00  -1.0204088500206938e-05 -3.3944936285852569e-04 0.0000000000000000e+00  -2.5553141745172461e-05 -3.7648893842869699e-03 0.0000000000000000e+00  -3.2899652212048793e-06 -5.6812735693089486e-04 0.0000000000000000e+00  7.7752213523691658e-06 -1.0173463941873554e-03 0.0000000000000000e+00  -2.4056907163571704e-05 -3.3770977260605423e-03 0.0000000000000000e+00  -9.4618456936286800e-06 -1.3511627178360874e-03 0.0000000000000000e+00  -2.3896238490166261e-05 -3.2614641351300369e-03 0.0000000000000000e+00  -1.1766881116515908e-05 -1.6368170820388825e-03 0.0000000000000000e+00  -1.5074490328966787e-05 -1.9831360186700056e-03 0.0000000000000000e+00  -2.7233047789081088e-05 -3.1191094606036725e-03 0.0000000000000000e+00  -2.1894882501314366e-05 -2.9549550063844490e-03 0.0000000000000000e+00  -1.5481604407211830e-05 -2.2327030146194731e-03 0.0000000000000000e+00  -1.8893410069600655e-05 -2.4784897076052070e-03 0.0000000000000000e+00  -2.0976262213130031e-05 -2.7584897732403639e-03 0.0000000000000000e+00  -3.9909955459267741e-06 -7.2645630325756739e-04 0.0000000000000000e+00  -2.3775396040890294e-05 -3.6742446850231100e-03 0.0000000000000000e+00  -2.2186819904835778e-05 -2.6073138020515493e-03 0.0000000000000000e+00  -5.4980108088775506e-06 -1.1943893212915083e-03 0.0000000000000000e+00  -1.1029072611954798e-05 -1.8310259467981028e-03 0.0000000000000000e+00  -9.5364328497388318e-07 -2.3764540916904091e-04 0.0000000000000000e+00  -3.0418762431289922e-05 -3.7955919115659200e-03 0.0000000000000000e+00  9.4991503713693480e-06 -6.8556587396493044e-05 0.0000000000000000e+00  2.5808754969426818e-06 -3.0400642333808037e-03 0.0000000000000000e+00  -5.3376306031093703e-06 -3.3189417856639976e-03 0.0000000000000000e+00  -8.5955842048361725e-06 -3.4242942020933620e-03 0.0000000000000000e+00  -5.4377044245707126e-05 -2.1121991932681614e-03 0.0000000000000000e+00  -1.5982384386010602e-06 -3.1914272143566181e-03 0.0000000000000000e+00  -1.1224704011747477e-05 -3.5103358823751099e-03 0.0000000000000000e+00  7.2343277958335521e-06 -2.8638818464027777e-03 0.0000000000000000e+00  -1.3159069678992450e-05 -3.5816341979665726e-03 0.0000000000000000e+00  -5.3984007119351160e-05 -2.3602460717546785e-03 0.0000000000000000e+00  -5.1516134754941234e-05 -1.4879335546630693e-03 0.0000000000000000e+00  -3.3349119160558687e-05 -4.6283645777692379e-04 0.0000000000000000e+00  -3.2283248199926956e-05 -3.7372480693807103e-03 0.0000000000000000e+00  -3.5623076095287827e-05 -3.6431599033388642e-03 0.0000000000000000e+00  4.2981113743055258e-05 -8.6246367723613929e-04 0.0000000000000000e+00  -7.5635831395722815e-06 -3.6349112369578685e-03 0.0000000000000000e+00  -7.0948679106645944e-05 -8.9731666856757988e-04 0.0000000000000000e+00  -4.1428711799800264e-05 -3.5910819361051104e-03 0.0000000000000000e+00  -4.4469613318250283e-05 -3.5214790629314098e-03 0.0000000000000000e+00  -4.8559821561232938e-05 -3.4378438137724417e-03 0.0000000000000000e+00  -9.2374012627397795e-06 -3.7453994425637894e-03 0.0000000000000000e+00  5.1206850608260406e-05 -4.3241400931498742e-04 0.0000000000000000e+00  -5.8943334683100245e-05 -3.2111875654998044e-03 0.0000000000000000e+00  -5.3512277484346277e-05 -3.3354863514019131e-03 0.0000000000000000e+00  5.0444247008534679e-05 -2.0751239448847402e-03 0.0000000000000000e+00  5.9967924210533716e-05 -1.4485039112953773e-03 0.0000000000000000e+00  -6.5554735034520665e-05 -3.0148227268799645e-03 0.0000000000000000e+00  -7.0098553492047800e-05 -2.8907314370217249e-03 0.0000000000000000e+00  4.4495252693820533e-05 -2.3253453760037307e-03 0.0000000000000000e+00  -7.1202559053689403e-06 -8.6538545001025968e-06 0.0000000000000000e+00  5.5822206240306049e-06 -6.8560509809788871e-06 0.0000000000000000e+00  3.2293110817128840e-05 -2.7043079085488611e-03 0.0000000000000000e+00  -8.0594955885739561e-05 -1.7076375005900964e-03 0.0000000000000000e+00  -7.7093596328263532e-05 -1.0820897806252663e-03 0.0000000000000000e+00  -3.9056651691890143e-05 -1.8509480751233693e-04 0.0000000000000000e+00  -4.6979373568786045e-05 -2.9906785622965540e-04 0.0000000000000000e+00  3.9503671027576066e-05 -2.5564294907523231e-03 0.0000000000000000e+00  -7.9844831191486167e-05 -1.2561090575942931e-03 0.0000000000000000e+00  -8.4160014757050054e-05 -1.8913280590506637e-03 0.0000000000000000e+00  -6.4055234964661249e-05 -6.6725261062209674e-04 0.0000000000000000e+00  -9.0106338954540126e-06 -3.6884266086773757e-03 0.0000000000000000e+00  -3.8993901758129950e-05 -3.6893874240970970e-03 0.0000000000000000e+00  5.6830957494174343e-05 -6.6187355280144156e-04 0.0000000000000000e+00  -2.9735720518051007e-05 -9.3232210659552361e-05 0.0000000000000000e+00  -6.3387887136180133e-06 -3.7815758294916235e-03 0.0000000000000000e+00  -8.3602245686175306e-05 -2.7012231799229958e-03 0.0000000000000000e+00  -8.1086919147719649e-05 -2.5507044645436067e-03 0.0000000000000000e+00  7.7587625058090777e-05 -1.0770149361737321e-03 0.0000000000000000e+00  4.5031016312986304e-05 -1.8176520996110839e-04 0.0000000000000000e+00  5.5646298766800771e-05 -3.0220650865953990e-04 0.0000000000000000e+00  6.8917324921018359e-05 -1.7114163193153739e-03 0.0000000000000000e+00  8.4598736864068981e-05 -1.2534234871383119e-03 0.0000000000000000e+00  7.7235394109268564e-05 -1.8881587182850356e-03 0.0000000000000000e+00  -1.9358252308097490e-05 -5.1002289254503254e-05 0.0000000000000000e+00  -8.9768003770753429e-06 -3.8074498438192429e-03 0.0000000000000000e+00  -4.4605998148442220e-05 -3.5648922508933543e-03 0.0000000000000000e+00  -4.8372849494364335e-05 -3.4903159724734641e-03 0.0000000000000000e+00  6.0271517741015438e-05 -5.1765885450736921e-04 0.0000000000000000e+00  -5.3332148042751225e-05 -3.3997897018860660e-03 0.0000000000000000e+00  -7.2741551767924169e-06 -3.7238981648213261e-03 0.0000000000000000e+00  -5.9137183638763294e-05 -3.2890824778889281e-03 0.0000000000000000e+00  -6.5453826027057042e-05 -3.1561496305548618e-03 0.0000000000000000e+00  6.7904025285003074e-05 -1.5561329578035661e-03 0.0000000000000000e+00  -6.9043103020595970e-05 -3.0780383589180411e-03 0.0000000000000000e+00  5.6606292708425342e-05 -2.1750989170404409e-03 0.0000000000000000e+00  -7.7928629186355648e-05 -2.8159018991676310e-03 0.0000000000000000e+00  4.9783306240805048e-05 -2.4187078315815853e-03 0.0000000000000000e+00  -3.9873871763721577e-05 -3.7785390804696349e-03 0.0000000000000000e+00  -5.7125785544018130e-06 -3.6577339935981385e-03 0.0000000000000000e+00  -7.8215098048286689e-05 -7.9820334151908779e-04 0.0000000000000000e+00  3.5557906760467878e-05 -9.9959190293396718e-05 0.0000000000000000e+00  1.9209812483245300e-05 -4.1103812419797468e-05 0.0000000000000000e+00  3.1980228599598671e-05 -2.9857126755390932e-03 0.0000000000000000e+00  -8.8782513910319442e-05 -2.4335139829773926e-03 0.0000000000000000e+00  2.3684619410253461e-05 -3.1450156468220661e-03 0.0000000000000000e+00  2.8819025267611658e-06 -3.4841244077016146e-03 0.0000000000000000e+00  1.5217431775099634e-05 -3.2799275879685967e-03 0.0000000000000000e+00  8.5157932823964324e-06 -3.3922385270445791e-03 0.0000000000000000e+00  -8.1154697149840341e-05 -2.1968561381547087e-03 0.0000000000000000e+00  3.8061207990178676e-05 -2.8030891487116948e-03 0.0000000000000000e+00  -9.1887292216219317e-05 -1.5741120499110301e-03 0.0000000000000000e+00  -9.5998524545465492e-05 -2.0284427393287728e-03 0.0000000000000000e+00  -2.8779175805175060e-06 -3.6022234851911385e-03 0.0000000000000000e+00  -9.4358630008073590e-05 -1.3991768799877710e-03 0.0000000000000000e+00  -4.7527452796497012e-06 -3.5589650278723311e-03 0.0000000000000000e+00  -6.7755549484354696e-05 -5.3157136505787997e-04 0.0000000000000000e+00  -6.3180730009167361e-05 -3.9555630918016252e-04 0.0000000000000000e+00  -4.0467707268308702e-05 -3.7533706579526934e-03 0.0000000000000000e+00  -4.1474233581467377e-05 -3.7194740284928847e-03 0.0000000000000000e+00  -1.6249841232619426e-06 -3.4563152586142014e-03 0.0000000000000000e+00  3.1066676495406875e-06 -3.3581520728591502e-03 0.0000000000000000e+00  1.7467538801070736e-05 -3.0937508448489223e-03 0.0000000000000000e+00  -4.0640944456319305e-06 -3.5358629033182278e-03 0.0000000000000000e+00  8.6221534578604070e-06 -3.2385884497649485e-03 0.0000000000000000e+00  2.5447635460858744e-05 -2.9260050881864856e-03 0.0000000000000000e+00  -7.9626250042752060e-05 -2.2777100667052586e-03 0.0000000000000000e+00  7.2690345461094434e-05 -7.8237657706267997e-04 0.0000000000000000e+00  -4.2679009718832959e-05 -3.6615005101247725e-03 0.0000000000000000e+00  -4.3169070586001873e-05 -3.6241002336672677e-03 0.0000000000000000e+00  7.3155253415575335e-05 -9.4599191477728797e-04 0.0000000000000000