<?xml version="1.0"?>
<VTKFile type="UnstructuredGrid"  version="0.1"  >
<UnstructuredGrid>
<Piece  NumberOfPoints="439" NumberOfCells="725">
<Points>
<DataArray  type="Float64"  NumberOfComponents="3"  format="ascii">0.6 0.19 0  0.6 0.21 0  0.2489897949 0.21 0  0.2489897949 0.19 0  0.6 0.2 0  0.2496355385699469 0.2060260530378829 0  0.249959460510575 0.2020130349814059 0  0.2499594605105767 0.1979869650186357 0  0.24963553856995 0.1939739469621422 0  0.2539336006056293 0.21 0  0.2588774063112542 0.21 0  0.2638212120168921 0.21 0  0.26876501772253 0.21 0  0.2737088234281569 0.21 0  0.2786526291337753 0.21 0  0.2835964348393937 0.21 0  0.2885402405450166 0.21 0  0.2934840462506522 0.21 0  0.2984278519562708 0.21 0  0.3033716576618997 0.21 0  0.3083154633675181 0.21 0  0.3132592690731365 0.21 0  0.3182030747787549 0.21 0  0.3231468804843732 0.21 0  0.3280906861899917 0.21 0  0.3330344918956208 0.21 0  0.3379782976012284 0.21 0  0.3429221033068576 0.21 0  0.347865909012476 0.21 0  0.3528097147180944 0.21 0  0.3577535204237128 0.21 0  0.3626973261293311 0.21 0  0.3676411318349495 0.21 0  0.3725849375405788 0.21 0  0.3775287432461877 0.21 0  0.382472548951812 0.21 0  0.3874163546574338 0.21 0  0.3923601603630631 0.21 0  0.3973039660686706 0.21 0  0.4022477717742986 0.21 0  0.4071915774799107 0.21 0  0.4121353831855311 0.21 0  0.4170791888911518 0.21 0  0.4220229945967636 0.21 0  0.4269668003023918 0.21 0  0.4319106060080253 0.21 0  0.4368544117136773 0.21 0  0.4417982174193329 0.21 0  0.4467420231249967 0.21 0  0.4516858288306445 0.21 0  0.4566296345362864 0.21 0  0.461573440241916 0.21 0  0.4665172459475665 0.21 0  0.4714610516531998 0.21 0  0.4764048573588668 0.21 0  0.4813486630645134 0.21 0  0.486292468770176 0.21 0  0.4912362744758066 0.21 0  0.4961800801814611 0.21 0  0.5011238858870897 0.21 0  0.5060676915927493 0.21 0  0.5110114972983872 0.21 0  0.5159553030040036 0.21 0  0.5208991087096415 0.21 0  0.5258429144153002 0.21 0  0.5307867201209391 0.21 0  0.5357305258265987 0.21 0  0.5406743315322367 0.21 0  0.5456181372378529 0.21 0  0.5505619429434908 0.21 0  0.5555057486491456 0.21 0  0.5604495543547885 0.21 0  0.565393360060448 0.21 0  0.5703371657661116 0.21 0  0.5752809714717458 0.21 0  0.5802247771773834 0.21 0  0.5851685828830341 0.21 0  0.5901123885886809 0.21 0  0.5950561942943404 0.21 0  0.5950561942943833 0.19 0  0.590112388588758 0.19 0  0.5851685828831193 0.19 0  0.5802247771774727 0.19 0  0.5752809714718514 0.19 0  0.5703371657662308 0.19 0  0.565393360060618 0.19 0  0.5604495543549889 0.19 0  0.5555057486493581 0.19 0  0.5505619429437035 0.19 0  0.5456181372381043 0.19 0  0.540674331532505 0.19 0  0.5357305258268962 0.19 0  0.530786720121263 0.19 0  0.5258429144156628 0.19 0  0.5208991087100244 0.19 0  0.5159553030044218 0.19 0  0.5110114972988226 0.19 0  0.5060676915932177 0.19 0  0.5011238858875806 0.19 0  0.496180080181972 0.19 0  0.4912362744763531 0.19 0  0.4862924687707343 0.19 0  0.4813486630651046 0.19 0  0.4764048573594966 0.19 0  0.4714610516538683 0.19 0  0.4665172459482555 0.19 0  0.4615734402426349 0.19 0  0.4566296345370104 0.19 0  0.4516858288313808 0.19 0  0.4467420231257716 0.19 0  0.4417982174201465 0.19 0  0.4368544117145297 0.19 0  0.4319106060089131 0.19 0  0.4269668003032866 0.19 0  0.4220229945976482 0.19 0  0.4170791888920056 0.19 0  0.4121353831863594 0.19 0  0.4071915774806995 0.19 0  0.4022477717750478 0.19 0  0.3973039660693901 0.19 0  0.3923601603637548 0.19 0  0.3874163546581082 0.19 0  0.3824725489524824 0.19 0  0.3775287432468258 0.19 0  0.3725849375411773 0.19 0  0.3676411318355085 0.19 0  0.3626973261298614 0.19 0  0.3577535204242108 0.19 0  0.352809714718589 0.19 0  0.347865909012931 0.19 0  0.342922103307292 0.19 0  0.3379782976016536 0.19 0  0.3330344918960152 0.19 0  0.3280906861903751 0.19 0  0.3231468804847171 0.19 0  0.3182030747790592 0.19 0  0.3132592690734012 0.19 0  0.3083154633677581 0.19 0  0.3033716576621197 0.19 0  0.2984278519564813 0.19 0  0.2934840462508429 0.19 0  0.2885402405451874 0.19 0  0.2835964348395295 0.19 0  0.2786526291338716 0.19 0  0.2737088234282243 0.19 0  0.268765017722586 0.19 0  0.2638212120169476 0.19 0  0.2588774063113093 0.19 0  0.2539336006056579 0.19 0  0.6 0.1949999999999783 0  0.6 0.2049999999999729 0  0.2589734265316493 0.2005523893428403 0  0.5431462343853077 0.199999999999969 0  0.5682397894768162 0.1999704585808987 0  0.2774513927118024 0.2007941919421926 0  0.513849583376897 0.1999023426490919 0  0.5286810004937381 0.1999023426490969 0  0.2945108952057646 0.1992911908405386 0  0.5827780831384927 0.1995429801003349 0  0.3104128396569256 0.1999704585808978 0  0.3370001755418551 0.2008294612433967 0  0.4990181662600459 0.1999023426490902 0  0.3552816175709044 0.2000000000000608 0  0.4841867491431925 0.1999023426490849 0  0.3707373713905551 0.2000142376953689 0  0.3898882575102495 0.2000000000000828 0  0.4689857550492734 0.1995416724256694 0  0.4541577316841967 0.1999999999999098 0  0.4043534914018331 0.2000976573509244 0  0.4195510917439569 0.2000000000001057 0  0.4387019778644512 0.1999857623046772 0  0.3202472750256703 0.2000088842146399 0  0.5584053541080851 0.1999911157853577 0  0.4280667146887134 0.1998489048208241 0  0.3467659946265474 0.2001510951794375 0  0.3813726345658908 0.200151095179452 0  0.2860683376922098 0.2000415445706182 0  0.5911223811781194 0.1982449159348744 0  0.2679893161458627 0.201675125646729 0  0.4615734402426278 0.2022503633288003 0  0.4912362744763454 0.2022503633288091 0  0.5060676915931983 0.2022503633288118 0  0.3973039660686774 0.1977496366711965 0  0.4764048573594896 0.2022503633288051 0  0.5208991087100455 0.2022503633288184 0  0.4467420231257656 0.2022503633288 0  0.5357305258268849 0.2022503633288198 0  0.4121353831855317 0.1977496366711976 0  0.3626973261293352 0.1977496366711919 0  0.3033716576618961 0.1977496366711869 0  0.5752809714718229 0.1977496366711503 0  0.550459855919056 0.1971284784737667 0  0.3281927732146841 0.2028715215262406 0  0.5484179020497461 0.2038403215694763 0  0.3302347270839988 0.1961596784305491 0  0.5379210852238114 0.196125181664411 0  0.5230896681069652 0.1961251816644058 0  0.5082582509901222 0.1961251816644098 0  0.5774715308687094 0.2038748183355887 0  0.3011810982649548 0.2038748183355937 0  0.4785954167564111 0.196125181664404 0  0.4934268338732671 0.1961251816644063 0  0.395113406671763 0.2038748183355966 0  0.3605067667324117 0.2038748183355951 0  0.4593828808457146 0.1961251816643993 0  0.4489325825226805 0.1961251816644007 0  0.4099448237886219 0.2038748183355991 0  0.2557862999801971 0.1960858370257295 0  0.2550147360309399 0.2034426429991114 0  0.4348031476464689 0.2037737577641554 0  0.37463620160841 0.1962262422358553 0  0.3406258365864304 0.196046792193989 0  0.2813001681189834 0.1960467921940502 0  0.2912686387439893 0.1960816328649282 0  0.4246705335819892 0.2039532078059544 0  0.350162175732913 0.1960467921941878 0  0.3847688156722694 0.1960467921942359 0  0.316632368538356 0.19615945856337 0  0.5621550011053409 0.2037816492598991 0  0.5624413877019769 0.1960761923611377 0  0.3162395035833128 0.2038679557424692 0  0.2710887134207622 0.1959696443325838 0  0.5873014376403604 0.2047227881030823 0  0.4346679566442709 0.1954651459552513 0  0.4243296504077986 0.1958756980939062 0  0.3402559510833523 0.2047940500290923 0  0.2808684926760933 0.2047742417812656 0  0.2914077033138723 0.2047809517070955 0  0.3747713926104932 0.2045348540448554 0  0.3499216488898867 0.2051753413186305 0  0.3845282888292298 0.205175341318636 0  0.2648144865455052 0.1962089742986374 0  0.5943247643662894 0.2040415423589182 0  0.5320972610456145 0.1956445099050872 0  0.5172658439287727 0.1956445099050854 0  0.3069923255602658 0.2043468033872551 0  0.5024344268119265 0.1956445099050864 0  0.5716603035734351 0.2043468033872761 0  0.4876030096950741 0.1956445099050831 0  0.4728151975296263 0.1956402468909894 0  0.3663301776527538 0.20436745486386 0  0.4651631000724991 0.1956402468909893 0  0.4009372308499527 0.2043554900949198 0  0.4431091716023345 0.1956325451361429 0  0.4157593408842466 0.2043565497109067 0  0.5865057328865416 0.1956918868509067 0  0.5541600609760193 0.2044335994013721 0  0.3244925681577497 0.1955664005986376 0  0.272008018888917 0.2049327968152409 0  0.2633407725863902 0.2042483236346266 0  0.4567948413982566 0.2046536472831198 0  0.4167680012832803 0.1955060004091903 0  0.4716262585151221 0.2046536472831242 0  0.5161054367030595 0.2045563706470633 0  0.4864426024693469 0.2045563706470604 0  0.5012740195862044 0.2045563706470634 0  0.4022810343427545 0.1961423961483001 0  0.4420739040821668 0.2044853411424516 0  0.3673807293464664 0.1955677741328205 0  0.3925253672243162 0.195346352716901 0  0.5405091246712254 0.2046536472831267 0  0.357918727284983 0.1953463527168901 0  0.5307534575528717 0.2038576038516682 0  0.3079697655029555 0.1955637092892754 0  0.2985930588175599 0.1953463527168728 0  0.579671714346879 0.1955441268455555 0  0.5705023726275059 0.1953463527168462 0  0.5112451461103119 0.2035640580783926 0  0.4964137289934448 0.2035640580783915 0  0.4665727251511405 0.2038238154617746 0  0.5259274680675793 0.2038006696000127 0  0.4815823118765752 0.2035640580783898 0  0.4517504165552094 0.2039070625502732 0  0.4071070238280551 0.1961993303999926 0  0.3234846806957546 0.2047001437739977 0  0.5551679484379799 0.1952998562260008 0  0.5457754356464107 0.1954447171286166 0  0.3329307555206357 0.2046017509710421 0  0.4541577316841968 0.1960357661898101 0  0.3358300776141575 0.1950765652117375 0  0.2539718587514912 0.200011552766824 0  0.5826472073721517 0.2039971170156656 0  0.2761021761080182 0.1946948236183283 0  0.3898581462796225 0.2041572776584344 0  0.3552515063402743 0.2041572776584256 0  0.2965028074750666 0.2046578268138723 0  0.4299158836614793 0.1951782397873778 0  0.379426563923736 0.2049969334481307 0  0.2860882692072842 0.2042624797643994 0  0.3449948044168807 0.2051793676155613 0  0.2603922435707652 0.1950997711614917 0  0.5949856943860
[...]
<PointData  Vectors="f_18-1"> 
<DataArray  type="Float64"  Name="f_18-1"  NumberOfComponents="3" format="ascii">-2.0852113578935544e-02 -9.9218188804354304e-02 0.0000000000000000e+00  -1.3135635962538438e-02 -1.0076684315643769e-01 0.0000000000000000e+00  0.0000000000000000e+00 0.0000000000000000e+00 0.0000000000000000e+00  0.0000000000000000e+00 0.0000000000000000e+00 0.0000000000000000e+00  -1.6993836531203885e-02 -9.9992478923528444e-02 0.0000000000000000e+00  0.0000000000000000e+00 0.0000000000000000e+00 0.0000000000000000e+00  0.0000000000000000e+00 0.0000000000000000e+00 0.0000000000000000e+00  0.0000000000000000e+00 0.0000000000000000e+00 0.0000000000000000e+00  0.0000000000000000e+00 0.0000000000000000e+00 0.0000000000000000e+00  1.2682963566421879e-04 -1.1012041837718833e-04 0.0000000000000000e+00  2.6660272379554412e-04 -2.3172857028655206e-04 0.0000000000000000e+00  4.0458198750786746e-04 -3.8751609044163505e-04 0.0000000000000000e+00  5.3285487286563039e-04 -6.4833990108447727e-04 0.0000000000000000e+00  6.5199755164472737e-04 -9.6649981458176901e-04 0.0000000000000000e+00  7.7257043578896512e-04 -1.3656712815146306e-03 0.0000000000000000e+00  8.7695149698442426e-04 -1.8072647104222300e-03 0.0000000000000000e+00  9.6398977897121148e-04 -2.3229885972461039e-03 0.0000000000000000e+00  1.0472439810221225e-03 -2.8977312829116288e-03 0.0000000000000000e+00  1.1168399986597123e-03 -3.5313044957174253e-03 0.0000000000000000e+00  1.1843333736876332e-03 -4.2446591024576453e-03 0.0000000000000000e+00  1.2494161731387739e-03 -4.9711794696769944e-03 0.0000000000000000e+00  1.2854762540793364e-03 -5.7858364806918404e-03 0.0000000000000000e+00  1.3332106619328942e-03 -6.6501469412094333e-03 0.0000000000000000e+00  1.3494870071542164e-03 -7.5567831664615451e-03 0.0000000000000000e+00  1.3597188606401267e-03 -8.5288540419210159e-03 0.0000000000000000e+00  1.3569531029753042e-03 -9.5379356397137637e-03 0.0000000000000000e+00  1.3378297157400603e-03 -1.0610094655038826e-02 0.0000000000000000e+00  1.3038152383293056e-03 -1.1708084315699190e-02 0.0000000000000000e+00  1.2576189745722229e-03 -1.2860386075996075e-02 0.0000000000000000e+00  1.1968017657817511e-03 -1.4049965454935316e-02 0.0000000000000000e+00  1.1203140287909961e-03 -1.5276465588130879e-02 0.0000000000000000e+00  1.0361754913275529e-03 -1.6565034176061848e-02 0.0000000000000000e+00  9.4974367974073751e-04 -1.7862935863689592e-02 0.0000000000000000e+00  8.3993193655129900e-04 -1.9214980435671585e-02 0.0000000000000000e+00  7.1735883743271971e-04 -2.0589514688784647e-02 0.0000000000000000e+00  5.8222562892360158e-04 -2.2005186263769808e-02 0.0000000000000000e+00  4.3417724545154770e-04 -2.3450179394226035e-02 0.0000000000000000e+00  2.7139380360480865e-04 -2.4922753533834219e-02 0.0000000000000000e+00  9.9712510166546578e-05 -2.6442193337496339e-02 0.0000000000000000e+00  -7.3899606009425413e-05 -2.7966195902537957e-02 0.0000000000000000e+00  -2.7209435493829426e-04 -2.9529049869655676e-02 0.0000000000000000e+00  -4.7852778803444582e-04 -3.1124413902364027e-02 0.0000000000000000e+00  -6.8816829601206606e-04 -3.2727236996532301e-02 0.0000000000000000e+00  -9.1895025637807836e-04 -3.4364642117295056e-02 0.0000000000000000e+00  -1.1496452792413544e-03 -3.6020956985320367e-02 0.0000000000000000e+00  -1.3981806047275473e-03 -3.7697041016654366e-02 0.0000000000000000e+00  -1.6498697340706558e-03 -3.9398214483247623e-02 0.0000000000000000e+00  -1.9153454334943239e-03 -4.1112048023194125e-02 0.0000000000000000e+00  -2.1908708936047897e-03 -4.2846679049977202e-02 0.0000000000000000e+00  -2.4715513066945038e-03 -4.4596246949787983e-02 0.0000000000000000e+00  -2.7597575550108405e-03 -4.6362596306473582e-02 0.0000000000000000e+00  -3.0592267385192808e-03 -4.8142949416780899e-02 0.0000000000000000e+00  -3.3628826217752695e-03 -4.9935866705987139e-02 0.0000000000000000e+00  -3.6734931847032032e-03 -5.1742881989345554e-02 0.0000000000000000e+00  -3.9934752865036427e-03 -5.3561184491610819e-02 0.0000000000000000e+00  -4.3177055388101829e-03 -5.5389400440613280e-02 0.0000000000000000e+00  -4.6477566341808878e-03 -5.7228892569387901e-02 0.0000000000000000e+00  -4.9851058149376131e-03 -5.9076554271932813e-02 0.0000000000000000e+00  -5.3260486290483957e-03 -6.0931886983940413e-02 0.0000000000000000e+00  -5.6716891027287610e-03 -6.2795762494638904e-02 0.0000000000000000e+00  -6.0231426146713308e-03 -6.4665817348141461e-02 0.0000000000000000e+00  -6.3774918477911800e-03 -6.6541458687386673e-02 0.0000000000000000e+00  -6.7356053759023236e-03 -6.8423324420389536e-02 0.0000000000000000e+00  -7.0981271997338034e-03 -7.0309465956348599e-02 0.0000000000000000e+00  -7.4626851622251215e-03 -7.2199674202721179e-02 0.0000000000000000e+00  -7.8301077456820519e-03 -7.4093968632926860e-02 0.0000000000000000e+00  -8.2004135894634921e-03 -7.5991175586441168e-02 0.0000000000000000e+00  -8.5731019092833913e-03 -7.7890453567464907e-02 0.0000000000000000e+00  -8.9481680356698606e-03 -7.9792263671709135e-02 0.0000000000000000e+00  -9.3247395060318226e-03 -8.1696233222549985e-02 0.0000000000000000e+00  -9.7018510099004130e-03 -8.3600423866345183e-02 0.0000000000000000e+00  -1.0081017165834047e-02 -8.5506491343983207e-02 0.0000000000000000e+00  -1.0460638760435015e-02 -8.7413324831970715e-02 0.0000000000000000e+00  -1.0841422707640835e-02 -8.9320487319204764e-02 0.0000000000000000e+00  -1.1223039770904870e-02 -9.1228257581015534e-02 0.0000000000000000e+00  -1.1604961584301819e-02 -9.3135978198922706e-02 0.0000000000000000e+00  -1.1987407281956231e-02 -9.5043810121299213e-02 0.0000000000000000e+00  -1.2370088335796316e-02 -9.6951665249761954e-02 0.0000000000000000e+00  -1.2752813448279856e-02 -9.8859273708341938e-02 0.0000000000000000e+00  -2.0469237476295109e-02 -9.7310660680822544e-02 0.0000000000000000e+00  -2.0086219696547503e-02 -9.5403131315530576e-02 0.0000000000000000e+00  -1.9703045587198483e-02 -9.3495521487067482e-02 0.0000000000000000e+00  -1.9319643359708091e-02 -9.1588071534802196e-02 0.0000000000000000e+00  -1.8936070470708766e-02 -8.9680990026765758e-02 0.0000000000000000e+00  -1.8552234255439871e-02 -8.7774144508325574e-02 0.0000000000000000e+00  -1.8168225527125804e-02 -8.5868287367649163e-02 0.0000000000000000e+00  -1.7783738750814525e-02 -8.3963514763433333e-02 0.0000000000000000e+00  -1.7399413531830325e-02 -8.2059560852148314e-02 0.0000000000000000e+00  -1.7014940266027141e-02 -8.0157820455957790e-02 0.0000000000000000e+00  -1.6630251825346019e-02 -7.8257398190394942e-02 0.0000000000000000e+00  -1.6246293322231650e-02 -7.6359756819343927e-02 0.0000000000000000e+00  -1.5862284412517230e-02 -7.4465986350313901e-02 0.0000000000000000e+00  -1.5477570074054609e-02 -7.2573366548904908e-02 0.0000000000000000e+00  -1.5094510187868641e-02 -7.0685738565669426e-02 0.0000000000000000e+00  -1.4711604941380114e-02 -6.8804402930757819e-02 0.0000000000000000e+00  -1.4328009557487371e-02 -6.6924889816394384e-02 0.0000000000000000e+00  -1.3947513467323766e-02 -6.5052748751558309e-02 0.0000000000000000e+00  -1.3567389001999211e-02 -6.3189335690350512e-02 0.0000000000000000e+00  -1.3186500413276018e-02 -6.1328424560463321e-02 0.0000000000000000e+00  -1.2810285493575947e-02 -5.9477723820362857e-02 0.0000000000000000e+00  -1.2434818651595021e-02 -5.7638675657161645e-02 0.0000000000000000e+00  -1.2058543733173025e-02 -5.5802883794813893e-02 0.0000000000000000e+00  -1.1688719073783606e-02 -5.3980426461730929e-02 0.0000000000000000e+00  -1.1319989767222939e-02 -5.2173112569081935e-02 0.0000000000000000e+00  -1.0951085162245725e-02 -5.0371417305628795e-02 0.0000000000000000e+00  -1.0587868050023685e-02 -4.8584411426910355e-02 0.0000000000000000e+00  -1.0227299653685969e-02 -4.6817097635470185e-02 0.0000000000000000e+00  -9.8670507340227424e-03 -4.5053576189881379e-02 0.0000000000000000e+00  -9.5177472033097840e-03 -4.3310301094399296e-02 0.0000000000000000e+00  -9.1687641985291786e-03 -4.1592860580437277e-02 0.0000000000000000e+00  -8.8191071337599038e-03 -3.9881555468410206e-02 0.0000000000000000e+00  -8.4792585836948632e-03 -3.8196336549098459e-02 0.0000000000000000e+00  -8.1447848481053711e-03 -3.6524288362043897e-02 0.0000000000000000e+00  -7.8152890297653113e-03 -3.4875046456131216e-02 0.0000000000000000e+00  -7.4951240682240173e-03 -3.3253411604829364e-02 0.0000000000000000e+00  -7.1725588886701365e-03 -3.1648292209324871e-02 0.0000000000000000e+00  -6.8610698728273113e-03 -3.0070838774274983e-02 0.0000000000000000e+00  -6.5510792522761692e-03 -2.8518058828786982e-02 0.0000000000000000e+00  -6.2457313183804800e-03 -2.6993937582492682e-02 0.0000000000000000e+00  -5.9494296439642630e-03 -2.5499495976362578e-02 0.0000000000000000e+00  -5.6647210261287096e-03 -2.4026495645458557e-02 0.0000000000000000e+00  -5.3888045357278671e-03 -2.2587326002700893e-02 0.0000000000000000e+00  -5.1038100602817322e-03 -2.1175651744780855e-02 0.0000000000000000e+00  -4.8399852872847496e-03 -1.9799906739375539e-02 0.0000000000000000e+00  -4.5709809330121412e-03 -1.8465138176923142e-02 0.0000000000000000e+00  -4.3195158735050438e-03 -1.7156522097556866e-02 0.0000000000000000e+00  -4.0721773931071967e-03 -1.5894153261901321e-02 0.0000000000000000e+00  -3.8373548530870622e-03 -1.4658427265704084e-02 0.0000000000000000e+00  -3.6124573967177592e-03 -1.3467290792922117e-02 0.0000000000000000e+00  -3.3746145238112367e-03 -1.2310102838293062e-02 0.0000000000000000e+00  -3.1617781455629984e-03 -1.1197312170898994e-02 0.0000000000000000e+00  -2.9388852289080817e-03 -1.0136992547132410e-02 0.0000000000000000e+00  -2.7426005213212088e-03 -9.1127293945340148e-03 0.0000000000000000e+00  -2.5488847913928215e-03 -8.1547437350661840e-03 0.0000000000000000e+00  -2.3516932206433779e-03 -7.2117458564709630e-03 0.0000000000000000e+00  -2.1727675706243307e-03 -6.3393424707796136e-03 0.0000000000000000e+00  -1.9756202545842265e-03 -5.5156825387808967e-03 0.0000000000000000e+00  -1.8065754544055092e-03 -4.7381595157410528e-03 0.0000000000000000e+00  -1.6381050789123729e-03 -4.0309307837868118e-03 0.0000000000000000e+00  -1.4795019670684028e-03 -3.3622002359689003e-03 0.0000000000000000e+00  -1.3284434507760581e-03 -2.7609388492985392e-03 0.0000000000000000e+00  -1.1597131473142285e-03 -2.2061096355118913e-03 0.0000000000000000e+00  -1.0197115751642239e-03 -1.7127108360970983e-03 0.0000000000000000e+00  -8.5826419362779801e-04 -1.2816186243597436e-03 0.0000000000000000e+00  -7.1873549474002279e-04 -9.2358995955716360e-04 0.0000000000000000e+00  -5.6087433797118885e-04 -6.2842186210012219e-04 0.0000000000000000e+00  -4.1852332963221743e-04 -3.7990305502596524e-04 0.0000000000000000e+00  -2.7886569293848328e-04 -2.0653195465650452e-04 0.0000000000000000e+00  -1.3834530585851590e-04 -1.1816243706941220e-04 0.0000000000000000e+00  -1.8922925359457658e-02 -9.9605349836277848e-02 0.0000000000000000e+00  -1.5064785746314075e-02 -1.0037963451382304e-01 0.0000000000000000e+00  1.3065427968628144e-05 -1.1235736235123471e-04 0.0000000000000000e+00  -1.2598377349568998e-02 -7.8071417529590084e-02 0.0000000000000000e+00  -1.4545460742720024e-02 -8.7735069455974882e-02 0.0000000000000000e+00  1.8100682066409926e-05 -1.1327924964296785e-03 0.0000000000000000e+00  -1.0408372381948737e-02 -6.6858993469317951e-02 0.0000000000000000e+00  -1.1529108156903866e-02 -7.2515060417902344e-02 0.0000000000000000e+00  -2.1613859284500919e-04 -2.8621026401280105e-03 0.0000000000000000e+00  -1.5836172086709403e-02 -9.3311550516767511e-02 0.0000000000000000e+00  -2.9514014450306500e-04 -5.1114737387038143e-03 0.0000000000000000e+00  -5.9887201367445607e-04 -1.0113803340455602e-02 0.0000000000000000e+00  -9.3077268030330503e-03 -6.1252473301843899e-02 0.0000000000000000e+00  -1.2637345221956130e-03 -1.4309094424558470e-02 0.0000000000000000e+00  -8.2347585990832604e-03 -5.5714203861884547e-02 0.0000000000000000e+00  -1.7823561911427042e-03 -1.8282301484821340e-02 0.0000000000000000e+00  -2.5691693967946016e-03 -2.3706529869968601e-02 0.0000000000000000e+00  -7.3023872355499229e-03 -5.0105913938044651e-02 0.0000000000000000e+00  -6.1459669056556487e-03 -4.4809770450466684e-02 0.0000000000000000e+00  -3.2232288595900049e-03 -2.8101859032610504e-02 0.0000000000000000e+00  -4.0539099435970300e-03 -3.2962131026290142e-02 0.0000000000000000e+00  -5.1735885623716074e-03 -3.9399335294556553e-02 0.0000000000000000e+00  -4.3353129731029636e-04 -6.7808221308100925e-03 0.0000000000000000e+00  -1.3776963705476410e-02 -8.3944474460004775e-02 0.0000000000000000e+00  -4.5849942553655813e-03 -3.5779368544384522e-02 0.0000000000000000e+00  -9.8644191223399235e-04 -1.2275572078013778e-02 0.0000000000000000e+00  -2.1616384674983846e-03 -2.1238888369954093e-02 0.0000000000000000e+00  -8.0085447810362200e-05 -1.9395378824300033e-03 0.0000000000000000e+00  -1.6983392732429749e-02 -9.6431071609192620e-02 0.0000000000000000e+00  6.8569537203222119e-05 -5.0138646962642600e-04 0.0000000000000000e+00  -5.8294810221939221e-03 -4.7608681049162188e-02 0.0000000000000000e+00  -7.8673044664183123e-03 -5.8506827484521115e-02 0.0000000000000000e+00  -8.9431083885067788e-03 -6.4084201868501195e-02 0.0000000000000000e+00  -3.5922569795873915e-03 -2.5824302768906876e-02 0.0000000000000000e+00  -6.8263780134922257e-03 -5.3007120815299645e-02 0.0000000000000000e+00  -1.0045923487641431e-02 -6.9719484427046771e-02 0.0000000000000000e+00  -4.8867497964497995e-03 -4.2336377139834847e-02 0.0000000000000000e+00  -1.1168257194563155e-02 -7.5395594742984309e-02 0.0000000000000000e+00  -4.3721930062769277e-03 -3.0446470193850939e-02 0.0000000000000000e+00  -2.0792131011139795e-03 -1.6099852732188297e-02 0.0000000000000000e+00  -5.2769571030437826e-04 -4.0361347100404512e-03 0.0000000000000000e+00  -1.5946886188776439e-02 -9.0279867167867095e-02 0.0000000000000000e+00  -1.4264689917914295e-02 -8.0664321856750668e-02 0.0000000000000000e+00  -2.6255654826633034e-05 -8.3467189566945564e-03 0.0000000000000000e+00  -1.1528090177088210e-02 -8.0394520453762497e-02 0.0000000000000000e+00  -1.3897722159154633e-03 -8.6307549219979806e-03 0.0000000000000000e+00  -1.3682297761803838e-02 -7.5769178570015139e-02 0.0000000000000000e+00  -1.2543268759459049e-02 -7.0094276783126019e-02 0.0000000000000000e+00  -1.1416562942848830e-02 -6.4460469073570614e-02 0.0000000000000000e+00  -1.3754680817006867e-02 -9.1598909616035451e-02 0.0000000000000000e+00  3.4398078645648964e-04 -3.7934398524892650e-03 0.0000000000000000e+00  -9.2249434517865467e-03 -5.3387513137021614e-02 0.0000000000000000e+00  -1.0308110198318324e-02 -5.8884842717398730e-02 0.0000000000000000e+00  -1.6452695967022527e-03 -2.5448734785407285e-02 0.0000000000000000e+00  -4.5172021451505537e-04 -1.5745623015056345e-02 0.0000000000000000e+00  -7.8752617550773719e-03 -4.6419513416468945e-02 0.0000000000000000e+00  -7.1638120800660643e-03 -4.2720741170426159e-02 0.0000000000000000e+00  -2.3115312242022435e-03 -3.0066895708139564e-02 0.0000000000000000e+00  -6.1287764945356282e-05 -4.7919021256356084e-05 0.0000000000000000e+00  4.3610552232825655e-05 -3.6578838200266351e-05 0.0000000000000000e+00  -3.6546580155900864e-03 -3.8293108955317651e-02 0.0000000000000000e+00  -2.9702494358699620e-03 -1.9208451249444775e-02 0.0000000000000000e+00  -1.7269768179301332e-03 -1.0796348953159202e-02 0.0000000000000000e+00  -4.0480627886244790e-04 -1.4614160054302171e-03 0.0000000000000000e+00  -5.4379569000044645e-04 -2.4748947195434587e-03 0.0000000000000000e+00  -3.0367167640532591e-03 -3.4883694280876593e-02 0.0000000000000000e+00  -2.0401514535344674e-03 -1.2963315574712435e-02 0.0000000000000000e+00  -3.4805493975697916e-03 -2.2045465281683076e-02 0.0000000000000000e+00  -1.0340287640381658e-03 -6.1003175590225800e-03 0.0000000000000000e+00  -1.2606822375961170e-02 -8.5682743906915285e-02 0.0000000000000000e+00  -1.5597118342324919e-02 -8.5198503819264623e-02 0.0000000000000000e+00  2.7736895073770081e-04 -6.1447900866901340e-03 0.0000000000000000e+00  -2.8006763305671290e-04 -6.9415451208468216e-04 0.0000000000000000e+00  -1.4188445587314276e-02 -9.5458172195685156e-02 0.0000000000000000e+00  -6.4669059566343935e-03 -3.7756666010364592e-02 0.0000000000000000e+00  -5.6862129360632559e-03 -3.4312740376751777e-02 0.0000000000000000e+00  1.9287011732996095e-04 -1.0933302167437122e-02 0.0000000000000000e+00  3.5972394775831963e-04 -1.4638001975718533e-03 0.0000000000000000e+00  4.3082132845887085e-04 -2.5548417560631682e-03 0.0000000000000000e+00  -7.0136726614196160e-04 -1.9567408944583843e-02 0.0000000000000000e+00  1.0411119933401431e-04 -1.3176004454551653e-02 0.0000000000000000e+00  -8.5631510769850524e-04 -2.2369631161255350e-02 0.0000000000000000e+00  -1.7472475647711534e-04 -3.6161491495368889e-04 0.0000000000000000e+00  -1.4995080058519876e-02 -9.8115617314364981e-02 0.0000000000000000e+00  -1.3418574012971298e-02 -7.3500663561502852e-02 0.0000000000000000e+00  -1.2282991406709624e-02 -6.7840700022263681e-02 0.0000000000000000e+00  3.9435608052619677e-04 -4.6505006813712339e-03 0.0000000000000000e+00  -1.1161320896554172e-02 -6.2228381304471503e-02 0.0000000000000000e+00  -1.3123238144558149e-02 -8.9393141857316699e-02 0.0000000000000000e+00  -1.0060011550967134e-02 -5.6682053737522671e-02 0.0000000000000000e+00  -8.9904963655640727e-03 -5.1238266613003819e-02 0.0000000000000000e+00  -4.9423967130731437e-04 -1.7275669893617184e-02 0.0000000000000000e+00  -8.4477572880258638e-03 -4.8463438164691092e-02 0.0000000000000000e+00  -1.7550360860539597e-03 -2.7255734300237311e-02 0.0000000000000000e+00  -6.9558137600430761e-03 -4.0661682722328056e-02 0.0000000000000000e+00  -2.4452675515844718e-03 -3.1969021668102129e-02 0.0000000000000000e+00  -1.7610634259224538e-02 -9.4451986330255616e-02 0.0000000000000000e+00  -1.1740610768593836e-02 -8.2651273807688649e-02 0.0000000000000000e+00  -1.3461738835087373e-03 -7.5066141160172462e-03 0.0000000000000000e+00  2.8751454906688804e-04 -7.6362185158934171e-04 0.0000000000000000e+00  1.5368820795293465e-04 -2.8962205093346005e-04 0.0000000000000000e+00  -4.6671233961227496e-03 -4.6054596518802018e-02 0.0000000000000000e+00  -5.3572557311078427e-03 -3.1822317200473967e-02 0.0000000000000000e+00  -5.6266988342610971e-03 -5.1422398275296544e-02 0.0000000000000000e+00  -8.8120824188153025e-03 -6.8066499094625282e-02 0.0000000000000000e+00  -6.6729586455737296e-03 -5.6885704318411806e-02 0.0000000000000000e+00  -7.7262219400506859e-03 -6.2444636103071355e-02 0.0000000000000000e+00  -4.3430207932213197e-03 -2.7270904594282303e-02 0.0000000000000000e+00  -3.8309511767486248e-03 -4.0848262384136316e-02 0.0000000000000000e+00  -2.8329699138899037e-03 -1.7245707959180824e-02 0.0000000000000000e+00  -4.0703013919264740e-03 -2.4288142286944703e-02 0.0000000000000000e+00  -1.0611557408267896e-02 -7.7414793594165962e-02 0.0000000000000000e+00  -2.5003383034807028e-03 -1.4828097264482969e-02 0.0000000000000000e+00  -1.0175549364236368e-02 -7.3609583050791322e-02 0.0000000000000000e+00  -9.3983576174961974e-04 -4.6992099556279442e-03 0.0000000000000000e+00  -7.7410513155293551e-04 -3.3690070118865298e-03 0.0000000000000000e+00  -1.7137932712441153e-02 -9.1803460037217427e-02 0.0000000000000000e+00  -1.6503151448802367e-02 -8.8250730944770511e-02 0.0000000000000000e+00  -8.8279295650200498e-03 -6.6143799816256427e-02 0.0000000000000000e+00  -7.7473203467505105e-03 -6.0541867398365763e-02 0.0000000000000000e+00  -5.5910962952996296e-03 -4.9523110528186517e-02 0.0000000000000000e+00  -9.8329830039154392e-03 -7.1757643512245062e-02 0.0000000000000000e+00  -6.7006868995963635e-03 -5.5009830933142691e-02 0.0000000000000000e+00  -4.6140571349772416e-03 -4.4209842345436227e-02 0.0000000000000000e+00  -4.5858710020751925e-03 -2.8774196130622761e-02 0.0000000000000000e+00  3.7357036699104795e-04 -7.4775833512813993e-03 0.0000000000000000e+00  -1.5332399858988167e-02 -8.2336467888063772e-02 0.0000000000000000e+00  -1.4549937804462275e-02 -7.8733655368179792e-02 0.0000000000000000e+00  