<?xml version="1.0"?>
<VTKFile type="UnstructuredGrid"  version="0.1"  >
<UnstructuredGrid>
<Piece  NumberOfPoints="439" NumberOfCells="725">
<Points>
<DataArray  type="Float64"  NumberOfComponents="3"  format="ascii">0.6 0.19 0  0.6 0.21 0  0.2489897949 0.21 0  0.2489897949 0.19 0  0.6 0.2 0  0.2496355385699469 0.2060260530378829 0  0.249959460510575 0.2020130349814059 0  0.2499594605105767 0.1979869650186357 0  0.24963553856995 0.1939739469621422 0  0.2539336006056293 0.21 0  0.2588774063112542 0.21 0  0.2638212120168921 0.21 0  0.26876501772253 0.21 0  0.2737088234281569 0.21 0  0.2786526291337753 0.21 0  0.2835964348393937 0.21 0  0.2885402405450166 0.21 0  0.2934840462506522 0.21 0  0.2984278519562708 0.21 0  0.3033716576618997 0.21 0  0.3083154633675181 0.21 0  0.3132592690731365 0.21 0  0.3182030747787549 0.21 0  0.3231468804843732 0.21 0  0.3280906861899917 0.21 0  0.3330344918956208 0.21 0  0.3379782976012284 0.21 0  0.3429221033068576 0.21 0  0.347865909012476 0.21 0  0.3528097147180944 0.21 0  0.3577535204237128 0.21 0  0.3626973261293311 0.21 0  0.3676411318349495 0.21 0  0.3725849375405788 0.21 0  0.3775287432461877 0.21 0  0.382472548951812 0.21 0  0.3874163546574338 0.21 0  0.3923601603630631 0.21 0  0.3973039660686706 0.21 0  0.4022477717742986 0.21 0  0.4071915774799107 0.21 0  0.4121353831855311 0.21 0  0.4170791888911518 0.21 0  0.4220229945967636 0.21 0  0.4269668003023918 0.21 0  0.4319106060080253 0.21 0  0.4368544117136773 0.21 0  0.4417982174193329 0.21 0  0.4467420231249967 0.21 0  0.4516858288306445 0.21 0  0.4566296345362864 0.21 0  0.461573440241916 0.21 0  0.4665172459475665 0.21 0  0.4714610516531998 0.21 0  0.4764048573588668 0.21 0  0.4813486630645134 0.21 0  0.486292468770176 0.21 0  0.4912362744758066 0.21 0  0.4961800801814611 0.21 0  0.5011238858870897 0.21 0  0.5060676915927493 0.21 0  0.5110114972983872 0.21 0  0.5159553030040036 0.21 0  0.5208991087096415 0.21 0  0.5258429144153002 0.21 0  0.5307867201209391 0.21 0  0.5357305258265987 0.21 0  0.5406743315322367 0.21 0  0.5456181372378529 0.21 0  0.5505619429434908 0.21 0  0.5555057486491456 0.21 0  0.5604495543547885 0.21 0  0.565393360060448 0.21 0  0.5703371657661116 0.21 0  0.5752809714717458 0.21 0  0.5802247771773834 0.21 0  0.5851685828830341 0.21 0  0.5901123885886809 0.21 0  0.5950561942943404 0.21 0  0.5950561942943833 0.19 0  0.590112388588758 0.19 0  0.5851685828831193 0.19 0  0.5802247771774727 0.19 0  0.5752809714718514 0.19 0  0.5703371657662308 0.19 0  0.565393360060618 0.19 0  0.5604495543549889 0.19 0  0.5555057486493581 0.19 0  0.5505619429437035 0.19 0  0.5456181372381043 0.19 0  0.540674331532505 0.19 0  0.5357305258268962 0.19 0  0.530786720121263 0.19 0  0.5258429144156628 0.19 0  0.5208991087100244 0.19 0  0.5159553030044218 0.19 0  0.5110114972988226 0.19 0  0.5060676915932177 0.19 0  0.5011238858875806 0.19 0  0.496180080181972 0.19 0  0.4912362744763531 0.19 0  0.4862924687707343 0.19 0  0.4813486630651046 0.19 0  0.4764048573594966 0.19 0  0.4714610516538683 0.19 0  0.4665172459482555 0.19 0  0.4615734402426349 0.19 0  0.4566296345370104 0.19 0  0.4516858288313808 0.19 0  0.4467420231257716 0.19 0  0.4417982174201465 0.19 0  0.4368544117145297 0.19 0  0.4319106060089131 0.19 0  0.4269668003032866 0.19 0  0.4220229945976482 0.19 0  0.4170791888920056 0.19 0  0.4121353831863594 0.19 0  0.4071915774806995 0.19 0  0.4022477717750478 0.19 0  0.3973039660693901 0.19 0  0.3923601603637548 0.19 0  0.3874163546581082 0.19 0  0.3824725489524824 0.19 0  0.3775287432468258 0.19 0  0.3725849375411773 0.19 0  0.3676411318355085 0.19 0  0.3626973261298614 0.19 0  0.3577535204242108 0.19 0  0.352809714718589 0.19 0  0.347865909012931 0.19 0  0.342922103307292 0.19 0  0.3379782976016536 0.19 0  0.3330344918960152 0.19 0  0.3280906861903751 0.19 0  0.3231468804847171 0.19 0  0.3182030747790592 0.19 0  0.3132592690734012 0.19 0  0.3083154633677581 0.19 0  0.3033716576621197 0.19 0  0.2984278519564813 0.19 0  0.2934840462508429 0.19 0  0.2885402405451874 0.19 0  0.2835964348395295 0.19 0  0.2786526291338716 0.19 0  0.2737088234282243 0.19 0  0.268765017722586 0.19 0  0.2638212120169476 0.19 0  0.2588774063113093 0.19 0  0.2539336006056579 0.19 0  0.6 0.1949999999999783 0  0.6 0.2049999999999729 0  0.2589734265316493 0.2005523893428403 0  0.5431462343853077 0.199999999999969 0  0.5682397894768162 0.1999704585808987 0  0.2774513927118024 0.2007941919421926 0  0.513849583376897 0.1999023426490919 0  0.5286810004937381 0.1999023426490969 0  0.2945108952057646 0.1992911908405386 0  0.5827780831384927 0.1995429801003349 0  0.3104128396569256 0.1999704585808978 0  0.3370001755418551 0.2008294612433967 0  0.4990181662600459 0.1999023426490902 0  0.3552816175709044 0.2000000000000608 0  0.4841867491431925 0.1999023426490849 0  0.3707373713905551 0.2000142376953689 0  0.3898882575102495 0.2000000000000828 0  0.4689857550492734 0.1995416724256694 0  0.4541577316841967 0.1999999999999098 0  0.4043534914018331 0.2000976573509244 0  0.4195510917439569 0.2000000000001057 0  0.4387019778644512 0.1999857623046772 0  0.3202472750256703 0.2000088842146399 0  0.5584053541080851 0.1999911157853577 0  0.4280667146887134 0.1998489048208241 0  0.3467659946265474 0.2001510951794375 0  0.3813726345658908 0.200151095179452 0  0.2860683376922098 0.2000415445706182 0  0.5911223811781194 0.1982449159348744 0  0.2679893161458627 0.201675125646729 0  0.4615734402426278 0.2022503633288003 0  0.4912362744763454 0.2022503633288091 0  0.5060676915931983 0.2022503633288118 0  0.3973039660686774 0.1977496366711965 0  0.4764048573594896 0.2022503633288051 0  0.5208991087100455 0.2022503633288184 0  0.4467420231257656 0.2022503633288 0  0.5357305258268849 0.2022503633288198 0  0.4121353831855317 0.1977496366711976 0  0.3626973261293352 0.1977496366711919 0  0.3033716576618961 0.1977496366711869 0  0.5752809714718229 0.1977496366711503 0  0.550459855919056 0.1971284784737667 0  0.3281927732146841 0.2028715215262406 0  0.5484179020497461 0.2038403215694763 0  0.3302347270839988 0.1961596784305491 0  0.5379210852238114 0.196125181664411 0  0.5230896681069652 0.1961251816644058 0  0.5082582509901222 0.1961251816644098 0  0.5774715308687094 0.2038748183355887 0  0.3011810982649548 0.2038748183355937 0  0.4785954167564111 0.196125181664404 0  0.4934268338732671 0.1961251816644063 0  0.395113406671763 0.2038748183355966 0  0.3605067667324117 0.2038748183355951 0  0.4593828808457146 0.1961251816643993 0  0.4489325825226805 0.1961251816644007 0  0.4099448237886219 0.2038748183355991 0  0.2557862999801971 0.1960858370257295 0  0.2550147360309399 0.2034426429991114 0  0.4348031476464689 0.2037737577641554 0  0.37463620160841 0.1962262422358553 0  0.3406258365864304 0.196046792193989 0  0.2813001681189834 0.1960467921940502 0  0.2912686387439893 0.1960816328649282 0  0.4246705335819892 0.2039532078059544 0  0.350162175732913 0.1960467921941878 0  0.3847688156722694 0.1960467921942359 0  0.316632368538356 0.19615945856337 0  0.5621550011053409 0.2037816492598991 0  0.5624413877019769 0.1960761923611377 0  0.3162395035833128 0.2038679557424692 0  0.2710887134207622 0.1959696443325838 0  0.5873014376403604 0.2047227881030823 0  0.4346679566442709 0.1954651459552513 0  0.4243296504077986 0.1958756980939062 0  0.3402559510833523 0.2047940500290923 0  0.2808684926760933 0.2047742417812656 0  0.2914077033138723 0.2047809517070955 0  0.3747713926104932 0.2045348540448554 0  0.3499216488898867 0.2051753413186305 0  0.3845282888292298 0.205175341318636 0  0.2648144865455052 0.1962089742986374 0  0.5943247643662894 0.2040415423589182 0  0.5320972610456145 0.1956445099050872 0  0.5172658439287727 0.1956445099050854 0  0.3069923255602658 0.2043468033872551 0  0.5024344268119265 0.1956445099050864 0  0.5716603035734351 0.2043468033872761 0  0.4876030096950741 0.1956445099050831 0  0.4728151975296263 0.1956402468909894 0  0.3663301776527538 0.20436745486386 0  0.4651631000724991 0.1956402468909893 0  0.4009372308499527 0.2043554900949198 0  0.4431091716023345 0.1956325451361429 0  0.4157593408842466 0.2043565497109067 0  0.5865057328865416 0.1956918868509067 0  0.5541600609760193 0.2044335994013721 0  0.3244925681577497 0.1955664005986376 0  0.272008018888917 0.2049327968152409 0  0.2633407725863902 0.2042483236346266 0  0.4567948413982566 0.2046536472831198 0  0.4167680012832803 0.1955060004091903 0  0.4716262585151221 0.2046536472831242 0  0.5161054367030595 0.2045563706470633 0  0.4864426024693469 0.2045563706470604 0  0.5012740195862044 0.2045563706470634 0  0.4022810343427545 0.1961423961483001 0  0.4420739040821668 0.2044853411424516 0  0.3673807293464664 0.1955677741328205 0  0.3925253672243162 0.195346352716901 0  0.5405091246712254 0.2046536472831267 0  0.357918727284983 0.1953463527168901 0  0.5307534575528717 0.2038576038516682 0  0.3079697655029555 0.1955637092892754 0  0.2985930588175599 0.1953463527168728 0  0.579671714346879 0.1955441268455555 0  0.5705023726275059 0.1953463527168462 0  0.5112451461103119 0.2035640580783926 0  0.4964137289934448 0.2035640580783915 0  0.4665727251511405 0.2038238154617746 0  0.5259274680675793 0.2038006696000127 0  0.4815823118765752 0.2035640580783898 0  0.4517504165552094 0.2039070625502732 0  0.4071070238280551 0.1961993303999926 0  0.3234846806957546 0.2047001437739977 0  0.5551679484379799 0.1952998562260008 0  0.5457754356464107 0.1954447171286166 0  0.3329307555206357 0.2046017509710421 0  0.4541577316841968 0.1960357661898101 0  0.3358300776141575 0.1950765652117375 0  0.2539718587514912 0.200011552766824 0  0.5826472073721517 0.2039971170156656 0  0.2761021761080182 0.1946948236183283 0  0.3898581462796225 0.2041572776584344 0  0.3552515063402743 0.2041572776584256 0  0.2965028074750666 0.2046578268138723 0  0.4299158836614793 0.1951782397873778 0  0.379426563923736 0.2049969334481307 0  0.2860882692072842 0.2042624797643994 0  0.3449948044168807 0.2051793676155613 0  0.2603922435707652 0.1950997711614917 0  0.5949856943860
[...]
<PointData  Vectors="f_18-1"> 
<DataArray  type="Float64"  Name="f_18-1"  NumberOfComponents="3" format="ascii">-1.2523222444919546e-02 -7.6007584367317679e-02 0.0000000000000000e+00  -6.7376496706413333e-03 -7.6862720883044092e-02 0.0000000000000000e+00  0.0000000000000000e+00 0.0000000000000000e+00 0.0000000000000000e+00  0.0000000000000000e+00 0.0000000000000000e+00 0.0000000000000000e+00  -9.6303960684992768e-03 -7.6435129064759202e-02 0.0000000000000000e+00  0.0000000000000000e+00 0.0000000000000000e+00 0.0000000000000000e+00  0.0000000000000000e+00 0.0000000000000000e+00 0.0000000000000000e+00  0.0000000000000000e+00 0.0000000000000000e+00 0.0000000000000000e+00  0.0000000000000000e+00 0.0000000000000000e+00 0.0000000000000000e+00  1.0764552871843098e-04 -9.4455515996429059e-05 0.0000000000000000e+00  2.2520400203342208e-04 -1.9741614631424854e-04 0.0000000000000000e+00  3.4093033764722640e-04 -3.2862698863401118e-04 0.0000000000000000e+00  4.4846713393590417e-04 -5.4635730430265385e-04 0.0000000000000000e+00  5.4817961835087288e-04 -8.1067910809161478e-04 0.0000000000000000e+00  6.4908247458412660e-04 -1.1410183691673516e-03 0.0000000000000000e+00  7.3670988276542933e-04 -1.5052378922876691e-03 0.0000000000000000e+00  8.1054528739878963e-04 -1.9290614074891836e-03 0.0000000000000000e+00  8.8156639278301810e-04 -2.3996444207605868e-03 0.0000000000000000e+00  9.4208887948291423e-04 -2.9165241714002891e-03 0.0000000000000000e+00  1.0017979108044688e-03 -3.4953915881786478e-03 0.0000000000000000e+00  1.0593878213063833e-03 -4.0840684608670361e-03 0.0000000000000000e+00  1.0955966537892292e-03 -4.7410448016063124e-03 0.0000000000000000e+00  1.1414794490230500e-03 -5.4351773353969813e-03 0.0000000000000000e+00  1.1638443061624966e-03 -6.1618081650994657e-03 0.0000000000000000e+00  1.1829744914343184e-03 -6.9372567800899988e-03 0.0000000000000000e+00  1.1929146778962790e-03 -7.7403400811174670e-03 0.0000000000000000e+00  1.1921517772035975e-03 -8.5903121896821096e-03 0.0000000000000000e+00  1.1809149791915912e-03 -9.4591031768439301e-03 0.0000000000000000e+00  1.1621447998691888e-03 -1.0367659241936302e-02 0.0000000000000000e+00  1.1336981300225438e-03 -1.1303335146220665e-02 0.0000000000000000e+00  1.0950372478693961e-03 -1.2265602687808928e-02 0.0000000000000000e+00  1.0529261664456375e-03 -1.3271851791170054e-02 0.0000000000000000e+00  1.0092973319321631e-03 -1.4284389469189952e-02 0.0000000000000000e+00  9.5106192061342133e-04 -1.5335589713584345e-02 0.0000000000000000e+00  8.8472398432031722e-04 -1.6402497846126615e-02 0.0000000000000000e+00  8.1118301764853068e-04 -1.7498214005157619e-02 0.0000000000000000e+00  7.2984073305134027e-04 -1.8614392376057765e-02 0.0000000000000000e+00  6.3952287233858007e-04 -1.9749745582102570e-02 0.0000000000000000e+00  5.4515344529767736e-04 -2.0916959132599396e-02 0.0000000000000000e+00  4.4952532381482043e-04 -2.2087113437009216e-02 0.0000000000000000e+00  3.3909148302066120e-04 -2.3284222391935495e-02 0.0000000000000000e+00  2.2466732598469779e-04 -2.4502924071520174e-02 0.0000000000000000e+00  1.0837893072391220e-04 -2.5726516131424113e-02 0.0000000000000000e+00  -2.0180537248932367e-05 -2.6973594769582936e-02 0.0000000000000000e+00  -1.4780529165505776e-04 -2.8232720253923180e-02 0.0000000000000000e+00  -2.8601638318298165e-04 -2.9505279936961098e-02 0.0000000000000000e+00  -4.2499135350536029e-04 -3.0793926523712826e-02 0.0000000000000000e+00  -5.7210998930955410e-04 -3.2091193802564616e-02 0.0000000000000000e+00  -7.2447563453624075e-04 -3.3402068439656429e-02 0.0000000000000000e+00  -8.7926628549290120e-04 -3.4722583821622001e-02 0.0000000000000000e+00  -1.0378400932162706e-03 -3.6054099757257367e-02 0.0000000000000000e+00  -1.2027208799258089e-03 -3.7395080185074266e-02 0.0000000000000000e+00  -1.3694806778180193e-03 -3.8744275767932469e-02 0.0000000000000000e+00  -1.5397771421981168e-03 -4.0102872841606199e-02 0.0000000000000000e+00  -1.7153610856782545e-03 -4.1469253328917800e-02 0.0000000000000000e+00  -1.8930146442425568e-03 -4.2842278778059337e-02 0.0000000000000000e+00  -2.0736534295125856e-03 -4.4222954883793159e-02 0.0000000000000000e+00  -2.2584685134529737e-03 -4.5609393627307239e-02 0.0000000000000000e+00  -2.4450743900015048e-03 -4.7001085290219388e-02 0.0000000000000000e+00  -2.6341242903242610e-03 -4.8398691106260973e-02 0.0000000000000000e+00  -2.8265536010828752e-03 -4.9800763436216908e-02 0.0000000000000000e+00  -3.0204801469363449e-03 -5.1206773085566482e-02 0.0000000000000000e+00  -3.2164382230399215e-03 -5.2617212338630814e-02 0.0000000000000000e+00  -3.4150525760891877e-03 -5.4030857826037518e-02 0.0000000000000000e+00  -3.6147427193968084e-03 -5.5447440064755375e-02 0.0000000000000000e+00  -3.8160760759291330e-03 -5.6867043873874576e-02 0.0000000000000000e+00  -4.0191766137284745e-03 -5.8288896664959192e-02 0.0000000000000000e+00  -4.2237812783375035e-03 -5.9712388819432499e-02 0.0000000000000000e+00  -4.4298738638448168e-03 -6.1137863283380459e-02 0.0000000000000000e+00  -4.6368764644338896e-03 -6.2565021683141472e-02 0.0000000000000000e+00  -4.8442395923150418e-03 -6.3992397107826296e-02 0.0000000000000000e+00  -5.0529433266494807e-03 -6.5421304335266509e-02 0.0000000000000000e+00  -5.2619275537669988e-03 -6.6850816901835863e-02 0.0000000000000000e+00  -5.4717398761944284e-03 -6.8280666752739985e-02 0.0000000000000000e+00  -5.6821362006478056e-03 -6.9711024151792547e-02 0.0000000000000000e+00  -5.8927651743583180e-03 -7.1141358915853548e-02 0.0000000000000000e+00  -6.1037909971480087e-03 -7.2571794748060220e-02 0.0000000000000000e+00  -6.3150108254377210e-03 -7.4002248868700951e-02 0.0000000000000000e+00  -6.5262859706553171e-03 -7.5432505138712302e-02 0.0000000000000000e+00  -1.2311816685565193e-02 -7.4577362127502489e-02 0.0000000000000000e+00  -1.2100342303277107e-02 -7.3147081860344715e-02 0.0000000000000000e+00  -1.1888763927111405e-02 -7.1716716601393948e-02 0.0000000000000000e+00  -1.1677023994524827e-02 -7.0286414294068761e-02 0.0000000000000000e+00  -1.1465152160273714e-02 -6.8856351498210316e-02 0.0000000000000000e+00  -1.1253079256661915e-02 -6.7426449452440057e-02 0.0000000000000000e+00  -1.1040824904408072e-02 -6.5997247512286999e-02 0.0000000000000000e+00  -1.0828153443633602e-02 -6.4568809506486122e-02 0.0000000000000000e+00  -1.0615559121917834e-02 -6.3141004208512916e-02 0.0000000000000000e+00  -1.0402726010116634e-02 -6.1714792220340625e-02 0.0000000000000000e+00  -1.0189674114228135e-02 -6.0289523011407227e-02 0.0000000000000000e+00  -9.9769920486435237e-03 -5.8866296351199617e-02 0.0000000000000000e+00  -9.7640542083202737e-03 -5.7445799758106493e-02 0.0000000000000000e+00  -9.5505826560218724e-03 -5.6026050214483987e-02 0.0000000000000000e+00  -9.3380021174437750e-03 -5.4609894217892120e-02 0.0000000000000000e+00  -9.1251765189691303e-03 -5.3198062858909982e-02 0.0000000000000000e+00  -8.9118137164673466e-03 -5.1787417814322903e-02 0.0000000000000000e+00  -8.7001638398282212e-03 -5.0381981151198560e-02 0.0000000000000000e+00  -8.4882739166238751e-03 -4.8982378674422650e-02 0.0000000000000000e+00  -8.2757720383277271e-03 -4.7584380725225695e-02 0.0000000000000000e+00  -8.0657893622867738e-03 -4.6193423718061906e-02 0.0000000000000000e+00  -7.8556261206849595e-03 -4.4810096350768193e-02 0.0000000000000000e+00  -7.6447797928677766e-03 -4.3428832015819770e-02 0.0000000000000000e+00  -7.4373577100257686e-03 -4.2056616236358722e-02 0.0000000000000000e+00  -7.2297800174045352e-03 -4.0694202546525345e-02 0.0000000000000000e+00  -7.0217924490948887e-03 -3.9335375009079188e-02 0.0000000000000000e+00  -6.8166525711068383e-03 -3.7986338401951709e-02 0.0000000000000000e+00  -6.6121156027811653e-03 -3.6649983761678995e-02 0.0000000000000000e+00  -6.4076163832367597e-03 -3.5316072729982939e-02 0.0000000000000000e+00  -6.2089550762433592e-03 -3.3995637053098014e-02 0.0000000000000000e+00  -6.0090661313274788e-03 -3.2691540870949228e-02 0.0000000000000000e+00  -5.8084088210988236e-03 -3.1391293112245991e-02 0.0000000000000000e+00  -5.6124710590984483e-03 -3.0108052054162532e-02 0.0000000000000000e+00  -5.4191522982194543e-03 -2.8833482291018425e-02 0.0000000000000000e+00  -5.2276445425964695e-03 -2.7573701235080343e-02 0.0000000000000000e+00  -5.0404935856135005e-03 -2.6332190875103030e-02 0.0000000000000000e+00  -4.8507472603999081e-03 -2.5101231865797709e-02 0.0000000000000000e+00  -4.6665729410542145e-03 -2.3888888359706342e-02 0.0000000000000000e+00  -4.4818969296655572e-03 -2.2692907677778689e-02 0.0000000000000000e+00  -4.2985570799949236e-03 -2.1516164961360881e-02 0.0000000000000000e+00  -4.1194608269574558e-03 -2.0359776168960727e-02 0.0000000000000000e+00  -3.9468212073535220e-03 -1.9218403390565540e-02 0.0000000000000000e+00  -3.7782785581186359e-03 -1.8100386982629526e-02 0.0000000000000000e+00  -3.6020860467708042e-03 -1.7000677300455614e-02 0.0000000000000000e+00  -3.4383918910857350e-03 -1.5926736335102578e-02 0.0000000000000000e+00  -3.2690154606529391e-03 -1.4880827886808863e-02 0.0000000000000000e+00  -3.1103607327472890e-03 -1.3853984826768096e-02 0.0000000000000000e+00  -2.9524164721629973e-03 -1.2859781213133177e-02 0.0000000000000000e+00  -2.8017616351591265e-03 -1.1884909518712980e-02 0.0000000000000000e+00  -2.6560366411159586e-03 -1.0942133259565407e-02 0.0000000000000000e+00  -2.4994652956008556e-03 -1.0023171194197157e-02 0.0000000000000000e+00  -2.3587045440339005e-03 -9.1374174634399445e-03 0.0000000000000000e+00  -2.2082954068156700e-03 -8.2894710982479997e-03 0.0000000000000000e+00  -2.0756595262819608e-03 -7.4691519336651385e-03 0.0000000000000000e+00  -1.9423167948734821e-03 -6.6981949405917644e-03 0.0000000000000000e+00  -1.8055925042615810e-03 -5.9385899392005049e-03 0.0000000000000000e+00  -1.6798202948108275e-03 -5.2324652142027844e-03 0.0000000000000000e+00  -1.5384948764627154e-03 -4.5631136458135664e-03 0.0000000000000000e+00  -1.4167636671884758e-03 -3.9298272327279544e-03 0.0000000000000000e+00  -1.2932088225032789e-03 -3.3509259758314142e-03 0.0000000000000000e+00  -1.1757635978971283e-03 -2.8023419852919122e-03 0.0000000000000000e+00  -1.0622009383403333e-03 -2.3068441857315310e-03 0.0000000000000000e+00  -9.3331478074633073e-04 -1.8479102185682418e-03 0.0000000000000000e+00  -8.2536484900896999e-04 -1.4388442049502977e-03 0.0000000000000000e+00  -6.9864516951449436e-04 -1.0794069776290738e-03 0.0000000000000000e+00  -5.8790328127150400e-04 -7.8001008367322344e-04 0.0000000000000000e+00  -4.6078039563706243e-04 -5.3189762690531827e-04 0.0000000000000000e+00  -3.4533804319684914e-04 -3.2262100178384427e-04 0.0000000000000000e+00  -2.3106433798267826e-04 -1.7576121632938434e-04 0.0000000000000000e+00  -1.1505675569737113e-04 -9.9722665017408578e-05 0.0000000000000000e+00  -1.1076768458549293e-02 -7.6221367997082790e-02 0.0000000000000000e+00  -8.1840474574635617e-03 -7.6648911965406227e-02 0.0000000000000000e+00  1.2508148564234063e-05 -9.7949267973212339e-05 0.0000000000000000e+00  -7.2045426485788620e-03 -5.9998949632224650e-02 0.0000000000000000e+00  -8.2811123128303920e-03 -6.7244974573616889e-02 0.0000000000000000e+00  2.3918916407752736e-05 -9.5339321121062914e-04 0.0000000000000000e+00  -6.0035196006996538e-03 -5.1592771798049823e-02 0.0000000000000000e+00  -6.6219926930376439e-03 -5.5834405325197643e-02 0.0000000000000000e+00  -1.5264164489426363e-04 -2.3833627812441397e-03 0.0000000000000000e+00  -9.0261193545015730e-03 -7.1432847365088981e-02 0.0000000000000000e+00  -1.8991945087684390e-04 -4.2181623267076029e-03 0.0000000000000000e+00  -3.5400609258666937e-04 -8.2341869099172363e-03 0.0000000000000000e+00  -5.3954080314606795e-03 -4.7385935468364268e-02 0.0000000000000000e+00  -7.9541728492984283e-04 -1.1559802035680470e-02 0.0000000000000000e+00  -4.8011100680926495e-03 -4.3225804300797581e-02 0.0000000000000000e+00  -1.1097496314127011e-03 -1.4677195243649618e-02 0.0000000000000000e+00  -1.5787199964276812e-03 -1.8892676018604147e-02 0.0000000000000000e+00  -4.3084954174617196e-03 -3.9010400288981693e-02 0.0000000000000000e+00  -3.6295099548697748e-03 -3.5008368420213008e-02 0.0000000000000000e+00  -1.9568251041328644e-03 -2.2282482595907829e-02 0.0000000000000000e+00  -2.4430744250497267e-03 -2.6009048781066163e-02 0.0000000000000000e+00  -3.0826388366692499e-03 -3.0911700621894210e-02 0.0000000000000000e+00  -2.7769597951794180e-04 -5.5678229888422200e-03 0.0000000000000000e+00  -7.8554454127627796e-03 -6.4402458645936370e-02 0.0000000000000000e+00  -2.7565992146937868e-03 -2.8160072920620609e-02 0.0000000000000000e+00  -6.1947893236825055e-04 -9.9534883326474703e-03 0.0000000000000000e+00  -1.3297217779982510e-03 -1.6978935273690661e-02 0.0000000000000000e+00  -5.0098662072052917e-05 -1.6220919150285980e-03 0.0000000000000000e+00  -9.7584616457992279e-03 -7.3791728906634491e-02 0.0000000000000000e+00  6.1271075577945097e-05 -4.2576678265151473e-04 0.0000000000000000e+00  -3.2953214506181989e-03 -3.7092898703670787e-02 0.0000000000000000e+00  -4.4251425308541904e-03 -4.5291232616667905e-02 0.0000000000000000e+00  -5.0187742896599039e-03 -4.9477146136384542e-02 0.0000000000000000e+00  -2.3049294358066471e-03 -2.0547904020986777e-02 0.0000000000000000e+00  -3.8491870341030520e-03 -4.1158182329157432e-02 0.0000000000000000e+00  -5.6264758163242267e-03 -5.3703411909845997e-02 0.0000000000000000e+00  -2.7685342926932564e-03 -3.3110778251400713e-02 0.0000000000000000e+00  -6.2447900357975525e-03 -5.7958958715667683e-02 0.0000000000000000e+00  -2.7625399298406282e-03 -2.4104656529612370e-02 0.0000000000000000e+00  -1.3927521101993034e-03 -1.2980721248827628e-02 0.0000000000000000e+00  -3.9202909136739055e-04 -3.3463223088823152e-03 0.0000000000000000e+00  -9.2239948070421806e-03 -6.9187014981810624e-02 0.0000000000000000e+00  -8.3424670210206168e-03 -6.1986466529328058e-02 0.0000000000000000e+00  7.2248419020482378e-05 -6.8165164150084789e-03 0.0000000000000000e+00  -6.3217323816785439e-03 -6.1682550548430158e-02 0.0000000000000000e+00  -1.0096840880634390e-03 -7.0643853058613166e-03 0.0000000000000000e+00  -8.0966510809140826e-03 -5.8331035987395918e-02 0.0000000000000000e+00  -7.4667199383749343e-03 -5.4075058200765087e-02 0.0000000000000000e+00  -6.8428481807660561e-03 -4.9848116702293534e-02 0.0000000000000000e+00  -7.5467741976469544e-03 -7.0082515442945900e-02 0.0000000000000000e+00  3.1287227545664969e-04 -3.1393196350356029e-03 0.0000000000000000e+00  -5.6242195003751499e-03 -4.1526925113091667e-02 0.0000000000000000e+00  -6.2276502973808686e-03 -4.5661181747522192e-02 0.0000000000000000e+00  -8.2203538407919178e-04 -2.0206451961772176e-02 0.0000000000000000e+00  -1.2918630631147162e-04 -1.2667894945008190e-02 0.0000000000000000e+00  -4.8679511533515143e-03 -3.6273162008710148e-02 0.0000000000000000e+00  -4.4658632690846014e-03 -3.3474855601032950e-02 0.0000000000000000e+00  -1.2042803273253021e-03 -2.3754934549388953e-02 0.0000000000000000e+00  -5.0096881039868953e-05 -4.2328708930372514e-05 0.0000000000000000e+00  3.7295959810723631e-05 -3.2967529315057616e-05 0.0000000000000000e+00  -1.9729549122313246e-03 -3.0028778641074356e-02 0.0000000000000000e+00  -2.0079886728686562e-03 -1.5424731760308771e-02 0.0000000000000000e+00  -1.2342401438746673e-03 -8.7956196285651385e-03 0.0000000000000000e+00  -3.2173123548227676e-04 -1.2282546893887354e-03 0.0000000000000000e+00  -4.2485177057652686e-04 -2.0670257126615427e-03 0.0000000000000000e+00  -1.6120273848456523e-03 -2.7433635640161234e-02 0.0000000000000000e+00  -1.4348576774203005e-03 -1.0516193442871555e-02 0.0000000000000000e+00  -2.3262568079862808e-03 -1.7635222432519106e-02 0.0000000000000000e+00  -7.7047136193348850e-04 -5.0268781891784128e-03 0.0000000000000000e+00  -6.9207274073316933e-03 -6.5648090549259755e-02 0.0000000000000000e+00  -9.1583626788821811e-03 -6.5402341847861242e-02 0.0000000000000000e+00  2.8515826372191809e-04 -5.0456104736817994e-03 0.0000000000000000e+00  -2.2602690845836292e-04 -5.8790003379360293e-04 0.0000000000000000e+00  -7.7214038530237731e-03 -7.2963185168921668e-02 0.0000000000000000e+00  -4.1120883920186509e-03 -2.9713659376716977e-02 0.0000000000000000e+00  -3.6371473763582188e-03 -2.7083194648961580e-02 0.0000000000000000e+00  2.8789803147182956e-04 -8.8693489179424399e-03 0.0000000000000000e+00  3.0796723708574115e-04 -1.2258084449916511e-03 0.0000000000000000e+00  3.7355810966492007e-04 -2.1250188461658217e-03 0.0000000000000000e+00  -2.3965252778763210e-04 -1.5648515661949827e-02 0.0000000000000000e+00  2.5735303147096314e-04 -1.0640739238551165e-02 0.0000000000000000e+00  -2.9270640504994324e-04 -1.7817761363574051e-02 0.0000000000000000e+00  -1.4172767527159165e-04 -3.0819793121204765e-04 0.0000000000000000e+00  -8.2186507001688232e-03 -7.4966094051614723e-02 0.0000000000000000e+00  -7.9871434459312142e-03 -5.6637086894205400e-02 0.0000000000000000e+00  -7.3587140460292183e-03 -5.2391671880129616e-02 0.0000000000000000e+00  3.6257139746598179e-04 -3.8356631776812851e-03 0.0000000000000000e+00  -6.7369242791379342e-03 -4.8179507539080749e-02 0.0000000000000000e+00  -7.1623586330541939e-03 -6.8421437254075568e-02 0.0000000000000000e+00  -6.1246163209558316e-03 -4.4012236550553183e-02 0.0000000000000000e+00  -5.5276435508399262e-03 -3.9914839431153315e-02 0.0000000000000000e+00  -1.2936532988308742e-04 -1.3863018794244989e-02 0.0000000000000000e+00  -5.2230985085454772e-03 -3.7822330957195296e-02 0.0000000000000000e+00  -8.5706742938145605e-04 -2.1593625247840916e-02 0.0000000000000000e+00  -4.3806103813497669e-03 -3.1919714146712214e-02 0.0000000000000000e+00  -1.2505203379098964e-03 -2.5205635830763434e-02 0.0000000000000000e+00  -1.0299451448071307e-02 -7.2346845661531767e-02 0.0000000000000000e+00  -6.3934856460896956e-03 -6.3365424946345117e-02 0.0000000000000000e+00  -9.9585188501912143e-04 -6.1633288643121948e-03 0.0000000000000000e+00  2.4446614177455476e-04 -6.4432963432747316e-04 0.0000000000000000e+00  1.3083209572509492e-04 -2.4751771191604597e-04 0.0000000000000000e+00  -2.4781688672332342e-03 -3.5890331958804256e-02 0.0000000000000000e+00  -3.4681726265140267e-03 -2.5181077798374425e-02 0.0000000000000000e+00  -3.0100500512052152e-03 -3.9933849318648067e-02 0.0000000000000000e+00  -4.7723154575530337e-03 -5.2430010561189073e-02 0.0000000000000000e+00  -3.5949039952222384e-03 -4.4041556444673884e-02 0.0000000000000000e+00  -4.1750275825308686e-03 -4.8213909180662519e-02 0.0000000000000000e+00  -2.8368143105847168e-03 -2.1677782715254192e-02 0.0000000000000000e+00  -2.0235255671390531e-03 -3.1957615041749668e-02 0.0000000000000000e+00  -1.9520365429274574e-03 -1.3892593421912167e-02 0.0000000000000000e+00  -2.7161324061129128e-03 -1.9379459384299646e-02 0.0000000000000000e+00  -5.7548593401818005e-03 -5.9436536727654907e-02 0.0000000000000000e+00  -1.7523260101782662e-03 -1.1992384166120430e-02 0.0000000000000000e+00  -5.5756341939346638e-03 -5.6595972074032962e-02 0.0000000000000000e+00  -7.1634852201465774e-04 -3.8903918261980080e-03 0.0000000000000000e+00  -6.0109197261575659e-04 -2.8033320316899631e-03 0.0000000000000000e+00  -1.0049727864954566e-02 -7.0363168959150263e-02 0.0000000000000000e+00  -9.7142542599999767e-03 -6.7702176997396474e-02 0.0000000000000000e+00  -4.8562400092832282e-03 -5.1002814935645284e-02 0.0000000000000000e+00  -4.2610871102492310e-03 -4.6800359806964675e-02 0.0000000000000000e+00  -3.0503244264605193e-03 -3.8515086666140640e-02 0.0000000000000000e+00  -5.3914100928353749e-03 -5.5208481345098676e-02 0.0000000000000000e+00  -3.6835101702438183e-03 -4.2645985596144916e-02 0.0000000000000000e+00  -2.5010366790470971e-03 -3.4506836415137646e-02 0.0000000000000000e+00  -2.9767913525538376e-03 -2.2834794084510026e-02 0.0000000000000000e+00  3.7955697709480521e-04 -6.1147099873453481e-03 0.0000000000000000e+00  -9.0710871310831619e-03 -6.3268044418689245e-02 0.0000000000000000e+00  -8.6277181709140602e-03 -6.0564276470744229e-02 0.0000000000000000e+00  3.103