<?xml version="1.0"?>
<VTKFile type="UnstructuredGrid"  version="0.1"  >
<UnstructuredGrid>
<Piece  NumberOfPoints="439" NumberOfCells="725">
<Points>
<DataArray  type="Float64"  NumberOfComponents="3"  format="ascii">0.6 0.19 0  0.6 0.21 0  0.2489897949 0.21 0  0.2489897949 0.19 0  0.6 0.2 0  0.2496355385699469 0.2060260530378829 0  0.249959460510575 0.2020130349814059 0  0.2499594605105767 0.1979869650186357 0  0.24963553856995 0.1939739469621422 0  0.2539336006056293 0.21 0  0.2588774063112542 0.21 0  0.2638212120168921 0.21 0  0.26876501772253 0.21 0  0.2737088234281569 0.21 0  0.2786526291337753 0.21 0  0.2835964348393937 0.21 0  0.2885402405450166 0.21 0  0.2934840462506522 0.21 0  0.2984278519562708 0.21 0  0.3033716576618997 0.21 0  0.3083154633675181 0.21 0  0.3132592690731365 0.21 0  0.3182030747787549 0.21 0  0.3231468804843732 0.21 0  0.3280906861899917 0.21 0  0.3330344918956208 0.21 0  0.3379782976012284 0.21 0  0.3429221033068576 0.21 0  0.347865909012476 0.21 0  0.3528097147180944 0.21 0  0.3577535204237128 0.21 0  0.3626973261293311 0.21 0  0.3676411318349495 0.21 0  0.3725849375405788 0.21 0  0.3775287432461877 0.21 0  0.382472548951812 0.21 0  0.3874163546574338 0.21 0  0.3923601603630631 0.21 0  0.3973039660686706 0.21 0  0.4022477717742986 0.21 0  0.4071915774799107 0.21 0  0.4121353831855311 0.21 0  0.4170791888911518 0.21 0  0.4220229945967636 0.21 0  0.4269668003023918 0.21 0  0.4319106060080253 0.21 0  0.4368544117136773 0.21 0  0.4417982174193329 0.21 0  0.4467420231249967 0.21 0  0.4516858288306445 0.21 0  0.4566296345362864 0.21 0  0.461573440241916 0.21 0  0.4665172459475665 0.21 0  0.4714610516531998 0.21 0  0.4764048573588668 0.21 0  0.4813486630645134 0.21 0  0.486292468770176 0.21 0  0.4912362744758066 0.21 0  0.4961800801814611 0.21 0  0.5011238858870897 0.21 0  0.5060676915927493 0.21 0  0.5110114972983872 0.21 0  0.5159553030040036 0.21 0  0.5208991087096415 0.21 0  0.5258429144153002 0.21 0  0.5307867201209391 0.21 0  0.5357305258265987 0.21 0  0.5406743315322367 0.21 0  0.5456181372378529 0.21 0  0.5505619429434908 0.21 0  0.5555057486491456 0.21 0  0.5604495543547885 0.21 0  0.565393360060448 0.21 0  0.5703371657661116 0.21 0  0.5752809714717458 0.21 0  0.5802247771773834 0.21 0  0.5851685828830341 0.21 0  0.5901123885886809 0.21 0  0.5950561942943404 0.21 0  0.5950561942943833 0.19 0  0.590112388588758 0.19 0  0.5851685828831193 0.19 0  0.5802247771774727 0.19 0  0.5752809714718514 0.19 0  0.5703371657662308 0.19 0  0.565393360060618 0.19 0  0.5604495543549889 0.19 0  0.5555057486493581 0.19 0  0.5505619429437035 0.19 0  0.5456181372381043 0.19 0  0.540674331532505 0.19 0  0.5357305258268962 0.19 0  0.530786720121263 0.19 0  0.5258429144156628 0.19 0  0.5208991087100244 0.19 0  0.5159553030044218 0.19 0  0.5110114972988226 0.19 0  0.5060676915932177 0.19 0  0.5011238858875806 0.19 0  0.496180080181972 0.19 0  0.4912362744763531 0.19 0  0.4862924687707343 0.19 0  0.4813486630651046 0.19 0  0.4764048573594966 0.19 0  0.4714610516538683 0.19 0  0.4665172459482555 0.19 0  0.4615734402426349 0.19 0  0.4566296345370104 0.19 0  0.4516858288313808 0.19 0  0.4467420231257716 0.19 0  0.4417982174201465 0.19 0  0.4368544117145297 0.19 0  0.4319106060089131 0.19 0  0.4269668003032866 0.19 0  0.4220229945976482 0.19 0  0.4170791888920056 0.19 0  0.4121353831863594 0.19 0  0.4071915774806995 0.19 0  0.4022477717750478 0.19 0  0.3973039660693901 0.19 0  0.3923601603637548 0.19 0  0.3874163546581082 0.19 0  0.3824725489524824 0.19 0  0.3775287432468258 0.19 0  0.3725849375411773 0.19 0  0.3676411318355085 0.19 0  0.3626973261298614 0.19 0  0.3577535204242108 0.19 0  0.352809714718589 0.19 0  0.347865909012931 0.19 0  0.342922103307292 0.19 0  0.3379782976016536 0.19 0  0.3330344918960152 0.19 0  0.3280906861903751 0.19 0  0.3231468804847171 0.19 0  0.3182030747790592 0.19 0  0.3132592690734012 0.19 0  0.3083154633677581 0.19 0  0.3033716576621197 0.19 0  0.2984278519564813 0.19 0  0.2934840462508429 0.19 0  0.2885402405451874 0.19 0  0.2835964348395295 0.19 0  0.2786526291338716 0.19 0  0.2737088234282243 0.19 0  0.268765017722586 0.19 0  0.2638212120169476 0.19 0  0.2588774063113093 0.19 0  0.2539336006056579 0.19 0  0.6 0.1949999999999783 0  0.6 0.2049999999999729 0  0.2589734265316493 0.2005523893428403 0  0.5431462343853077 0.199999999999969 0  0.5682397894768162 0.1999704585808987 0  0.2774513927118024 0.2007941919421926 0  0.513849583376897 0.1999023426490919 0  0.5286810004937381 0.1999023426490969 0  0.2945108952057646 0.1992911908405386 0  0.5827780831384927 0.1995429801003349 0  0.3104128396569256 0.1999704585808978 0  0.3370001755418551 0.2008294612433967 0  0.4990181662600459 0.1999023426490902 0  0.3552816175709044 0.2000000000000608 0  0.4841867491431925 0.1999023426490849 0  0.3707373713905551 0.2000142376953689 0  0.3898882575102495 0.2000000000000828 0  0.4689857550492734 0.1995416724256694 0  0.4541577316841967 0.1999999999999098 0  0.4043534914018331 0.2000976573509244 0  0.4195510917439569 0.2000000000001057 0  0.4387019778644512 0.1999857623046772 0  0.3202472750256703 0.2000088842146399 0  0.5584053541080851 0.1999911157853577 0  0.4280667146887134 0.1998489048208241 0  0.3467659946265474 0.2001510951794375 0  0.3813726345658908 0.200151095179452 0  0.2860683376922098 0.2000415445706182 0  0.5911223811781194 0.1982449159348744 0  0.2679893161458627 0.201675125646729 0  0.4615734402426278 0.2022503633288003 0  0.4912362744763454 0.2022503633288091 0  0.5060676915931983 0.2022503633288118 0  0.3973039660686774 0.1977496366711965 0  0.4764048573594896 0.2022503633288051 0  0.5208991087100455 0.2022503633288184 0  0.4467420231257656 0.2022503633288 0  0.5357305258268849 0.2022503633288198 0  0.4121353831855317 0.1977496366711976 0  0.3626973261293352 0.1977496366711919 0  0.3033716576618961 0.1977496366711869 0  0.5752809714718229 0.1977496366711503 0  0.550459855919056 0.1971284784737667 0  0.3281927732146841 0.2028715215262406 0  0.5484179020497461 0.2038403215694763 0  0.3302347270839988 0.1961596784305491 0  0.5379210852238114 0.196125181664411 0  0.5230896681069652 0.1961251816644058 0  0.5082582509901222 0.1961251816644098 0  0.5774715308687094 0.2038748183355887 0  0.3011810982649548 0.2038748183355937 0  0.4785954167564111 0.196125181664404 0  0.4934268338732671 0.1961251816644063 0  0.395113406671763 0.2038748183355966 0  0.3605067667324117 0.2038748183355951 0  0.4593828808457146 0.1961251816643993 0  0.4489325825226805 0.1961251816644007 0  0.4099448237886219 0.2038748183355991 0  0.2557862999801971 0.1960858370257295 0  0.2550147360309399 0.2034426429991114 0  0.4348031476464689 0.2037737577641554 0  0.37463620160841 0.1962262422358553 0  0.3406258365864304 0.196046792193989 0  0.2813001681189834 0.1960467921940502 0  0.2912686387439893 0.1960816328649282 0  0.4246705335819892 0.2039532078059544 0  0.350162175732913 0.1960467921941878 0  0.3847688156722694 0.1960467921942359 0  0.316632368538356 0.19615945856337 0  0.5621550011053409 0.2037816492598991 0  0.5624413877019769 0.1960761923611377 0  0.3162395035833128 0.2038679557424692 0  0.2710887134207622 0.1959696443325838 0  0.5873014376403604 0.2047227881030823 0  0.4346679566442709 0.1954651459552513 0  0.4243296504077986 0.1958756980939062 0  0.3402559510833523 0.2047940500290923 0  0.2808684926760933 0.2047742417812656 0  0.2914077033138723 0.2047809517070955 0  0.3747713926104932 0.2045348540448554 0  0.3499216488898867 0.2051753413186305 0  0.3845282888292298 0.205175341318636 0  0.2648144865455052 0.1962089742986374 0  0.5943247643662894 0.2040415423589182 0  0.5320972610456145 0.1956445099050872 0  0.5172658439287727 0.1956445099050854 0  0.3069923255602658 0.2043468033872551 0  0.5024344268119265 0.1956445099050864 0  0.5716603035734351 0.2043468033872761 0  0.4876030096950741 0.1956445099050831 0  0.4728151975296263 0.1956402468909894 0  0.3663301776527538 0.20436745486386 0  0.4651631000724991 0.1956402468909893 0  0.4009372308499527 0.2043554900949198 0  0.4431091716023345 0.1956325451361429 0  0.4157593408842466 0.2043565497109067 0  0.5865057328865416 0.1956918868509067 0  0.5541600609760193 0.2044335994013721 0  0.3244925681577497 0.1955664005986376 0  0.272008018888917 0.2049327968152409 0  0.2633407725863902 0.2042483236346266 0  0.4567948413982566 0.2046536472831198 0  0.4167680012832803 0.1955060004091903 0  0.4716262585151221 0.2046536472831242 0  0.5161054367030595 0.2045563706470633 0  0.4864426024693469 0.2045563706470604 0  0.5012740195862044 0.2045563706470634 0  0.4022810343427545 0.1961423961483001 0  0.4420739040821668 0.2044853411424516 0  0.3673807293464664 0.1955677741328205 0  0.3925253672243162 0.195346352716901 0  0.5405091246712254 0.2046536472831267 0  0.357918727284983 0.1953463527168901 0  0.5307534575528717 0.2038576038516682 0  0.3079697655029555 0.1955637092892754 0  0.2985930588175599 0.1953463527168728 0  0.579671714346879 0.1955441268455555 0  0.5705023726275059 0.1953463527168462 0  0.5112451461103119 0.2035640580783926 0  0.4964137289934448 0.2035640580783915 0  0.4665727251511405 0.2038238154617746 0  0.5259274680675793 0.2038006696000127 0  0.4815823118765752 0.2035640580783898 0  0.4517504165552094 0.2039070625502732 0  0.4071070238280551 0.1961993303999926 0  0.3234846806957546 0.2047001437739977 0  0.5551679484379799 0.1952998562260008 0  0.5457754356464107 0.1954447171286166 0  0.3329307555206357 0.2046017509710421 0  0.4541577316841968 0.1960357661898101 0  0.3358300776141575 0.1950765652117375 0  0.2539718587514912 0.200011552766824 0  0.5826472073721517 0.2039971170156656 0  0.2761021761080182 0.1946948236183283 0  0.3898581462796225 0.2041572776584344 0  0.3552515063402743 0.2041572776584256 0  0.2965028074750666 0.2046578268138723 0  0.4299158836614793 0.1951782397873778 0  0.379426563923736 0.2049969334481307 0  0.2860882692072842 0.2042624797643994 0  0.3449948044168807 0.2051793676155613 0  0.2603922435707652 0.1950997711614917 0  0.5949856943860
[...]
<PointData  Vectors="f_18-1"> 
<DataArray  type="Float64"  Name="f_18-1"  NumberOfComponents="3" format="ascii">-2.7024832445178618e-02 -1.1414660568303778e-01 0.0000000000000000e+00  -1.8222161879208627e-02 -1.1618711889271481e-01 0.0000000000000000e+00  0.0000000000000000e+00 0.0000000000000000e+00 0.0000000000000000e+00  0.0000000000000000e+00 0.0000000000000000e+00 0.0000000000000000e+00  -2.2623553595483938e-02 -1.1516668985568802e-01 0.0000000000000000e+00  0.0000000000000000e+00 0.0000000000000000e+00 0.0000000000000000e+00  0.0000000000000000e+00 0.0000000000000000e+00 0.0000000000000000e+00  0.0000000000000000e+00 0.0000000000000000e+00 0.0000000000000000e+00  0.0000000000000000e+00 0.0000000000000000e+00 0.0000000000000000e+00  1.5214164591404627e-04 -1.3286561551397827e-04 0.0000000000000000e+00  3.1970607876208979e-04 -2.8030044194597492e-04 0.0000000000000000e+00  4.8477493468020752e-04 -4.6947654730554656e-04 0.0000000000000000e+00  6.3705675908479924e-04 -7.8569596223848528e-04 0.0000000000000000e+00  7.7718594686203507e-04 -1.1714212473890866e-03 0.0000000000000000e+00  9.1710081274163008e-04 -1.6550164357823332e-03 0.0000000000000000e+00  1.0362893151035235e-03 -2.1895885287084192e-03 0.0000000000000000e+00  1.1324719173405190e-03 -2.8123028299801749e-03 0.0000000000000000e+00  1.2218838271666236e-03 -3.5050519783867825e-03 0.0000000000000000e+00  1.2929180832137916e-03 -4.2667114298365217e-03 0.0000000000000000e+00  1.3583478396110510e-03 -5.1214430093023556e-03 0.0000000000000000e+00  1.4201420553627501e-03 -5.9914148460435334e-03 0.0000000000000000e+00  1.4447001589059712e-03 -6.9626981749104956e-03 0.0000000000000000e+00  1.4806328652694329e-03 -7.9918040906058543e-03 0.0000000000000000e+00  1.4784635399552300e-03 -9.0687516969795243e-03 0.0000000000000000e+00  1.4664877634528849e-03 -1.0221044824010980e-02 0.0000000000000000e+00  1.4377922640640862e-03 -1.1415699972391634e-02 0.0000000000000000e+00  1.3872857916230345e-03 -1.2682568099322793e-02 0.0000000000000000e+00  1.3182056960777629e-03 -1.3978745117751441e-02 0.0000000000000000e+00  1.2321934072732554e-03 -1.5336793161704745e-02 0.0000000000000000e+00  1.1271979942095993e-03 -1.6736925765793408e-02 0.0000000000000000e+00  1.0020621564661588e-03 -1.8178087210386887e-02 0.0000000000000000e+00  8.6448778669901642e-04 -1.9688474544730470e-02 0.0000000000000000e+00  7.2343250183888336e-04 -2.1208873951972265e-02 0.0000000000000000e+00  5.5292633465303589e-04 -2.2787947317591747e-02 0.0000000000000000e+00  3.6695328479525394e-04 -2.4390601238427036e-02 0.0000000000000000e+00  1.6472805750408908e-04 -2.6037422507866555e-02 0.0000000000000000e+00  -5.3241108404122790e-05 -2.7715280507588782e-02 0.0000000000000000e+00  -2.8868474792334716e-04 -2.9422258133649702e-02 0.0000000000000000e+00  -5.3618336079787993e-04 -3.1179931224824670e-02 0.0000000000000000e+00  -7.8588081991684533e-04 -3.2942669622147910e-02 0.0000000000000000e+00  -1.0644625690690278e-03 -3.4747040168667268e-02 0.0000000000000000e+00  -1.3538753838348984e-03 -3.6587489128436464e-02 0.0000000000000000e+00  -1.6472059703125110e-03 -3.8436313563127690e-02 0.0000000000000000e+00  -1.9661339054182722e-03 -4.0322877356198834e-02 0.0000000000000000e+00  -2.2862750497015779e-03 -4.2230829431509687e-02 0.0000000000000000e+00  -2.6277024827875035e-03 -4.4159565787063336e-02 0.0000000000000000e+00  -2.9745576867848903e-03 -4.6115634292235558e-02 0.0000000000000000e+00  -3.3374763499094840e-03 -4.8084293394522776e-02 0.0000000000000000e+00  -3.7127201989529237e-03 -5.0074298974618660e-02 0.0000000000000000e+00  -4.0945004377055403e-03 -5.2079404052192219e-02 0.0000000000000000e+00  -4.4852880659857685e-03 -5.4101633557068894e-02 0.0000000000000000e+00  -4.8886707783445315e-03 -5.6137652215042737e-02 0.0000000000000000e+00  -5.2970049127203170e-03 -5.8186905802769466e-02 0.0000000000000000e+00  -5.7132220757126258e-03 -6.0251265188047062e-02 0.0000000000000000e+00  -6.1401235439934622e-03 -6.2327780494728841e-02 0.0000000000000000e+00  -6.5721001107193078e-03 -6.4415919985173764e-02 0.0000000000000000e+00  -7.0110552334442452e-03 -6.6517212635678710e-02 0.0000000000000000e+00  -7.4590827702123328e-03 -6.8628367281267158e-02 0.0000000000000000e+00  -7.9119291476493422e-03 -7.0748920163244466e-02 0.0000000000000000e+00  -8.3711119571803598e-03 -7.2879522136227365e-02 0.0000000000000000e+00  -8.8379257989425371e-03 -7.5017317817242843e-02 0.0000000000000000e+00  -9.3088470039761756e-03 -7.7161045620075433e-02 0.0000000000000000e+00  -9.7850023634549407e-03 -7.9311063120054065e-02 0.0000000000000000e+00  -1.0266455385410482e-02 -8.1464800675091167e-02 0.0000000000000000e+00  -1.0750505240422802e-02 -8.3621726528793766e-02 0.0000000000000000e+00  -1.1237875547923267e-02 -8.5781782219152336e-02 0.0000000000000000e+00  -1.1728111462138242e-02 -8.7943790594597171e-02 0.0000000000000000e+00  -1.2220422313248219e-02 -9.0107167035842484e-02 0.0000000000000000e+00  -1.2714767398351362e-02 -9.2272616135582047e-02 0.0000000000000000e+00  -1.3210373366798795e-02 -9.4440384493601731e-02 0.0000000000000000e+00  -1.3706275878089339e-02 -9.6608724751466757e-02 0.0000000000000000e+00  -1.4204184021054366e-02 -9.8779771123639906e-02 0.0000000000000000e+00  -1.4702440567887363e-02 -1.0095277022014833e-01 0.0000000000000000e+00  -1.5202480106199630e-02 -1.0312694036552519e-01 0.0000000000000000e+00  -1.5703950982138826e-02 -1.0530324044135959e-01 0.0000000000000000e+00  -1.6205987414373683e-02 -1.0747964510550952e-01 0.0000000000000000e+00  -1.6709453972497935e-02 -1.0965686569065672e-01 0.0000000000000000e+00  -1.7213549786557761e-02 -1.1183438022936767e-01 0.0000000000000000e+00  -1.7717683766366073e-02 -1.1401092173141621e-01 0.0000000000000000e+00  -2.6520225311043866e-02 -1.1197044417777523e-01 0.0000000000000000e+00  -2.6015358939748885e-02 -1.0979389376527755e-01 0.0000000000000000e+00  -2.5510100687603236e-02 -1.0761717072487287e-01 0.0000000000000000e+00  -2.5004291111419039e-02 -1.0544091988136436e-01 0.0000000000000000e+00  -2.4498298447138234e-02 -1.0326587896389679e-01 0.0000000000000000e+00  -2.3992100431396202e-02 -1.0109193853868600e-01 0.0000000000000000e+00  -2.3486267374199971e-02 -9.8920402200165819e-02 0.0000000000000000e+00  -2.2980190086260344e-02 -9.6751167928699436e-02 0.0000000000000000e+00  -2.2475131859220704e-02 -9.4583485487646127e-02 0.0000000000000000e+00  -2.1970608638197581e-02 -9.2418733241056081e-02 0.0000000000000000e+00  -2.1466458380271849e-02 -9.0255372562205366e-02 0.0000000000000000e+00  -2.0963607198670353e-02 -8.8094572767432794e-02 0.0000000000000000e+00  -2.0461004446723718e-02 -8.5936879914636638e-02 0.0000000000000000e+00  -1.9957818661428522e-02 -8.3779942348137904e-02 0.0000000000000000e+00  -1.9456172901917052e-02 -8.1626974156315632e-02 0.0000000000000000e+00  -1.8954586963252071e-02 -7.9479607397214450e-02 0.0000000000000000e+00  -1.8452093954230371e-02 -7.7334064871739383e-02 0.0000000000000000e+00  -1.7952516525882183e-02 -7.5195797453211838e-02 0.0000000000000000e+00  -1.7453450297356760e-02 -7.3067439798565767e-02 0.0000000000000000e+00  -1.6953378917363850e-02 -7.0942320191128755e-02 0.0000000000000000e+00  -1.6459032139663841e-02 -6.8829185748285407e-02 0.0000000000000000e+00  -1.5966422176053024e-02 -6.6730461917855435e-02 0.0000000000000000e+00  -1.5473146981849579e-02 -6.4635925683743156e-02 0.0000000000000000e+00  -1.4988793614058259e-02 -6.2557145127404692e-02 0.0000000000000000e+00  -1.4507216918498858e-02 -6.0495927893635934e-02 0.0000000000000000e+00  -1.4026139462746813e-02 -5.8440898682316195e-02 0.0000000000000000e+00  -1.3553142277700081e-02 -5.6401998333290855e-02 0.0000000000000000e+00  -1.3084662012675512e-02 -5.4383741360594560e-02 0.0000000000000000e+00  -1.2617024997306684e-02 -5.2369307653864036e-02 0.0000000000000000e+00  -1.2162487839703258e-02 -5.0375307622791868e-02 0.0000000000000000e+00  -1.1709694973329835e-02 -4.8408330857549572e-02 0.0000000000000000e+00  -1.1256396017975814e-02 -4.6447831236747401e-02 0.0000000000000000e+00  -1.0814680577310401e-02 -4.4514450060119781e-02 0.0000000000000000e+00  -1.0379250127920313e-02 -4.2595224513989560e-02 0.0000000000000000e+00  -9.9501924901714486e-03 -4.0700822508793394e-02 0.0000000000000000e+00  -9.5328103409165182e-03 -3.8836741648914250e-02 0.0000000000000000e+00  -9.1135877784840665e-03 -3.6991509030919752e-02 0.0000000000000000e+00  -8.7083262392372851e-03 -3.5176834814423921e-02 0.0000000000000000e+00  -8.3062574597379864e-03 -3.3389711268141949e-02 0.0000000000000000e+00  -7.9112010113653788e-03 -3.1634153964243406e-02 0.0000000000000000e+00  -7.5280895225758957e-03 -2.9910751129881116e-02 0.0000000000000000e+00  -7.1591263731176046e-03 -2.8210114559397335e-02 0.0000000000000000e+00  -6.8017226750486000e-03 -2.6545761316211228e-02 0.0000000000000000e+00  -6.4357881008589831e-03 -2.4911511381274978e-02 0.0000000000000000e+00  -6.0947608686278201e-03 -2.3315170936236480e-02 0.0000000000000000e+00  -5.7497323446539352e-03 -2.1763725990351399e-02 0.0000000000000000e+00  -5.4249492997611101e-03 -2.0239964143131648e-02 0.0000000000000000e+00  -5.1065646560547254e-03 -1.8767233918094241e-02 0.0000000000000000e+00  -4.8028109741347757e-03 -1.7323525898698542e-02 0.0000000000000000e+00  -4.5118264771317872e-03 -1.5929529882042635e-02 0.0000000000000000e+00  -4.2071258212982516e-03 -1.4574686675408868e-02 0.0000000000000000e+00  -3.9325079773026034e-03 -1.3269594310380956e-02 0.0000000000000000e+00  -3.6482200041394997e-03 -1.2025179472504342e-02 0.0000000000000000e+00  -3.3959721586172137e-03 -1.0821197152396655e-02 0.0000000000000000e+00  -3.1493254556239645e-03 -9.6935549678928805e-03 0.0000000000000000e+00  -2.8991460411769534e-03 -8.5832280083419574e-03 0.0000000000000000e+00  -2.6727748299853497e-03 -7.5534372563103606e-03 0.0000000000000000e+00  -2.4267781732433612e-03 -6.5804183904137068e-03 0.0000000000000000e+00  -2.2148248859643047e-03 -5.6594689366992051e-03 0.0000000000000000e+00  -2.0055242324263705e-03 -4.8197048336326353e-03 0.0000000000000000e+00  -1.8083556277362265e-03 -4.0240047629537378e-03 0.0000000000000000e+00  -1.6212959713305117e-03 -3.3066199912680579e-03 0.0000000000000000e+00  -1.4138353066531428e-03 -2.6439653384438015e-03 0.0000000000000000e+00  -1.2411693842865803e-03 -2.0532862385355629e-03 0.0000000000000000e+00  -1.0433892844227946e-03 -1.5366783695599196e-03 0.0000000000000000e+00  -8.7259073722022054e-04 -1.1072228499338871e-03 0.0000000000000000e+00  -6.8017767896261455e-04 -7.5326456570171617e-04 0.0000000000000000e+00  -5.0685205840849182e-04 -4.5512735429373914e-04 0.0000000000000000e+00  -3.3736671907845387e-04 -2.4727271858342344e-04 0.0000000000000000e+00  -1.6730299305109885e-04 -1.4182062079444107e-04 0.0000000000000000e+00  -2.4824147157240618e-02 -1.1465674529076522e-01 0.0000000000000000e+00  -2.0422891567550297e-02 -1.1567679546767541e-01 0.0000000000000000e+00  1.4995313982404226e-05 -1.3525375355308202e-04 0.0000000000000000e+00  -1.6840005820919043e-02 -9.0178981801004046e-02 0.0000000000000000e+00  -1.9395933078170884e-02 -1.0118251614783035e-01 0.0000000000000000e+00  1.3294799809532829e-05 -1.3672749093807056e-03 0.0000000000000000e+00  -1.3949150081162019e-02 -7.7390936675302238e-02 0.0000000000000000e+00  -1.5427321726745824e-02 -8.3847216469160560e-02 0.0000000000000000e+00  -2.8951540868784681e-04 -3.4463626273313975e-03 0.0000000000000000e+00  -2.1066408862631798e-02 -1.0753711996765994e-01 0.0000000000000000e+00  -4.2081487207277628e-04 -6.1333600122063228e-03 0.0000000000000000e+00  -8.8497313361056711e-04 -1.2054117638184389e-02 0.0000000000000000e+00  -1.2495284373924229e-02 -7.0984692056827087e-02 0.0000000000000000e+00  -1.7715481567518172e-03 -1.6982084571482158e-02 0.0000000000000000e+00  -1.1079314834306509e-02 -6.4660257578617875e-02 0.0000000000000000e+00  -2.4850556582951748e-03 -2.1629842028007867e-02 0.0000000000000000e+00  -3.5540246833856400e-03 -2.7930349118751859e-02 0.0000000000000000e+00  -9.8274363684817557e-03 -5.8255735562038870e-02 0.0000000000000000e+00  -8.3299351224394649e-03 -5.2209572313403479e-02 0.0000000000000000e+00  -4.4398190439288998e-03 -3.3009073010170559e-02 0.0000000000000000e+00  -5.5463452029443829e-03 -3.8607408689462774e-02 0.0000000000000000e+00  -7.0389933022886094e-03 -4.6008629666546681e-02 0.0000000000000000e+00  -6.1701627244964863e-04 -8.1144747510456632e-03 0.0000000000000000e+00  -1.8387237787147927e-02 -9.6864607858295801e-02 0.0000000000000000e+00  -6.2466956469467627e-03 -4.1847250315703223e-02 0.0000000000000000e+00  -1.3937739880173581e-03 -1.4595136542567602e-02 0.0000000000000000e+00  -3.0097698798598228e-03 -2.5071080349235279e-02 0.0000000000000000e+00  -1.1413319311842522e-04 -2.3385625124209912e-03 0.0000000000000000e+00  -2.2489712668445249e-02 -1.1107945056977457e-01 0.0000000000000000e+00  7.9483801607468064e-05 -6.0514974632892686e-04 0.0000000000000000e+00  -8.0551918553659358e-03 -5.5436460887681498e-02 0.0000000000000000e+00  -1.0749454990521747e-02 -6.7878424611910612e-02 0.0000000000000000e+00  -1.2172180830638136e-02 -7.4250987032729490e-02 0.0000000000000000e+00  -4.8021944147480719e-03 -3.0358725906990718e-02 0.0000000000000000e+00  -9.3741051468817956e-03 -6.1600169799600132e-02 0.0000000000000000e+00  -1.3630423952459022e-02 -8.0688712222274403e-02 0.0000000000000000e+00  -6.8015529747469565e-03 -4.9402955371667223e-02 0.0000000000000000e+00  -1.5110641455598024e-02 -8.7161949510666747e-02 0.0000000000000000e+00  -5.8392635264459094e-03 -3.5688065615934385e-02 0.0000000000000000e+00  -2.7745486938019000e-03 -1.9064350685500841e-02 0.0000000000000000e+00  -6.7961431231450720e-04 -4.8467122095548201e-03 0.0000000000000000e+00  -2.1089660546948774e-02 -1.0405394942875866e-01 0.0000000000000000e+00  -1.8836398955750781e-02 -9.3091622468636032e-02 0.0000000000000000e+00  -1.6809783279985902e-04 -9.9776989125416552e-03 0.0000000000000000e+00  -1.5691158746526303e-02 -9.2875477273143880e-02 0.0000000000000000e+00  -1.7868379877616239e-03 -1.0283730295672254e-02 0.0000000000000000e+00  -1.8005624751060937e-02 -8.7504911386247941e-02 0.0000000000000000e+00  -1.6509343388790714e-02 -8.1034920739652613e-02 0.0000000000000000e+00  -1.5025564276814467e-02 -7.4600786644668848e-02 0.0000000000000000e+00  -1.8620124490350234e-02 -1.0564181830091811e-01 0.0000000000000000e+00  3.6422325002744645e-04 -4.5705704554947074e-03 0.0000000000000000e+00  -1.2140749492848234e-02 -6.1957956575658148e-02 0.0000000000000000e+00  -1.3565012672249464e-02 -6.8231707528352115e-02 0.0000000000000000e+00  -2.5314739009401942e-03 -2.9979596067252451e-02 0.0000000000000000e+00  -8.5717654233138322e-04 -1.8690852289014157e-02 0.0000000000000000e+00  -1.0369141743931337e-02 -5.4004229105416163e-02 0.0000000000000000e+00  -9.4360509992553934e-03 -4.9773201767613337e-02 0.0000000000000000e+00  -3.4427687881822947e-03 -3.5310644070237054e-02 0.0000000000000000e+00  -7.4299473401769853e-05 -5.7359340113768188e-05 0.0000000000000000e+00  5.2182134846439085e-05 -4.4024454371875205e-05 0.0000000000000000e+00  -5.2516272230670067e-03 -4.4779073844790636e-02 0.0000000000000000e+00  -3.8976993023943905e-03 -2.2679407270636380e-02 0.0000000000000000e+00  -2.2314749767531447e-03 -1.2833035686075172e-02 0.0000000000000000e+00  -4.9850107738721690e-04 -1.7589290868995845e-03 0.0000000000000000e+00  -6.7691918464651726e-04 -2.9765403249557110e-03 0.0000000000000000e+00  -4.4301547637132779e-03 -4.0859376002219221e-02 0.0000000000000000e+00  -2.6508308833336387e-03 -1.5379090129479779e-02 0.0000000000000000e+00  -4.5681712969604677e-03 -2.5972823689185055e-02 0.0000000000000000e+00  -1.3167484937215825e-03 -7.2946809856241426e-03 0.0000000000000000e+00  -1.7104395787948666e-02 -9.8895929758613055e-02 0.0000000000000000e+00  -2.0515784088630161e-02 -9.8239582291471311e-02 0.0000000000000000e+00  2.3943475701910182e-04 -7.3727864248079068e-03 0.0000000000000000e+00  -3.4168811309506195e-04 -8.3492701592605438e-04 0.0000000000000000e+00  -1.9249218383140910e-02 -1.1005750370539293e-01 0.0000000000000000e+00  -8.4798219662392312e-03 -4.4071968590540182e-02 0.0000000000000000e+00  -7.4738890446993562e-03 -4.0118365271541535e-02 0.0000000000000000e+00  2.8884445136027451e-05 -1.3039543621890496e-02 0.0000000000000000e+00  4.1983301346214708e-04 -1.7700597820874831e-03 0.0000000000000000e+00  4.8938131921930517e-04 -3.0856711835956147e-03 0.0000000000000000e+00  -1.2583809192596828e-03 -2.3160733907414931e-02 0.0000000000000000e+00  -1.3378306729896575e-04 -1.5681895108924454e-02 0.0000000000000000e+00  -1.5220993603839239e-03 -2.6423569313893350e-02 0.0000000000000000e+00  -2.1260526520020117e-04 -4.3475607356441038e-04 0.0000000000000000e+00  -2.0265528094101062e-02 -1.1308074272855195e-01 0.0000000000000000e+00  -1.7627454911617012e-02 -8.4913528740761510e-02 0.0000000000000000e+00  -1.6134599270259915e-02 -7.8455717328303462e-02 0.0000000000000000e+00  4.0843495180276573e-04 -5.5953273157480898e-03 0.0000000000000000e+00  -1.4657084399181161e-02 -7.2044274512628431e-02 0.0000000000000000e+00  -1.7821176149025474e-02 -1.0313247254452269e-01 0.0000000000000000e+00  -1.3207157792667807e-02 -6.5710818850314795e-02 0.0000000000000000e+00  -1.1802475446971382e-02 -5.9499725068139199e-02 0.0000000000000000e+00  -9.4962703789319377e-04 -2.0484499631864383e-02 0.0000000000000000e+00  -1.1091328080205409e-02 -5.6333099530700113e-02 0.0000000000000000e+00  -2.7125880455783273e-03 -3.2071637863781456e-02 0.0000000000000000e+00  -9.1325440935096942e-03 -4.7407615669599765e-02 0.0000000000000000e+00  -3.6556827604981752e-03 -3.7507215302776196e-02 0.0000000000000000e+00  -2.3141637493004151e-02 -1.0878624222420455e-01 0.0000000000000000e+00  -1.6010230678467324e-02 -9.5452667305548036e-02 0.0000000000000000e+00  -1.7127844448329313e-03 -8.9550042974566955e-03 0.0000000000000000e+00  3.4082457845675042e-04 -9.2364792363595037e-04 0.0000000000000000e+00  1.8337687243142565e-04 -3.4992755354859117e-04 0.0000000000000000e+00  -6.6685906849060037e-03 -5.3687991601635239e-02 0.0000000000000000e+00  -7.0194800889749401e-03 -3.7249304809220771e-02 0.0000000000000000e+00  -7.9451632315415566e-03 -5.9820808469237985e-02 0.0000000000000000e+00  -1.2157476019760463e-02 -7.8831668816313705e-02 0.0000000000000000e+00  -9.3245285215636711e-03 -6.6056408875585768e-02 0.0000000000000000e+00  -1.0719112579880148e-02 -7.2407220061469227e-02 0.0000000000000000e+00  -5.7136373236054833e-03 -3.2013073893518894e-02 0.0000000000000000e+00  -5.5371987785602572e-03 -4.7721205841841474e-02 0.0000000000000000e+00  -3.6867932485145469e-03 -2.0387149743999723e-02 0.0000000000000000e+00  -5.3147197294767202e-03 -2.8562046582566818e-02 0.0000000000000000e+00  -1.4540538220389084e-02 -8.9494110217331918e-02 0.0000000000000000e+00  -3.2368413563071663e-03 -1.7559872364656223e-02 0.0000000000000000e+00  -1.3911707341672677e-02 -8.5148115646864142e-02 0.0000000000000000e+00  -1.1812678324216099e-03 -5.6302172009536078e-03 0.0000000000000000e+00  -9.6403692722947130e-04 -4.0448798917565891e-03 0.0000000000000000e+00  -2.2508256270381541e-02 -1.0576201674069818e-01 0.0000000000000000e+00  -2.1658370728485796e-02 -1.0170760445617257e-01 0.0000000000000000e+00  -1.2109941998734051e-02 -7.6621981700950650e-02 0.0000000000000000e+00  -1.0679413600495416e-02 -7.0220046872960504e-02 0.0000000000000000e+00  -7.8429553572687272e-03 -5.7642248743911863e-02 0.0000000000000000e+00  -1.3455599153578794e-02 -8.3035393727151505e-02 0.0000000000000000e+00  -9.2949287098714889e-03 -6.3902337915526533e-02 0.0000000000000000e+00  -6.5480028519411130e-03 -5.1568257878788305e-02 0.0000000000000000e+00  -6.0379288227813306e-03 -3.3746603917152736e-02 0.0000000000000000e+00  3.2454578478230157e-04 -8.9563802946607193e-03 0.0000000000000000e+00  -2.0115963455039788e-02 -9.4970211424544398e-02 0.0000000000000000e+00  -1.9098796726872688e-02 -9.0871135360181043e-02 0.0000000000000000e+