<?xml version="1.0"?>
<VTKFile type="UnstructuredGrid"  version="0.1"  >
<UnstructuredGrid>
<Piece  NumberOfPoints="1419" NumberOfCells="2698">
<Points>
<DataArray  type="Float64"  NumberOfComponents="3"  format="ascii">0 0 0  0 0.41 0  2.5 0 0  2.5 0.41 0  0.6 0.19 0  0.6 0.21 0  0.25 0.2 0  0.15 0.2 0  0.2489897948556636 0.21 0  0.2489897948556636 0.19 0  0.6 0.2 0  0 0.3807142857143437 0  0 0.3514285714286952 0  0 0.3221428571430699 0  0 0.29285714285744 0  0 0.2635714285718054 0  0 0.2342857142861561 0  0 0.2050000000005308 0  0 0.175714285714732 0  0 0.1464285714289574 0  0 0.1171428571431897 0  0 0.08785714285737878 0  0 0.05857142857161107 0  0 0.02928571428580012 0  0.03015443760436003 0 0  0.06140001986583606 0 0  0.09377624077125973 0 0  0.1273239957535082 0 0  0.1620856860351972 0 0  0.1981052433264291 0 0  0.235428184091502 0 0  0.2741016576309132 0 0  0.3141745521465447 0 0  0.3556974926295285 0 0  0.3987229542472677 0 0  0.4433053055141081 0 0  0.4895008759286886 0 0  0.5373680609405097 0 0  0.5869673343216626 0 0  0.6383613676634521 0 0  0.6916151138468254 0 0  0.7467958595648856 0 0  0.8039733463919316 0 0  0.8632198139502143 0 0  0.9246101326867038 0 0  0.9882218810934433 0 0  1.054135445558498 0 0  1.122434100542598 0 0  1.193204177141305 0 0  1.266535089879536 0 0  1.342519516046404 0 0  1.421253448503939 0 0  1.502836389106271 0 0  1.587371439758838 0 0  1.674965418777374 0 0  1.765729001825544 0 0  1.859776908880082 0 0  1.957227977487062 0 0  2.058205329869943 0 0  2.162836591189951 0 0  2.271253957290865 0 0  2.383594446803425 0 0  2.5 0.1024999999997612 0  2.5 0.2049999999994743 0  2.5 0.3074999999997183 0  2.383594446803656 0.41 0  2.271253957291315 0.41 0  2.162836591190598 0.41 0  2.058205329870775 0.41 0  1.957227977488067 0.41 0  1.859776908881246 0.41 0  1.765729001826854 0.41 0  1.674965418778818 0.41 0  1.58737143976041 0.41 0  1.502836389107956 0.41 0  1.421253448505726 0.41 0  1.342519516048286 0.41 0  1.266535089881505 0.41 0  1.193204177143353 0.41 0  1.122434100544716 0.41 0  1.05413544556068 0.41 0  0.9882218810956305 0.41 0  0.9246101326886647 0.41 0  0.8632198139519631 0.41 0  0.8039733463934788 0.41 0  0.7467958595662458 0.41 0  0.6916151138480078 0.41 0  0.6383613676644679 0.41 0  0.5869673343225223 0.41 0  0.5373680609412221 0.41 0  0.4895008759292634 0.41 0  0.4433053055145528 0.41 0  0.3987229542475914 0.41 0  0.3556974926297398 0.41 0  0.3141745521466497 0.41 0  0.2741016576310038 0.41 0  0.2354281840915826 0.41 0  0.1981052433265003 0.41 0  0.1620856860352591 0.41 0  0.1273239957535623 0.41 0  0.09377624077128965 0.41 0  0.06140001986584975 0.41 0  0.03015443760436654 0.41 0  0.2497468076502589 0.2050254481002335 0  0.2497468076502614 0.1949745518997913 0  0.2469965252529372 0.1829317073451959 0  0.2439893735792749 0.1762316384219906 0  0.2400332147834255 0.1700443375285386 0  0.2352133972704371 0.1645032867342007 0  0.2296339016332438 0.1597280261969788 0  0.2234150974217223 0.1558215752574715 0  0.2166911463437691 0.1528682099456123 0  0.2096071079204251 0.1509316448471593 0  0.2023158100364996 0.1500536585536553 0  0.194974551899914 0.1502531923497262 0  0.1877417105387872 0.1515259415822739 0  0.1807733240461124 0.153844448527136 0  0.1742197252835808 0.15715869474974 0  0.1682222986673531 0.1613971801805478 0  0.162910430003803 0.1664684656256651 0  0.1583987151779087 0.1722631454351573 0  0.1547844879126891 0.178656207771761 0  0.1521457199348551 0.1855097315605723 0  0.1505393388476355 0.1926758619366523 0  0.1505393388476328 0.2073241380633295 0  0.1521457199348437 0.2144902684393899 0  0.1547844879126531 0.221343792228163 0  0.1583987151778488 0.2277368545647528 0  0.1629104300036858 0.2335315343742052 0  0.1682222986671726 0.2386028198193036 0  0.1742197252833576 0.2428413052501257 0  0.1807733240458683 0.2461555514727623 0  0.1877417105384929 0.2484740584176516 0  0.1949745518995776 0.2497468076502398 0  0.202315810036185 0.2499463414463592 0  0.2096071079201568 0.2490683551528932 0  0.2166911463435495 0.2471317900544655 0  0.2234150974215506 0.2441784247426195 0  0.2296339016331197 0.2402719738031125 0  0.2352133972703547 0.2354967132658811 0  0.2400332147833751 0.2299556624715287 0  0.2439893735792577 0.2237683615780412 0  0.246996525252926 0.2170682926548348 0  0.25645809709277 0.21 0  0.2639263993298655 0.21 0  0.271394701566961 0.21 0  0.2788630038040554 0.21 0  0.2863313060411479 0.21 0  0.2937996082782405 0.21 0  0.301267910515333 0.21 0  0.3087362127524279 0.21 0  0.3162045149895234 0.21 0  0.3236728172265972 0.21 0  0.3311411194636928 0.21 0  0.3386094217007701 0.21 0  0.3460777239378666 0.21 0  0.3535460261749672 0.21 0  0.3610143284120516 0.21 0  0.3684826306491596 0.21 0  0.3759509328862226 0.21 0  0.383419235123329 0.21 0  0.3908875373604028 0.21 0  0.3983558395975142 0.21 0  0.4058241418345938 0.21 0  0.4132924440716992 0.21 0  0.4207607463087888 0.21 0  0.4282290485459029 0.21 0  0.4356973507830418 0.21 0  0.4431656530201649 0.21 0  0.4506339552573136 0.21 0  0.4581022574944306 0.21 0  0.4655705597315852 0.21 0  0.4730388619686996 0.21 0  0.480507164205851 0.21 0  0.4879754664429498 0.21 0  0.4954437686800938 0.21 0  0.502912070917267 0.21 0  0.5103803731544119 0.21 0  0.5178486753915261 0.21 0  0.5253169776286404 0.21 0  0.5327852798657868 0.21 0  0.5402535821029386 0.21 0  0.54772188434007 0.21 0  0.5551901865771842 0.21 0  0.5626584888143201 0.21 0  0.5701267910514778 0.21 0  0.5775950932886138 0.21 0  0.5850633955257281 0.21 0  0.5925316977628483 0.21 0  0.6 0.2050000000000054 0  0.6 0.1950000000000217 0  0.5925316977628897 0.19 0  0.5850633955257988 0.19 0  0.5775950932887378 0.19 0  0.5701267910515998 0.19 0  0.5626584888145268 0.19 0  0.5551901865773963 0.19 0  0.547721884340339 0.19 0  0.5402535821032429 0.19 0  0.5327852798661811 0.19 0  0.5253169776290537 0.19 0  0.5178486753919799 0.19 0  0.5103803731549078 0.19 0  0.502912070917822 0.19 0  0.4954437686807294 0.19 0  0.4879754664436223 0.19 0  0.4805071642065402 0.19 0  0.4730388619694271 0.19 0  0.4655705597323621 0.19 0  0.4581022574952563 0.19 0  0.4506339552581777 0.19 0  0.4431656530210671 0.19 0  0.4356973507839815 0.19 0  0.4282290485468779 0.19 0  0.4207607463097617 0.19 0  0.4132924440726327 0.19 0  0.4058241418354857 0.19 0  0.3983558395983636 0.19 0  0.3908875373612097 0.19 0  0.3834192351240934 0.19 0  0.3759509328869369 0.19 0  0.3684826306498175 0.19 0  0.361014328412667 0.19 0  0.3535460261755617 0.19 0  0.3460777239384295 0.19 0  0.3386094217012945 0.19 0  0.3311411194641595 0.19 0  0.3236728172270245 0.19 0  0.3162045149898895 0.19 0  0.3087362127527544 0.19 0  0.3012679105156187 0.19 0  0.2937996082784807 0.19 0  0.2863313060413428 0.19 0  0.2788630038042048 0.19 0  0.2713947015670686 0.19 0  0.2639263993299336 0.19 0  0.2564580970927985 0.19 0  0.2607803159922026 0.2000727136295815 0  0.5887803774232762 0.2001272386983733 0  0.5745072403740523 0.2002044435018727 0  0.5511891430099709 0.2001122610077113 0  0.2751288526855082 0.20000000000002 0  0.5365194309847112 0.1999999999999436 0  0.2894621222999649 0.1998691686390484 0  0.5215828265105155 0.1999999999999228 0  0.3127789816668748 0.1998657885438805 0  0.3274069683451451 0.2000000000000796 0  0.5066462220363641 0.199999999999908 0  0.3650630746574081 0.199866017807523 0  0.476773013087985 0.1999999999998713 0  0.3417402379596385 0.1998691686391011 0  0.3796850840047755 0.200000000000134 0  0.4618364086138087 0.1999999999998546 0  0.4917096175621762 0.1999999999998808 0  0.3946216884789568 0.2000000000001512 0  0.446899804139621 0.1999999999998389 0  0.4089549580935208 0.1998691686391595 0  0.4322718174608562 0.200127451265745 0  0.4201487168029707 0.1999966199048527 0  0.3528922713220932 0.2000185703532356 0  0.5633122436674589 0.1999814296467508 0  0.3006558810093873 0.1999966199048318 0  0.5815926498168407 0.1966545283159175 0  0.2677053789419034 0.1964246479135325 0  0.5290511287476175 0.1970915826863981 0  0.5439877332217911 0.197091582686394 0  0.2825131256993216 0.2035478995978015 0  0.3199386661080599 0.202908417313604 0  0.4842413153250809 0.1970915826863873 0  0.5141145242734466 0.1970915826863843 0  0.3722167817676917 0.2029084173136195 0  0.4693047108508938 0.1970915826863783 0  0.3348752705822316 0.202908417313609 0  0.3871533862418661 0.2029084173136212 0  0.4543681063767183 0.1970915826863795 0  0.4991779197992749 0.1970915826863902 0  0.4020059614928624 0.203547899597858 0  0.4394315019025246 0.1970915826863714 0  0.2550657455369551 0.2034088125358657 0  0.2548908499171161 0.1966940311614271 0  0.5946539510196798 0.2024302972968126 0  0.267698176732111 0.2039977513680092 0  0.4261685417851465 0.196409292431739 0  0.3590076176283495 0.196411355804271 0  0.5571672426447437 0.2036011176410121 0  0.3066757059912147 0.1964092924317024 0  0.594380730180568 0.1966558399668133 0  0.4842413153245942 0.2040749161535287 0  0.4693047108503577 0.2040749161535231 0  0.3871533862424271 0.1959250838464788 0  0.372246743208829 0.1959123236376545 0  0.5141145242731028 0.2040749161535395 0  0.4543681063761134 0.2040749161535186 0  0.4019979587101454 0.1959834479682427 0  0.4394608940728603 0.2040870543693135 0  0.5439623148931173 0.2040856076781014 0  0.5290511287473298 0.2040749161535501 0  0.4991779197988497 0.2040749161535382 0  0.3347912413592433 0.1959225448935183 0  0.3199680582793816 0.1959123018030061 0  0.2825051229162361 0.1959834479681729 0  0.3590471196690275 0.2036304442587945 0  0.5571594006495384 0.1963685282145804 0  0.3067669986803285 0.203627750582736 0  0.4262598344738712 0.2036568242185335 0  0.5814408164431408 0.2041285596160068 0  0.5688286748170428 0.1961819304477386 0  0.4145905603063645 0.2038180695522843 0  0.3473758401724931 0.2038180695522752 0  0.2950977245128307 0.2038180695522663 0  0.5688286748170693 0.203818069552238 0  0.2950977245127906 0.1961819304477774 0  0.3473758401723931 0.1961819304478349 0  0.4145905603061963 0.1961819304479011 0  0.2601812407614425 0.2056861609747042
[...]
<PointData  Vectors="f_40-1"> 
<DataArray  type="Float64"  Name="f_40-1"  NumberOfComponents="3" format="ascii">0.0000000000000000e+00 0.0000000000000000e+00 0.0000000000000000e+00  0.0000000000000000e+00 0.0000000000000000e+00 0.0000000000000000e+00  0.0000000000000000e+00 0.0000000000000000e+00 0.0000000000000000e+00  0.0000000000000000e+00 0.0000000000000000e+00 0.0000000000000000e+00  6.1675921614124448e-05 2.2092139400453391e-03 0.0000000000000000e+00  -9.2494381608503246e-05 2.2090238675255280e-03 0.0000000000000000e+00  0.0000000000000000e+00 0.0000000000000000e+00 0.0000000000000000e+00  0.0000000000000000e+00 0.0000000000000000e+00 0.0000000000000000e+00  0.0000000000000000e+00 0.0000000000000000e+00 0.0000000000000000e+00  0.0000000000000000e+00 0.0000000000000000e+00 0.0000000000000000e+00  -1.5480706617941288e-05 2.2091113192817440e-03 0.0000000000000000e+00  0.0000000000000000e+00 0.0000000000000000e+00 0.0000000000000000e+00  0.0000000000000000e+00 0.0000000000000000e+00 0.0000000000000000e+00  0.0000000000000000e+00 0.0000000000000000e+00 0.0000000000000000e+00  0.0000000000000000e+00 0.0000000000000000e+00 0.0000000000000000e+00  0.0000000000000000e+00 0.0000000000000000e+00 0.0000000000000000e+00  0.0000000000000000e+00 0.0000000000000000e+00 0.0000000000000000e+00  0.0000000000000000e+00 0.0000000000000000e+00 0.0000000000000000e+00  0.0000000000000000e+00 0.0000000000000000e+00 0.0000000000000000e+00  0.0000000000000000e+00 0.0000000000000000e+00 0.0000000000000000e+00  0.0000000000000000e+00 0.0000000000000000e+00 0.0000000000000000e+00  0.0000000000000000e+00 0.0000000000000000e+00 0.0000000000000000e+00  0.0000000000000000e+00 0.0000000000000000e+00 0.0000000000000000e+00  0.0000000000000000e+00 0.0000000000000000e+00 0.0000000000000000e+00  0.0000000000000000e+00 0.0000000000000000e+00 0.0000000000000000e+00  0.0000000000000000e+00 0.0000000000000000e+00 0.0000000000000000e+00  0.0000000000000000e+00 0.0000000000000000e+00 0.0000000000000000e+00  0.0000000000000000e+00 0.0000000000000000e+00 0.0000000000000000e+00  0.0000000000000000e+00 0.0000000000000000e+00 0.0000000000000000e+00  0.0000000000000000e+00 0.0000000000000000e+00 0.0000000000000000e+00  0.0000000000000000e+00 0.0000000000000000e+00 0.0000000000000000e+00  0.0000000000000000e+00 0.0000000000000000e+00 0.0000000000000000e+00  0.0000000000000000e+00 0.0000000000000000e+00 0.0000000000000000e+00  0.0000000000000000e+00 0.0000000000000000e+00 0.0000000000000000e+00  0.0000000000000000e+00 0.0000000000000000e+00 0.0000000000000000e+00  0.0000000000000000e+00 0.0000000000000000e+00 0.0000000000000000e+00  0.0000000000000000e+00 0.0000000000000000e+00 0.0000000000000000e+00  0.0000000000000000e+00 0.0000000000000000e+00 0.0000000000000000e+00  0.0000000000000000e+00 0.0000000000000000e+00 0.0000000000000000e+00  0.0000000000000000e+00 0.0000000000000000e+00 0.0000000000000000e+00  0.0000000000000000e+00 0.0000000000000000e+00 0.0000000000000000e+00  0.0000000000000000e+00 0.0000000000000000e+00 0.0000000000000000e+00  0.0000000000000000e+00 0.0000000000000000e+00 0.0000000000000000e+00  0.0000000000000000e+00 0.0000000000000000e+00 0.0000000000000000e+00  0.0000000000000000e+00 0.0000000000000000e+00 0.0000000000000000e+00  0.0000000000000000e+00 0.0000000000000000e+00 0.0000000000000000e+00  0.0000000000000000e+00 0.0000000000000000e+00 0.0000000000000000e+00  0.0000000000000000e+00 0.0000000000000000e+00 0.0000000000000000e+00  0.0000000000000000e+00 0.0000000000000000e+00 0.0000000000000000e+00  0.0000000000000000e+00 0.0000000000000000e+00 0.0000000000000000e+00  0.0000000000000000e+00 0.0000000000000000e+00 0.0000000000000000e+00  0.0000000000000000e+00 0.0000000000000000e+00 0.0000000000000000e+00  0.0000000000000000e+00 0.0000000000000000e+00 0.0000000000000000e+00  0.0000000000000000e+00 0.0000000000000000e+00 0.0000000000000000e+00  0.0000000000000000e+00 0.0000000000000000e+00 0.0000000000000000e+00  0.0000000000000000e+00 0.0000000000000000e+00 0.0000000000000000e+00  0.0000000000000000e+00 0.0000000000000000e+00 0.0000000000000000e+00  0.0000000000000000e+00 0.0000000000000000e+00 0.0000000000000000e+00  0.0000000000000000e+00 0.0000000000000000e+00 0.0000000000000000e+00  0.0000000000000000e+00 0.0000000000000000e+00 0.0000000000000000e+00  0.0000000000000000e+00 0.0000000000000000e+00 0.0000000000000000e+00  0.0000000000000000e+00 0.0000000000000000e+00 0.0000000000000000e+00  0.0000000000000000e+00 0.0000000000000000e+00 0.0000000000000000e+00  0.0000000000000000e+00 0.0000000000000000e+00 0.0000000000000000e+00  0.0000000000000000e+00 0.0000000000000000e+00 0.0000000000000000e+00  0.0000000000000000e+00 0.0000000000000000e+00 0.0000000000000000e+00  0.0000000000000000e+00 0.0000000000000000e+00 0.0000000000000000e+00  0.0000000000000000e+00 0.0000000000000000e+00 0.0000000000000000e+00  0.0000000000000000e+00 0.0000000000000000e+00 0.0000000000000000e+00  0.0000000000000000e+00 0.0000000000000000e+00 0.0000000000000000e+00  0.0000000000000000e+00 0.0000000000000000e+00 0.0000000000000000e+00  0.0000000000000000e+00 0.0000000000000000e+00 0.0000000000000000e+00  0.0000000000000000e+00 0.0000000000000000e+00 0.0000000000000000e+00  0.0000000000000000e+00 0.0000000000000000e+00 0.0000000000000000e+00  0.0000000000000000e+00 0.0000000000000000e+00 0.0000000000000000e+00  0.0000000000000000e+00 0.0000000000000000e+00 0.0000000000000000e+00  0.0000000000000000e+00 0.0000000000000000e+00 0.0000000000000000e+00  0.0000000000000000e+00 0.0000000000000000e+00 0.0000000000000000e+00  0.0000000000000000e+00 0.0000000000000000e+00 0.0000000000000000e+00  0.0000000000000000e+00 0.0000000000000000e+00 0.0000000000000000e+00  0.0000000000000000e+00 0.0000000000000000e+00 0.0000000000000000e+00  0.0000000000000000e+00 0.0000000000000000e+00 0.0000000000000000e+00  0.0000000000000000e+00 0.0000000000000000e+00 0.0000000000000000e+00  0.0000000000000000e+00 0.0000000000000000e+00 0.0000000000000000e+00  0.0000000000000000e+00 0.0000000000000000e+00 0.0000000000000000e+00  0.0000000000000000e+00 0.0000000000000000e+00 0.0000000000000000e+00  0.0000000000000000e+00 0.0000000000000000e+00 0.0000000000000000e+00  0.0000000000000000e+00 0.0000000000000000e+00 0.0000000000000000e+00  0.0000000000000000e+00 0.0000000000000000e+00 0.0000000000000000e+00  0.0000000000000000e+00 0.0000000000000000e+00 0.0000000000000000e+00  0.0000000000000000e+00 0.0000000000000000e+00 0.0000000000000000e+00  0.0000000000000000e+00 0.0000000000000000e+00 0.0000000000000000e+00  0.0000000000000000e+00 0.0000000000000000e+00 0.0000000000000000e+00  0.0000000000000000e+00 0.0000000000000000e+00 0.0000000000000000e+00  0.0000000000000000e+00 0.0000000000000000e+00 0.0000000000000000e+00  0.0000000000000000e+00 0.0000000000000000e+00 0.0000000000000000e+00  0.0000000000000000e+00 0.0000000000000000e+00 0.0000000000000000e+00  0.0000000000000000e+00 0.0000000000000000e+00 0.0000000000000000e+00  0.0000000000000000e+00 0.0000000000000000e+00 0.0000000000000000e+00  0.0000000000000000e+00 0.0000000000000000e+00 0.0000000000000000e+00  0.0000000000000000e+00 0.0000000000000000e+00 0.0000000000000000e+00  0.0000000000000000e+00 0.0000000000000000e+00 0.0000000000000000e+00  0.0000000000000000e+00 0.0000000000000000e+00 0.0000000000000000e+00  0.0000000000000000e+00 0.0000000000000000e+00 0.0000000000000000e+00  0.0000000000000000e+00 0.0000000000000000e+00 0.0000000000000000e+00  0.0000000000000000e+00 0.0000000000000000e+00 0.0000000000000000e+00  0.0000000000000000e+00 0.0000000000000000e+00 0.0000000000000000e+00  0.0000000000000000e+00 0.0000000000000000e+00 0.0000000000000000e+00  0.0000000000000000e+00 0.0000000000000000e+00 0.0000000000000000e+00  0.0000000000000000e+00 0.0000000000000000e+00 0.0000000000000000e+00  0.0000000000000000e+00 0.0000000000000000e+00 0.0000000000000000e+00  0.0000000000000000e+00 0.0000000000000000e+00 0.0000000000000000e+00  0.0000000000000000e+00 0.0000000000000000e+00 0.0000000000000000e+00  0.0000000000000000e+00 0.0000000000000000e+00 0.0000000000000000e+00  0.0000000000000000e+00 0.0000000000000000e+00 0.0000000000000000e+00  0.0000000000000000e+00 0.0000000000000000e+00 0.0000000000000000e+00  0.0000000000000000e+00 0.0000000000000000e+00 0.0000000000000000e+00  0.0000000000000000e+00 0.0000000000000000e+00 0.0000000000000000e+00  0.0000000000000000e+00 0.0000000000000000e+00 0.0000000000000000e+00  0.0000000000000000e+00 0.0000000000000000e+00 0.0000000000000000e+00  0.0000000000000000e+00 0.0000000000000000e+00 0.0000000000000000e+00  0.0000000000000000e+00 0.0000000000000000e+00 0.0000000000000000e+00  0.0000000000000000e+00 0.0000000000000000e+00 0.0000000000000000e+00  0.0000000000000000e+00 0.0000000000000000e+00 0.0000000000000000e+00  0.0000000000000000e+00 0.0000000000000000e+00 0.0000000000000000e+00  0.0000000000000000e+00 0.0000000000000000e+00 0.0000000000000000e+00  0.0000000000000000e+00 0.0000000000000000e+00 0.0000000000000000e+00  0.0000000000000000e+00 0.0000000000000000e+00 0.0000000000000000e+00  0.0000000000000000e+00 0.0000000000000000e+00 0.0000000000000000e+00  0.0000000000000000e+00 0.0000000000000000e+00 0.0000000000000000e+00  0.0000000000000000e+00 0.0000000000000000e+00 0.0000000000000000e+00  0.0000000000000000e+00 0.0000000000000000e+00 0.0000000000000000e+00  0.0000000000000000e+00 0.0000000000000000e+00 0.0000000000000000e+00  0.0000000000000000e+00 0.0000000000000000e+00 0.0000000000000000e+00  0.0000000000000000e+00 0.0000000000000000e+00 0.0000000000000000e+00  0.0000000000000000e+00 0.0000000000000000e+00 0.0000000000000000e+00  0.0000000000000000e+00 0.0000000000000000e+00 0.0000000000000000e+00  0.0000000000000000e+00 0.0000000000000000e+00 0.0000000000000000e+00  0.0000000000000000e+00 0.0000000000000000e+00 0.0000000000000000e+00  0.0000000000000000e+00 0.0000000000000000e+00 0.0000000000000000e+00  0.0000000000000000e+00 0.0000000000000000e+00 0.0000000000000000e+00  0.0000000000000000e+00 0.0000000000000000e+00 0.0000000000000000e+00  0.0000000000000000e+00 0.0000000000000000e+00 0.0000000000000000e+00  -6.2695245298840832e-06 6.1635376953167111e-06 0.0000000000000000e+00  -1.3259269299657621e-05 1.3354775300046408e-05 0.0000000000000000e+00  -1.9396884903903082e-05 2.4806208323518568e-05 0.0000000000000000e+00  -2.5898858348616063e-05 4.0779220398717435e-05 0.0000000000000000e+00  -3.1278218479202138e-05 6.0408471245333874e-05 0.0000000000000000e+00  -3.7178351934684569e-05 8.4028252332075471e-05 0.0000000000000000e+00  -4.1883657139349126e-05 1.1050817628145287e-04 0.0000000000000000e+00  -4.6327391301939668e-05 1.4067564651438439e-04 0.0000000000000000e+00  -5.1255553382802855e-05 1.7356495576662775e-04 0.0000000000000000e+00  -5.4956565300294321e-05 2.0919154941002928e-04 0.0000000000000000e+00  -5.9264849539030852e-05 2.4747142964982177e-04 0.0000000000000000e+00  -6.2451050253650175e-05 2.8805058052773855e-04 0.0000000000000000e+00  -6.6014714130168461e-05 3.3081576208431783e-04 0.0000000000000000e+00  -6.8791248534795120e-05 3.7526965400928262e-04 0.0000000000000000e+00  -7.1357795439674904e-05 4.2172519499961288e-04 0.0000000000000000e+00  -7.4108963204486551e-05 4.6962335034256660e-04 0.0000000000000000e+00  -7.6142760006169520e-05 5.1890873117048548e-04 0.0000000000000000e+00  -7.8396965361337987e-05 5.6951793205836816e-04 0.0000000000000000e+00  -8.0039529665517552e-05 6.2117520366073982e-04 0.0000000000000000e+00  -8.1816415057986763e-05 6.7381777342717740e-04 0.0000000000000000e+00  -8.3179290124853745e-05 7.2728613326568392e-04 0.0000000000000000e+00  -8.4546807960659274e-05 7.8153420080343764e-04 0.0000000000000000e+00  -8.5618122779024583e-05 8.3629791649921870e-04 0.0000000000000000e+00  -8.6565149321849287e-05 8.9168596612003513e-04 0.0000000000000000e+00  -8.7515909255157594e-05 9.4747149348224505e-04 0.0000000000000000e+00  -8.8259602459880035e-05 1.0036656078040431e-03 0.0000000000000000e+00  -8.8937544748368084e-05 1.0602150726264476e-03 0.0000000000000000e+00  -8.9497324902071353e-05 1.1169914327958338e-03 0.0000000000000000e+00  -8.9995193040447080e-05 1.1740243681912829e-03 0.0000000000000000e+00  -9.0403722540048065e-05 1.2312000301084932e-03 0.0000000000000000e+00  -9.0758441704998059e-05 1.2885389130723958e-03 0.0000000000000000e+00  -9.1045053666563564e-05 1.3459496070220942e-03 0.0000000000000000e+00  -9.1288242228356321e-05 1.4034512341707284e-03 0.0000000000000000e+00  -9.1480397114265244e-05 1.4609736995788822e-03 0.0000000000000000e+00  -9.1636663502080455e-05 1.5185386629084281e-03 0.0000000000000000e+00  -9.1762935293147896e-05 1.5760984778365784e-03 0.0000000000000000e+00  -9.1865822278164221e-05 1.6336673471252989e-03 0.0000000000000000e+00  -9.1952175208905493e-05 1.6912211895696043e-03 0.0000000000000000e+00  -9.2024025672957018e-05 1.7487694913156896e-03 0.0000000000000000e+00  -9.2090054814043503e-05 1.8063047975068825e-03 0.0000000000000000e+00  -9.2150696629193123e-05 1.8638304829157060e-03 0.0000000000000000e+00  -9.2212694995439553e-05 1.9213508491545868e-03 0.0000000000000000e+00  -9.2271385700688739e-05 1.9788722356589464e-03 0.0000000000000000e+00  -9.2332780958236403e-05 2.0363968846320067e-03 0.0000000000000000e+00  -9.2396215998011822e-05 2.0939342349084885e-03 0.0000000000000000e+00  -9.2454286490129749e-05 2.1514803588731602e-03 0.0000000000000000e+00  -5.4004541591899332e-05 2.2090671884336666e-03 0.0000000000000000e+00  2.3071641592942009e-05 2.2091576320906821e-03 0.0000000000000000e+00  6.1695187589272727e-05 2.1516124430270241e-03 0.0000000000000000e+00  6.1737303761363456e-05 2.0940487433462906e-03 0.0000000000000000e+00  6.1787284626104474e-05 2.0364998606002280e-03 0.0000000000000000e+00  6.1840043086612475e-05 1.9789556640387568e-03 0.0000000000000000e+00  6.1898621384024607e-05 1.9214126202087727e-03 0.0000000000000000e+00  6.1969434323184787e-05 1.8638658795600222e-03 0.0000000000000000e+00  6.2048113976559744e-05 1.8063112243964785e-03 0.0000000000000000e+00  6.2135071411432581e-05 1.7487467911497879e-03 0.0000000000000000e+00  6.2229686367883241e-05 1.6911677271714872e-03 0.0000000000000000e+00  6.2328872023552573e-05 1.6335740317160504e-03 0.0000000000000000e+00  6.2429252560382311e-05 1.5759698652833109e-03 0.0000000000000000e+00  6.2533461236668209e-05 1.5183614379890968e-03 0.0000000000000000e+00  6.2625064216518568e-05 1.4607585135941287e-03 0.0000000000000000e+00  6.2719135118094821e-05 1.4031791492377585e-03 0.0000000000000000e+00  6.2776629305426858e-05 1.3456368826053732e-03 0.0000000000000000e+00  6.2840950853134295e-05 1.2881650944113522e-03 0.0000000000000000e+00  6.2837855463913393e-05 1.2307823815699106e-03 0.0000000000000000e+00  6.2852367671142379e-05 1.1735369552950984e-03 0.0000000000000000e+00  6.2761547588360904e-05 1.1164545173890136e-03 0.0000000000000000e+00  6.2705420245746666e-05 1.0595973278041419e-03 0.0000000000000000e+00  6.2491879544543245e-05 1.0029961279166501e-03 0.0000000000000000e+00  6.2335299187426317e-05 9.4673033956324342e-04 0.0000000000000000e+00  6.1969990911263514e-05 8.9084883085811708e-04 0.0000000000000000e+00  6.1648420701597504e-05 8.3538539579541642e-04 0.0000000000000000e+00  6.1254742504019227e-05 7.8054785157002839e-04 0.0000000000000000e+00  6.0611946435896979e-05 7.2619784204480773e-04 0.0000000000000000e+00  5.9963548756615040e-05 6.7266628667665186e-04 0.0000000000000000e+00  5.9075146716481039e-05 6.1990301334672497e-04 0.0000000000000000e+00  5.8139743025406908e-05 5.6816832412097623e-04 0.0000000000000000e+00  5.6924879902203561e-05 5.1746908449800354e-04 0.0000000000000000e+00  5.5655867039186502e-05 4.6802396590313577e-04 0.0000000000000000e+00  5.3884204679850794e-05 4.2012577251069916e-04 0.0000000000000000e+00  5.2302288129431597e-05 3.7354672364412253e-04 0.0000000000000000e+00  5.0544584057476668e-05 3.2902553657275909e-04 0.0000000000000000e+00  4.8133411789217093e-05 2.8601719695418409e-04 0.0000000000000000e+00  4.5779566794894293e-05 2.4541082687600045e-04 0.0000000000000000e+00  4.2938130677480462e-05 2.0701203363561251e-04 0.0000000000000000e+00  4.0103685502857595e-05 1.7116214789714794e-04 0.0000000000000000e+00  3.6431556480840057e-05 1.3833424774710871e-04 0.0000000000000000e+00  3.3210959415866322e-05 1.0801409094715547e-04 0.0000000000000000e+00  2.9781396599386058e-05 8.1441759903851468e-05 0.0000000000000000e+00  2.5264258459718831e-05 5.7616968737246764e-05 0.0000000000000000e+00  2.1069606984174248e-05 3.7812200723871934e-05 0.0000000000000000e+00  1.5866613832841036e-05 2.1964459728515319e-05 0.0000000000000000e+00  1.1134137873288382e-05 1.0432559095731388e-05 0.0000000000000000e+00  5.2907827198686330e-06 3.3526990566770555e-06 0.0000000000000000e+00  -6.0414179744073058e-07 5.1500729252045415e-06 0.0000000000000000e+00  -1.6366980893276351e-05 2.1226324343490695e-03 0.0000000000000000e+00  -1.6845424522094323e-05 2.0126567320439778e-03 0.0000000000000000e+00  -1.5935607240164652e-05 1.8330262795971069e-03 0.0000000000000000e+00  -2.0080574659129063e-06 2.8145925959842641e-05 0.0000000000000000e+00  -1.4918011109736654e-05 1.7199814670167894e-03 0.0000000000000000e+00  -2.9151034172327776e-06 6.6049240087140832e-05 0.0000000000000000e+00  -1.4730350561200689e-05 1.6048256759092440e-03 0.0000000000000000e+00  -4.6447609223895076e-06 1.5501427166768913e-04 0.0000000000000000e+00  -6.3632780466052981e-06 2.2538592112048019e-04 0.0000000000000000e+00  -1.4499148533685508e-05 1.4896393050780748e-03 0.0000000000000000e+00  -8.1163247444128334e-06 4.4569641716543000e-04 0.0000000000000000e+00  -1.3874423596819679e-05 1.2595741437761861e-03 0.0000000000000000e+00  -6.6761785029294694e-06 3.0334590584665062e-04 0.0000000000000000e+00  -9.8651590531657080e-06 5.4259294122362871e-04 0.0000000000000000e+00  -1.3470305246761027e-05 1.1450926163613002e-03 0.0000000000000000e+00  -1.4215746183335403e-05 1.3745030257199483e-03 0.0000000000000000e+00  -1.0703939748633017e-05 6.4616643113935945e-04 0.0000000000000000e+00  -1.2993991145785189e-05 1.0313806314735051e-03 0.0000000000000000e+00  -1.0488798247231343e-05 7.4892877023043157e-04 0.0000000000000000e+00  -1.3408043777624683e-05 9.2115308737117894e-04 0.0000000000000000e+00  -1.1921284756875438e-05 8.3104889091792464e-04 0.0000000000000000e+00  -8.2863488753178255e-06 3.6957726616212820e-04 0.0000000000000000e+00  -1.5037780598349943e-05 1.9264184590022727e-03 0.0000000000000000e+00  -4.2135841816543650e-06 1.0538843792545912e-04 0.0000000000000000e+00  1.0456574500149358e-05 2.0672634821085811e-03 0.0000000000000000e+00  4.0693736784329016e-06 1.4224860673823650e-05 0.0000000000000000e+00  7.5942918346546702e-06 1.6623995962598073e-03 0.0000000000000000e+00  7.4193537419500028e-06 1.7775371180809836e-03 0.0000000000000000e+00  -1.1747957427909302e-05 4.6872885595042565e-05 0.0000000000000000e+00  -1.9575893359931646e-05 1.8875861364465917e-04 0.0000000000000000e+00  8.2975915217096866e-06 1.3169592239118907e-03 0.0000000000000000e+00  7.8005659251262988e-06 1.5472124969296429e-03 0.0000000000000000e+00  -2.8531039839681282e-05 4.9281314543804934e-04 0.0000000000000000e+00  8.5712074102533871e-06 1.2022088307453629e-03 0.0000000000000000e+00  -2.2524083593301128e-05 2.6549232789964731e-04 0.0000000000000000e+00  -3.0312578364361266e-05 5.9415973844800427e-04 0.0000000000000000e+00  8.8497683838580373e-06 1.0880571830032039e-03 0.0000000000000000e+00  8.0374593481251932e-06 1.4320264047172377e-03 0.0000000000000000e+00  -3.6381109893082111e-05 6.9904830555112939e-04 0.0000000000000000e+00  9.1277328313613113e-06 9.7486384283898499e-04 0.0000000000000000e+00  -1.1112556488865685e-06 1.4891190199023477e-06 0.0000000000000000e+00  8.0363764730737248e-07 7.4044855887612916e-07 0.0000000000000000e+00  -3.4165233678217072e-05 2.1678880342322171e-03 0.0000000000000000e+00  -7.2856957783504448e-06 1.5401529175193025e-05 0.0000000000000000e+00  1.4419438628443944e-05 8.7549795127796583e-04 0.0000000000000000e