<?xml version="1.0"?>
<VTKFile type="UnstructuredGrid"  version="0.1"  >
<UnstructuredGrid>
<Piece  NumberOfPoints="1419" NumberOfCells="2698">
<Points>
<DataArray  type="Float64"  NumberOfComponents="3"  format="ascii">0 0 0  0 0.41 0  2.5 0 0  2.5 0.41 0  0.6 0.19 0  0.6 0.21 0  0.25 0.2 0  0.15 0.2 0  0.2489897948556636 0.21 0  0.2489897948556636 0.19 0  0.6 0.2 0  0 0.3807142857143437 0  0 0.3514285714286952 0  0 0.3221428571430699 0  0 0.29285714285744 0  0 0.2635714285718054 0  0 0.2342857142861561 0  0 0.2050000000005308 0  0 0.175714285714732 0  0 0.1464285714289574 0  0 0.1171428571431897 0  0 0.08785714285737878 0  0 0.05857142857161107 0  0 0.02928571428580012 0  0.03015443760436003 0 0  0.06140001986583606 0 0  0.09377624077125973 0 0  0.1273239957535082 0 0  0.1620856860351972 0 0  0.1981052433264291 0 0  0.235428184091502 0 0  0.2741016576309132 0 0  0.3141745521465447 0 0  0.3556974926295285 0 0  0.3987229542472677 0 0  0.4433053055141081 0 0  0.4895008759286886 0 0  0.5373680609405097 0 0  0.5869673343216626 0 0  0.6383613676634521 0 0  0.6916151138468254 0 0  0.7467958595648856 0 0  0.8039733463919316 0 0  0.8632198139502143 0 0  0.9246101326867038 0 0  0.9882218810934433 0 0  1.054135445558498 0 0  1.122434100542598 0 0  1.193204177141305 0 0  1.266535089879536 0 0  1.342519516046404 0 0  1.421253448503939 0 0  1.502836389106271 0 0  1.587371439758838 0 0  1.674965418777374 0 0  1.765729001825544 0 0  1.859776908880082 0 0  1.957227977487062 0 0  2.058205329869943 0 0  2.162836591189951 0 0  2.271253957290865 0 0  2.383594446803425 0 0  2.5 0.1024999999997612 0  2.5 0.2049999999994743 0  2.5 0.3074999999997183 0  2.383594446803656 0.41 0  2.271253957291315 0.41 0  2.162836591190598 0.41 0  2.058205329870775 0.41 0  1.957227977488067 0.41 0  1.859776908881246 0.41 0  1.765729001826854 0.41 0  1.674965418778818 0.41 0  1.58737143976041 0.41 0  1.502836389107956 0.41 0  1.421253448505726 0.41 0  1.342519516048286 0.41 0  1.266535089881505 0.41 0  1.193204177143353 0.41 0  1.122434100544716 0.41 0  1.05413544556068 0.41 0  0.9882218810956305 0.41 0  0.9246101326886647 0.41 0  0.8632198139519631 0.41 0  0.8039733463934788 0.41 0  0.7467958595662458 0.41 0  0.6916151138480078 0.41 0  0.6383613676644679 0.41 0  0.5869673343225223 0.41 0  0.5373680609412221 0.41 0  0.4895008759292634 0.41 0  0.4433053055145528 0.41 0  0.3987229542475914 0.41 0  0.3556974926297398 0.41 0  0.3141745521466497 0.41 0  0.2741016576310038 0.41 0  0.2354281840915826 0.41 0  0.1981052433265003 0.41 0  0.1620856860352591 0.41 0  0.1273239957535623 0.41 0  0.09377624077128965 0.41 0  0.06140001986584975 0.41 0  0.03015443760436654 0.41 0  0.2497468076502589 0.2050254481002335 0  0.2497468076502614 0.1949745518997913 0  0.2469965252529372 0.1829317073451959 0  0.2439893735792749 0.1762316384219906 0  0.2400332147834255 0.1700443375285386 0  0.2352133972704371 0.1645032867342007 0  0.2296339016332438 0.1597280261969788 0  0.2234150974217223 0.1558215752574715 0  0.2166911463437691 0.1528682099456123 0  0.2096071079204251 0.1509316448471593 0  0.2023158100364996 0.1500536585536553 0  0.194974551899914 0.1502531923497262 0  0.1877417105387872 0.1515259415822739 0  0.1807733240461124 0.153844448527136 0  0.1742197252835808 0.15715869474974 0  0.1682222986673531 0.1613971801805478 0  0.162910430003803 0.1664684656256651 0  0.1583987151779087 0.1722631454351573 0  0.1547844879126891 0.178656207771761 0  0.1521457199348551 0.1855097315605723 0  0.1505393388476355 0.1926758619366523 0  0.1505393388476328 0.2073241380633295 0  0.1521457199348437 0.2144902684393899 0  0.1547844879126531 0.221343792228163 0  0.1583987151778488 0.2277368545647528 0  0.1629104300036858 0.2335315343742052 0  0.1682222986671726 0.2386028198193036 0  0.1742197252833576 0.2428413052501257 0  0.1807733240458683 0.2461555514727623 0  0.1877417105384929 0.2484740584176516 0  0.1949745518995776 0.2497468076502398 0  0.202315810036185 0.2499463414463592 0  0.2096071079201568 0.2490683551528932 0  0.2166911463435495 0.2471317900544655 0  0.2234150974215506 0.2441784247426195 0  0.2296339016331197 0.2402719738031125 0  0.2352133972703547 0.2354967132658811 0  0.2400332147833751 0.2299556624715287 0  0.2439893735792577 0.2237683615780412 0  0.246996525252926 0.2170682926548348 0  0.25645809709277 0.21 0  0.2639263993298655 0.21 0  0.271394701566961 0.21 0  0.2788630038040554 0.21 0  0.2863313060411479 0.21 0  0.2937996082782405 0.21 0  0.301267910515333 0.21 0  0.3087362127524279 0.21 0  0.3162045149895234 0.21 0  0.3236728172265972 0.21 0  0.3311411194636928 0.21 0  0.3386094217007701 0.21 0  0.3460777239378666 0.21 0  0.3535460261749672 0.21 0  0.3610143284120516 0.21 0  0.3684826306491596 0.21 0  0.3759509328862226 0.21 0  0.383419235123329 0.21 0  0.3908875373604028 0.21 0  0.3983558395975142 0.21 0  0.4058241418345938 0.21 0  0.4132924440716992 0.21 0  0.4207607463087888 0.21 0  0.4282290485459029 0.21 0  0.4356973507830418 0.21 0  0.4431656530201649 0.21 0  0.4506339552573136 0.21 0  0.4581022574944306 0.21 0  0.4655705597315852 0.21 0  0.4730388619686996 0.21 0  0.480507164205851 0.21 0  0.4879754664429498 0.21 0  0.4954437686800938 0.21 0  0.502912070917267 0.21 0  0.5103803731544119 0.21 0  0.5178486753915261 0.21 0  0.5253169776286404 0.21 0  0.5327852798657868 0.21 0  0.5402535821029386 0.21 0  0.54772188434007 0.21 0  0.5551901865771842 0.21 0  0.5626584888143201 0.21 0  0.5701267910514778 0.21 0  0.5775950932886138 0.21 0  0.5850633955257281 0.21 0  0.5925316977628483 0.21 0  0.6 0.2050000000000054 0  0.6 0.1950000000000217 0  0.5925316977628897 0.19 0  0.5850633955257988 0.19 0  0.5775950932887378 0.19 0  0.5701267910515998 0.19 0  0.5626584888145268 0.19 0  0.5551901865773963 0.19 0  0.547721884340339 0.19 0  0.5402535821032429 0.19 0  0.5327852798661811 0.19 0  0.5253169776290537 0.19 0  0.5178486753919799 0.19 0  0.5103803731549078 0.19 0  0.502912070917822 0.19 0  0.4954437686807294 0.19 0  0.4879754664436223 0.19 0  0.4805071642065402 0.19 0  0.4730388619694271 0.19 0  0.4655705597323621 0.19 0  0.4581022574952563 0.19 0  0.4506339552581777 0.19 0  0.4431656530210671 0.19 0  0.4356973507839815 0.19 0  0.4282290485468779 0.19 0  0.4207607463097617 0.19 0  0.4132924440726327 0.19 0  0.4058241418354857 0.19 0  0.3983558395983636 0.19 0  0.3908875373612097 0.19 0  0.3834192351240934 0.19 0  0.3759509328869369 0.19 0  0.3684826306498175 0.19 0  0.361014328412667 0.19 0  0.3535460261755617 0.19 0  0.3460777239384295 0.19 0  0.3386094217012945 0.19 0  0.3311411194641595 0.19 0  0.3236728172270245 0.19 0  0.3162045149898895 0.19 0  0.3087362127527544 0.19 0  0.3012679105156187 0.19 0  0.2937996082784807 0.19 0  0.2863313060413428 0.19 0  0.2788630038042048 0.19 0  0.2713947015670686 0.19 0  0.2639263993299336 0.19 0  0.2564580970927985 0.19 0  0.2607803159922026 0.2000727136295815 0  0.5887803774232762 0.2001272386983733 0  0.5745072403740523 0.2002044435018727 0  0.5511891430099709 0.2001122610077113 0  0.2751288526855082 0.20000000000002 0  0.5365194309847112 0.1999999999999436 0  0.2894621222999649 0.1998691686390484 0  0.5215828265105155 0.1999999999999228 0  0.3127789816668748 0.1998657885438805 0  0.3274069683451451 0.2000000000000796 0  0.5066462220363641 0.199999999999908 0  0.3650630746574081 0.199866017807523 0  0.476773013087985 0.1999999999998713 0  0.3417402379596385 0.1998691686391011 0  0.3796850840047755 0.200000000000134 0  0.4618364086138087 0.1999999999998546 0  0.4917096175621762 0.1999999999998808 0  0.3946216884789568 0.2000000000001512 0  0.446899804139621 0.1999999999998389 0  0.4089549580935208 0.1998691686391595 0  0.4322718174608562 0.200127451265745 0  0.4201487168029707 0.1999966199048527 0  0.3528922713220932 0.2000185703532356 0  0.5633122436674589 0.1999814296467508 0  0.3006558810093873 0.1999966199048318 0  0.5815926498168407 0.1966545283159175 0  0.2677053789419034 0.1964246479135325 0  0.5290511287476175 0.1970915826863981 0  0.5439877332217911 0.197091582686394 0  0.2825131256993216 0.2035478995978015 0  0.3199386661080599 0.202908417313604 0  0.4842413153250809 0.1970915826863873 0  0.5141145242734466 0.1970915826863843 0  0.3722167817676917 0.2029084173136195 0  0.4693047108508938 0.1970915826863783 0  0.3348752705822316 0.202908417313609 0  0.3871533862418661 0.2029084173136212 0  0.4543681063767183 0.1970915826863795 0  0.4991779197992749 0.1970915826863902 0  0.4020059614928624 0.203547899597858 0  0.4394315019025246 0.1970915826863714 0  0.2550657455369551 0.2034088125358657 0  0.2548908499171161 0.1966940311614271 0  0.5946539510196798 0.2024302972968126 0  0.267698176732111 0.2039977513680092 0  0.4261685417851465 0.196409292431739 0  0.3590076176283495 0.196411355804271 0  0.5571672426447437 0.2036011176410121 0  0.3066757059912147 0.1964092924317024 0  0.594380730180568 0.1966558399668133 0  0.4842413153245942 0.2040749161535287 0  0.4693047108503577 0.2040749161535231 0  0.3871533862424271 0.1959250838464788 0  0.372246743208829 0.1959123236376545 0  0.5141145242731028 0.2040749161535395 0  0.4543681063761134 0.2040749161535186 0  0.4019979587101454 0.1959834479682427 0  0.4394608940728603 0.2040870543693135 0  0.5439623148931173 0.2040856076781014 0  0.5290511287473298 0.2040749161535501 0  0.4991779197988497 0.2040749161535382 0  0.3347912413592433 0.1959225448935183 0  0.3199680582793816 0.1959123018030061 0  0.2825051229162361 0.1959834479681729 0  0.3590471196690275 0.2036304442587945 0  0.5571594006495384 0.1963685282145804 0  0.3067669986803285 0.203627750582736 0  0.4262598344738712 0.2036568242185335 0  0.5814408164431408 0.2041285596160068 0  0.5688286748170428 0.1961819304477386 0  0.4145905603063645 0.2038180695522843 0  0.3473758401724931 0.2038180695522752 0  0.2950977245128307 0.2038180695522663 0  0.5688286748170693 0.203818069552238 0  0.2950977245127906 0.1961819304477774 0  0.3473758401723931 0.1961819304478349 0  0.4145905603061963 0.1961819304479011 0  0.2601812407614425 0.2056861609747042
[...]
<PointData  Vectors="f_40-1"> 
<DataArray  type="Float64"  Name="f_40-1"  NumberOfComponents="3" format="ascii">0.0000000000000000e+00 0.0000000000000000e+00 0.0000000000000000e+00  0.0000000000000000e+00 0.0000000000000000e+00 0.0000000000000000e+00  0.0000000000000000e+00 0.0000000000000000e+00 0.0000000000000000e+00  0.0000000000000000e+00 0.0000000000000000e+00 0.0000000000000000e+00  8.5280808925285084e-05 3.0395098643925056e-03 0.0000000000000000e+00  -1.2788038049199330e-04 3.0388583839125564e-03 0.0000000000000000e+00  0.0000000000000000e+00 0.0000000000000000e+00 0.0000000000000000e+00  0.0000000000000000e+00 0.0000000000000000e+00 0.0000000000000000e+00  0.0000000000000000e+00 0.0000000000000000e+00 0.0000000000000000e+00  0.0000000000000000e+00 0.0000000000000000e+00 0.0000000000000000e+00  -2.1380816409198030e-05 3.0391777002606395e-03 0.0000000000000000e+00  0.0000000000000000e+00 0.0000000000000000e+00 0.0000000000000000e+00  0.0000000000000000e+00 0.0000000000000000e+00 0.0000000000000000e+00  0.0000000000000000e+00 0.0000000000000000e+00 0.0000000000000000e+00  0.0000000000000000e+00 0.0000000000000000e+00 0.0000000000000000e+00  0.0000000000000000e+00 0.0000000000000000e+00 0.0000000000000000e+00  0.0000000000000000e+00 0.0000000000000000e+00 0.0000000000000000e+00  0.0000000000000000e+00 0.0000000000000000e+00 0.0000000000000000e+00  0.0000000000000000e+00 0.0000000000000000e+00 0.0000000000000000e+00  0.0000000000000000e+00 0.0000000000000000e+00 0.0000000000000000e+00  0.0000000000000000e+00 0.0000000000000000e+00 0.0000000000000000e+00  0.0000000000000000e+00 0.0000000000000000e+00 0.0000000000000000e+00  0.0000000000000000e+00 0.0000000000000000e+00 0.0000000000000000e+00  0.0000000000000000e+00 0.0000000000000000e+00 0.0000000000000000e+00  0.0000000000000000e+00 0.0000000000000000e+00 0.0000000000000000e+00  0.0000000000000000e+00 0.0000000000000000e+00 0.0000000000000000e+00  0.0000000000000000e+00 0.0000000000000000e+00 0.0000000000000000e+00  0.0000000000000000e+00 0.0000000000000000e+00 0.0000000000000000e+00  0.0000000000000000e+00 0.0000000000000000e+00 0.0000000000000000e+00  0.0000000000000000e+00 0.0000000000000000e+00 0.0000000000000000e+00  0.0000000000000000e+00 0.0000000000000000e+00 0.0000000000000000e+00  0.0000000000000000e+00 0.0000000000000000e+00 0.0000000000000000e+00  0.0000000000000000e+00 0.0000000000000000e+00 0.0000000000000000e+00  0.0000000000000000e+00 0.0000000000000000e+00 0.0000000000000000e+00  0.0000000000000000e+00 0.0000000000000000e+00 0.0000000000000000e+00  0.0000000000000000e+00 0.0000000000000000e+00 0.0000000000000000e+00  0.0000000000000000e+00 0.0000000000000000e+00 0.0000000000000000e+00  0.0000000000000000e+00 0.0000000000000000e+00 0.0000000000000000e+00  0.0000000000000000e+00 0.0000000000000000e+00 0.0000000000000000e+00  0.0000000000000000e+00 0.0000000000000000e+00 0.0000000000000000e+00  0.0000000000000000e+00 0.0000000000000000e+00 0.0000000000000000e+00  0.0000000000000000e+00 0.0000000000000000e+00 0.0000000000000000e+00  0.0000000000000000e+00 0.0000000000000000e+00 0.0000000000000000e+00  0.0000000000000000e+00 0.0000000000000000e+00 0.0000000000000000e+00  0.0000000000000000e+00 0.0000000000000000e+00 0.0000000000000000e+00  0.0000000000000000e+00 0.0000000000000000e+00 0.0000000000000000e+00  0.0000000000000000e+00 0.0000000000000000e+00 0.0000000000000000e+00  0.0000000000000000e+00 0.0000000000000000e+00 0.0000000000000000e+00  0.0000000000000000e+00 0.0000000000000000e+00 0.0000000000000000e+00  0.0000000000000000e+00 0.0000000000000000e+00 0.0000000000000000e+00  0.0000000000000000e+00 0.0000000000000000e+00 0.0000000000000000e+00  0.0000000000000000e+00 0.0000000000000000e+00 0.0000000000000000e+00  0.0000000000000000e+00 0.0000000000000000e+00 0.0000000000000000e+00  0.0000000000000000e+00 0.0000000000000000e+00 0.0000000000000000e+00  0.0000000000000000e+00 0.0000000000000000e+00 0.0000000000000000e+00  0.0000000000000000e+00 0.0000000000000000e+00 0.0000000000000000e+00  0.0000000000000000e+00 0.0000000000000000e+00 0.0000000000000000e+00  0.0000000000000000e+00 0.0000000000000000e+00 0.0000000000000000e+00  0.0000000000000000e+00 0.0000000000000000e+00 0.0000000000000000e+00  0.0000000000000000e+00 0.0000000000000000e+00 0.0000000000000000e+00  0.0000000000000000e+00 0.0000000000000000e+00 0.0000000000000000e+00  0.0000000000000000e+00 0.0000000000000000e+00 0.0000000000000000e+00  0.0000000000000000e+00 0.0000000000000000e+00 0.0000000000000000e+00  0.0000000000000000e+00 0.0000000000000000e+00 0.0000000000000000e+00  0.0000000000000000e+00 0.0000000000000000e+00 0.0000000000000000e+00  0.0000000000000000e+00 0.0000000000000000e+00 0.0000000000000000e+00  0.0000000000000000e+00 0.0000000000000000e+00 0.0000000000000000e+00  0.0000000000000000e+00 0.0000000000000000e+00 0.0000000000000000e+00  0.0000000000000000e+00 0.0000000000000000e+00 0.0000000000000000e+00  0.0000000000000000e+00 0.0000000000000000e+00 0.0000000000000000e+00  0.0000000000000000e+00 0.0000000000000000e+00 0.0000000000000000e+00  0.0000000000000000e+00 0.0000000000000000e+00 0.0000000000000000e+00  0.0000000000000000e+00 0.0000000000000000e+00 0.0000000000000000e+00  0.0000000000000000e+00 0.0000000000000000e+00 0.0000000000000000e+00  0.0000000000000000e+00 0.0000000000000000e+00 0.0000000000000000e+00  0.0000000000000000e+00 0.0000000000000000e+00 0.0000000000000000e+00  0.0000000000000000e+00 0.0000000000000000e+00 0.0000000000000000e+00  0.0000000000000000e+00 0.0000000000000000e+00 0.0000000000000000e+00  0.0000000000000000e+00 0.0000000000000000e+00 0.0000000000000000e+00  0.0000000000000000e+00 0.0000000000000000e+00 0.0000000000000000e+00  0.0000000000000000e+00 0.0000000000000000e+00 0.0000000000000000e+00  0.0000000000000000e+00 0.0000000000000000e+00 0.0000000000000000e+00  0.0000000000000000e+00 0.0000000000000000e+00 0.0000000000000000e+00  0.0000000000000000e+00 0.0000000000000000e+00 0.0000000000000000e+00  0.0000000000000000e+00 0.0000000000000000e+00 0.0000000000000000e+00  0.0000000000000000e+00 0.0000000000000000e+00 0.0000000000000000e+00  0.0000000000000000e+00 0.0000000000000000e+00 0.0000000000000000e+00  0.0000000000000000e+00 0.0000000000000000e+00 0.0000000000000000e+00  0.0000000000000000e+00 0.0000000000000000e+00 0.0000000000000000e+00  0.0000000000000000e+00 0.0000000000000000e+00 0.0000000000000000e+00  0.0000000000000000e+00 0.0000000000000000e+00 0.0000000000000000e+00  0.0000000000000000e+00 0.0000000000000000e+00 0.0000000000000000e+00  0.0000000000000000e+00 0.0000000000000000e+00 0.0000000000000000e+00  0.0000000000000000e+00 0.0000000000000000e+00 0.0000000000000000e+00  0.0000000000000000e+00 0.0000000000000000e+00 0.0000000000000000e+00  0.0000000000000000e+00 0.0000000000000000e+00 0.0000000000000000e+00  0.0000000000000000e+00 0.0000000000000000e+00 0.0000000000000000e+00  0.0000000000000000e+00 0.0000000000000000e+00 0.0000000000000000e+00  0.0000000000000000e+00 0.0000000000000000e+00 0.0000000000000000e+00  0.0000000000000000e+00 0.0000000000000000e+00 0.0000000000000000e+00  0.0000000000000000e+00 0.0000000000000000e+00 0.0000000000000000e+00  0.0000000000000000e+00 0.0000000000000000e+00 0.0000000000000000e+00  0.0000000000000000e+00 0.0000000000000000e+00 0.0000000000000000e+00  0.0000000000000000e+00 0.0000000000000000e+00 0.0000000000000000e+00  0.0000000000000000e+00 0.0000000000000000e+00 0.0000000000000000e+00  0.0000000000000000e+00 0.0000000000000000e+00 0.0000000000000000e+00  0.0000000000000000e+00 0.0000000000000000e+00 0.0000000000000000e+00  0.0000000000000000e+00 0.0000000000000000e+00 0.0000000000000000e+00  0.0000000000000000e+00 0.0000000000000000e+00 0.0000000000000000e+00  0.0000000000000000e+00 0.0000000000000000e+00 0.0000000000000000e+00  0.0000000000000000e+00 0.0000000000000000e+00 0.0000000000000000e+00  0.0000000000000000e+00 0.0000000000000000e+00 0.0000000000000000e+00  0.0000000000000000e+00 0.0000000000000000e+00 0.0000000000000000e+00  0.0000000000000000e+00 0.0000000000000000e+00 0.0000000000000000e+00  0.0000000000000000e+00 0.0000000000000000e+00 0.0000000000000000e+00  0.0000000000000000e+00 0.0000000000000000e+00 0.0000000000000000e+00  0.0000000000000000e+00 0.0000000000000000e+00 0.0000000000000000e+00  0.0000000000000000e+00 0.0000000000000000e+00 0.0000000000000000e+00  0.0000000000000000e+00 0.0000000000000000e+00 0.0000000000000000e+00  0.0000000000000000e+00 0.0000000000000000e+00 0.0000000000000000e+00  0.0000000000000000e+00 0.0000000000000000e+00 0.0000000000000000e+00  0.0000000000000000e+00 0.0000000000000000e+00 0.0000000000000000e+00  0.0000000000000000e+00 0.0000000000000000e+00 0.0000000000000000e+00  0.0000000000000000e+00 0.0000000000000000e+00 0.0000000000000000e+00  0.0000000000000000e+00 0.0000000000000000e+00 0.0000000000000000e+00  0.0000000000000000e+00 0.0000000000000000e+00 0.0000000000000000e+00  0.0000000000000000e+00 0.0000000000000000e+00 0.0000000000000000e+00  0.0000000000000000e+00 0.0000000000000000e+00 0.0000000000000000e+00  0.0000000000000000e+00 0.0000000000000000e+00 0.0000000000000000e+00  0.0000000000000000e+00 0.0000000000000000e+00 0.0000000000000000e+00  0.0000000000000000e+00 0.0000000000000000e+00 0.0000000000000000e+00  0.0000000000000000e+00 0.0000000000000000e+00 0.0000000000000000e+00  0.0000000000000000e+00 0.0000000000000000e+00 0.0000000000000000e+00  0.0000000000000000e+00 0.0000000000000000e+00 0.0000000000000000e+00  0.0000000000000000e+00 0.0000000000000000e+00 0.0000000000000000e+00  0.0000000000000000e+00 0.0000000000000000e+00 0.0000000000000000e+00  0.0000000000000000e+00 0.0000000000000000e+00 0.0000000000000000e+00  0.0000000000000000e+00 0.0000000000000000e+00 0.0000000000000000e+00  0.0000000000000000e+00 0.0000000000000000e+00 0.0000000000000000e+00  0.0000000000000000e+00 0.0000000000000000e+00 0.0000000000000000e+00  0.0000000000000000e+00 0.0000000000000000e+00 0.0000000000000000e+00  0.0000000000000000e+00 0.0000000000000000e+00 0.0000000000000000e+00  0.0000000000000000e+00 0.0000000000000000e+00 0.0000000000000000e+00  -8.3476862232911305e-06 7.9702906212789325e-06 0.0000000000000000e+00  -1.7655869952573493e-05 1.7747373628663339e-05 0.0000000000000000e+00  -2.5782921958311234e-05 3.3359324656718681e-05 0.0000000000000000e+00  -3.4406006788210296e-05 5.5141849037659744e-05 0.0000000000000000e+00  -4.1507445796842327e-05 8.1911388211929544e-05 0.0000000000000000e+00  -4.9338611561768031e-05 1.1411261632382590e-04 0.0000000000000000e+00  -5.5554494096358328e-05 1.5021511767910844e-04 0.0000000000000000e+00  -6.1437184946896219e-05 1.9134769468603252e-04 0.0000000000000000e+00  -6.8000163079938740e-05 2.3619171060642799e-04 0.0000000000000000e+00  -7.2910122976884255e-05 2.8478184811679371e-04 0.0000000000000000e+00  -7.8676661883397500e-05 3.3699316503648074e-04 0.0000000000000000e+00  -8.2929847471609495e-05 3.9236634428731719e-04 0.0000000000000000e+00  -8.7731377783554823e-05 4.5073844878716548e-04 0.0000000000000000e+00  -9.1471358613390969e-05 5.1144029621274091e-04 0.0000000000000000e+00  -9.4952139512264881e-05 5.7491328150277262e-04 0.0000000000000000e+00  -9.8714921628817565e-05 6.4038692242721898e-04 0.0000000000000000e+00  -1.0150760739456183e-04 7.0780791139497541e-04 0.0000000000000000e+00  -1.0463918995505337e-04 7.7707991884800004e-04 0.0000000000000000e+00  -1.0693500665635519e-04 8.4785022801160291e-04 0.0000000000000000e+00  -1.0944906988208000e-04 9.2001657433372008e-04 0.0000000000000000e+00  -1.1139711996544536e-04 9.9338413910289580e-04 0.0000000000000000e+00  -1.1338023389485489e-04 1.0678781818050705e-03 0.0000000000000000e+00  -1.1494989237326700e-04 1.1431295653195615e-03 0.0000000000000000e+00  -1.1636209922885350e-04 1.2193035348072878e-03 0.0000000000000000e+00  -1.1779642615167693e-04 1.2960640378395086e-03 0.0000000000000000e+00  -1.1894467574415085e-04 1.3734433544794282e-03 0.0000000000000000e+00  -1.2001237808093654e-04 1.4513503958209369e-03 0.0000000000000000e+00  -1.2091737461297110e-04 1.5296133227464162e-03 0.0000000000000000e+00  -1.2174521283429527e-04 1.6082638037241753e-03 0.0000000000000000e+00  -1.2244936044662137e-04 1.6871460233750454e-03 0.0000000000000000e+00  -1.2308585837441944e-04 1.7662830755466924e-03 0.0000000000000000e+00  -1.2362811064763491e-04 1.8455498043301627e-03 0.0000000000000000e+00  -1.2411525162974517e-04 1.9249674967368247e-03 0.0000000000000000e+00  -1.2453205053976894e-04 2.0044402954311623e-03 0.0000000000000000e+00  -1.2490331414574134e-04 2.0839921402314152e-03 0.0000000000000000e+00  -1.2523139909377610e-04 2.1635567402523100e-03 0.0000000000000000e+00  -1.2552876281283115e-04 2.2431498216626093e-03 0.0000000000000000e+00  -1.2580101034507770e-04 2.3227348907896373e-03 0.0000000000000000e+00  -1.2605334685970171e-04 2.4023227304957500e-03 0.0000000000000000e+00  -1.2629501032738552e-04 2.4818985527209122e-03 0.0000000000000000e+00  -1.2652770208455792e-04 2.5614660327481012e-03 0.0000000000000000e+00  -1.2676003761376289e-04 2.6410261551069302e-03 0.0000000000000000e+00  -1.2698728733094889e-04 2.7205848616809075e-03 0.0000000000000000e+00  -1.2721632110924207e-04 2.8001444602792106e-03 0.0000000000000000e+00  -1.2744820274991265e-04 2.8797141895198311e-03 0.0000000000000000e+00  -1.2767432478767845e-04 2.9592895712368867e-03 0.0000000000000000e+00  -7.4651088490042117e-05 3.0390180962393508e-03 0.0000000000000000e+00  3.1921923461466314e-05 3.0393386756581275e-03 0.0000000000000000e+00  8.5471143033323570e-05 2.9598770863717575e-03 0.0000000000000000e+00  8.5686874558794422e-05 2.8802826225716865e-03 0.0000000000000000e+00  8.5910695343168538e-05 2.8007008937188365e-03 0.0000000000000000e+00  8.6137592769008526e-05 2.7211201361419879e-03 0.0000000000000000e+00  8.6369511660616734e-05 2.6415375949395744e-03 0.0000000000000000e+00  8.6613343936069639e-05 2.5619487729295841e-03 0.0000000000000000e+00  8.6863224132630504e-05 2.4823500187295287e-03 0.0000000000000000e+00  8.7119532790420402e-05 2.4027422267905900e-03 0.0000000000000000e+00  8.7378281679312229e-05 2.3231210370197410e-03 0.0000000000000000e+00  8.7639702236580469e-05 2.2434925587113148e-03 0.0000000000000000e+00  8.7891377515499387e-05 2.1638616348488120e-03 0.0000000000000000e+00  8.8145404319178985e-05 2.0842442629729293e-03 0.0000000000000000e+00  8.8367707930781965e-05 2.0046516803795150e-03 0.0000000000000000e+00  8.8592299973886058e-05 1.9251168386263189e-03 0.0000000000000000e+00  8.8749923359630753e-05 1.8456552567138215e-03 0.0000000000000000e+00  8.8916920638737988e-05 1.7663212207428055e-03 0.0000000000000000e+00  8.8971784897631060e-05 1.6871360706833907e-03 0.0000000000000000e+00  8.9051465262879423e-05 1.6081759857332072e-03 0.0000000000000000e+00  8.8963176000587743e-05 1.5294702503942698e-03 0.0000000000000000e+00  8.8923566278769023e-05 1.4511162786218876e-03 0.0000000000000000e+00  8.8640319312891224e-05 1.3731505737000892e-03 0.0000000000000000e+00  8.8436796210592403e-05 1.2956963777610037e-03 0.0000000000000000e+00  8.7916264098875286e-05 1.2188159730033125e-03 0.0000000000000000e+00  8.7457124009912947e-05 1.1425591744084950e-03 0.0000000000000000e+00  8.6883398195994517e-05 1.0672250073437267e-03 0.0000000000000000e+00  8.5945826095702794e-05 9.9260479582809224e-04 0.0000000000000000e+00  8.4996746616037845e-05 9.1917464296369892e-04 0.0000000000000000e+00  8.3702333696245582e-05 8.4684888815370236e-04 0.0000000000000000e+00  8.2340120462026111e-05 7.7599422887396016e-04 0.0000000000000000e+00  8.0583134559391133e-05 7.0660530615990408e-04 0.0000000000000000e+00  7.8749467209871513e-05 6.3898350309691957e-04 0.0000000000000000e+00  7.6214405598505071e-05 5.7352000069913660e-04 0.0000000000000000e+00  7.3943323977783599e-05 5.0989286000067047e-04 0.0000000000000000e+00  7.1421628556695061e-05 4.4911183755230787e-04 0.0000000000000000e+00  6.7997282671747019e-05 3.9041617311889252e-04 0.0000000000000000e+00  6.4644707491285405e-05 3.3502355275200741e-04 0.0000000000000000e+00  6.0615807524209191e-05 2.8265419108172132e-04 0.0000000000000000e+00  5.6586995854366903e-05 2.3377640182448739e-04 0.0000000000000000e+00  5.1401554334296406e-05 1.8902472245534597e-04 0.0000000000000000e+00  4.6823550194625559e-05 1.4769771213395249e-04 0.0000000000000000e+00  4.1943790250432076e-05 1.1148262574897140e-04 0.0000000000000000e+00  3.5572129936917479e-05 7.9011121656312797e-05 0.0000000000000000e+00  2.9624035551153089e-05 5.2025833119256672e-05 0.0000000000000000e+00  2.2294353064316373e-05 3.0428035012121932e-05 0.0000000000000000e+00  1.5604877157629735e-05 1.4702489102437417e-05 0.0000000000000000e+00  7.4161569831503557e-06 5.0132762754108960e-06 0.0000000000000000e+00  -5.8139018298581317e-07 7.0265740180940369e-06 0.0000000000000000e+00  -2.2382907478410115e-05 2.9196020781810500e-03 0.0000000000000000e+00  -2.2760815365434918e-05 2.7675170953611115e-03 0.0000000000000000e+00  -2.1043532569083802e-05 2.5190731106594596e-03 0.0000000000000000e+00  -1.9588942165171138e-06 3.8384454942908179e-05 0.0000000000000000e+00  -1.9355988000189281e-05 2.3627306786227504e-03 0.0000000000000000e+00  -2.7511078174389139e-06 9.0058220109880596e-05 0.0000000000000000e+00  -1.8821176365357484e-05 2.2035014588360530e-03 0.0000000000000000e+00  -4.5115802802508486e-06 2.1133020376751927e-04 0.0000000000000000e+00  -6.5639476512233525e-06 3.0727986604219871e-04 0.0000000000000000e+00  -1.8240747923501745e-05 2.0442902585455537e-03 0.0000000000000000e+00  -8.4874312447448466e-06 6.0804824261591187e-04 0.0000000000000000e+00  -1.6914629555014464e-05 1.7265635665018597e-03 0.0000000000000000e+00  -6.7642765948652096e-06 4.1364110520729396e-04 0.0000000000000000e+00  -1.0800710947713332e-05 7.4057138385944920e-04 0.0000000000000000e+00  -1.6161341394012892e-05 1.5686332652472758e-03 0.0000000000000000e+00  -1.7606712283757347e-05 1.8852320817983558e-03 0.0000000000000000e+00  -1.1920769448410675e-05 8.8243854285454597e-04 0.0000000000000000e+00  -1.5338700080355433e-05 1.4119047496331445e-03 0.0000000000000000e+00  -1.1643183857224689e-05 1.0234198901793029e-03 0.0000000000000000e+00  -1.5778711146876592e-05 1.2601367030283966e-03 0.0000000000000000e+00  -1.3659155531147539e-05 1.1362322874084196e-03 0.0000000000000000e+00  -8.8321633638710668e-06 5.0405360680846206e-04 0.0000000000000000e+00  -2.0038649297174895e-05 2.6482488045949538e-03 0.0000000000000000e+00  -4.2190022339401953e-06 1.4367538118769635e-04 0.0000000000000000e+00  1.4851682941009738e-05 2.8431082684063622e-03 0.0000000000000000e+00  6.0660080741033968e-06 1.9582231942205869e-05 0.0000000000000000e+00  1.1906947809960553e-05 2.2831733527869645e-03 0.0000000000000000e+00  1.1390821626914426e-05 2.4423949138909413e-03 0.0000000000000000e+00  -1.5002255482877509e-05 6.3750692216768637e-05 0.0000000000000000e+00  -2.4726446134177625e-05 2.5720933179634148e-04 0.0000000000000000e+00  1.3584570063915470e-05 1.8058560869743496e-03 0.0000000000000000e+00  1.2449325076014446e-05 2.1239319188745844e-03 0.0000000000000000e+00  -3.6371530788397977e-05 6.7235494326286279e-04 0.0000000000000000e+00  1.4147383650097726e-05 1.6474971828744310e-03 0.0000000000000000e+00  -2.8492997508095012e-05 3.6186690552192716e-04 0.0000000000000000e+00  -3.8791813129408121e-05 8.1107094445038476e-04 0.0000000000000000e+00  1.4684841291600929e-05 1.4900943394628669e-03 0.0000000000000000e+00  1.3012944323328748e-05 1.9647647607229225e-03 0.0000000000000000e+00  -4.7151766734267619e-05 9.5483501477633252e-04 0.0000000000000000e+00  1.5184808075305067e-05 1.3341661078053774e-03 0.0000000000000000e+00  -1.4504435943276047e-06 1.9264841160348593e-06 0.0000000000000000e+00  1.1566108208717360e-06 1.1110128482031560e-06 0.0000000000000000e+00  -4.7110346099508056e-05 2.9821304585650756e-03 0.0000000000000000e+00  -9.4137667116404006e-06 2.0812245529262520e-05 0.0000000000000000e+00  2.2529908649863933e-05 1.1974635398340923e-03 0.0000000000000000e