<?xml version="1.0"?>
<VTKFile type="UnstructuredGrid"  version="0.1"  >
<UnstructuredGrid>
<Piece  NumberOfPoints="1419" NumberOfCells="2698">
<Points>
<DataArray  type="Float64"  NumberOfComponents="3"  format="ascii">0 0 0  0 0.41 0  2.5 0 0  2.5 0.41 0  0.6 0.19 0  0.6 0.21 0  0.25 0.2 0  0.15 0.2 0  0.2489897948556636 0.21 0  0.2489897948556636 0.19 0  0.6 0.2 0  0 0.3807142857143437 0  0 0.3514285714286952 0  0 0.3221428571430699 0  0 0.29285714285744 0  0 0.2635714285718054 0  0 0.2342857142861561 0  0 0.2050000000005308 0  0 0.175714285714732 0  0 0.1464285714289574 0  0 0.1171428571431897 0  0 0.08785714285737878 0  0 0.05857142857161107 0  0 0.02928571428580012 0  0.03015443760436003 0 0  0.06140001986583606 0 0  0.09377624077125973 0 0  0.1273239957535082 0 0  0.1620856860351972 0 0  0.1981052433264291 0 0  0.235428184091502 0 0  0.2741016576309132 0 0  0.3141745521465447 0 0  0.3556974926295285 0 0  0.3987229542472677 0 0  0.4433053055141081 0 0  0.4895008759286886 0 0  0.5373680609405097 0 0  0.5869673343216626 0 0  0.6383613676634521 0 0  0.6916151138468254 0 0  0.7467958595648856 0 0  0.8039733463919316 0 0  0.8632198139502143 0 0  0.9246101326867038 0 0  0.9882218810934433 0 0  1.054135445558498 0 0  1.122434100542598 0 0  1.193204177141305 0 0  1.266535089879536 0 0  1.342519516046404 0 0  1.421253448503939 0 0  1.502836389106271 0 0  1.587371439758838 0 0  1.674965418777374 0 0  1.765729001825544 0 0  1.859776908880082 0 0  1.957227977487062 0 0  2.058205329869943 0 0  2.162836591189951 0 0  2.271253957290865 0 0  2.383594446803425 0 0  2.5 0.1024999999997612 0  2.5 0.2049999999994743 0  2.5 0.3074999999997183 0  2.383594446803656 0.41 0  2.271253957291315 0.41 0  2.162836591190598 0.41 0  2.058205329870775 0.41 0  1.957227977488067 0.41 0  1.859776908881246 0.41 0  1.765729001826854 0.41 0  1.674965418778818 0.41 0  1.58737143976041 0.41 0  1.502836389107956 0.41 0  1.421253448505726 0.41 0  1.342519516048286 0.41 0  1.266535089881505 0.41 0  1.193204177143353 0.41 0  1.122434100544716 0.41 0  1.05413544556068 0.41 0  0.9882218810956305 0.41 0  0.9246101326886647 0.41 0  0.8632198139519631 0.41 0  0.8039733463934788 0.41 0  0.7467958595662458 0.41 0  0.6916151138480078 0.41 0  0.6383613676644679 0.41 0  0.5869673343225223 0.41 0  0.5373680609412221 0.41 0  0.4895008759292634 0.41 0  0.4433053055145528 0.41 0  0.3987229542475914 0.41 0  0.3556974926297398 0.41 0  0.3141745521466497 0.41 0  0.2741016576310038 0.41 0  0.2354281840915826 0.41 0  0.1981052433265003 0.41 0  0.1620856860352591 0.41 0  0.1273239957535623 0.41 0  0.09377624077128965 0.41 0  0.06140001986584975 0.41 0  0.03015443760436654 0.41 0  0.2497468076502589 0.2050254481002335 0  0.2497468076502614 0.1949745518997913 0  0.2469965252529372 0.1829317073451959 0  0.2439893735792749 0.1762316384219906 0  0.2400332147834255 0.1700443375285386 0  0.2352133972704371 0.1645032867342007 0  0.2296339016332438 0.1597280261969788 0  0.2234150974217223 0.1558215752574715 0  0.2166911463437691 0.1528682099456123 0  0.2096071079204251 0.1509316448471593 0  0.2023158100364996 0.1500536585536553 0  0.194974551899914 0.1502531923497262 0  0.1877417105387872 0.1515259415822739 0  0.1807733240461124 0.153844448527136 0  0.1742197252835808 0.15715869474974 0  0.1682222986673531 0.1613971801805478 0  0.162910430003803 0.1664684656256651 0  0.1583987151779087 0.1722631454351573 0  0.1547844879126891 0.178656207771761 0  0.1521457199348551 0.1855097315605723 0  0.1505393388476355 0.1926758619366523 0  0.1505393388476328 0.2073241380633295 0  0.1521457199348437 0.2144902684393899 0  0.1547844879126531 0.221343792228163 0  0.1583987151778488 0.2277368545647528 0  0.1629104300036858 0.2335315343742052 0  0.1682222986671726 0.2386028198193036 0  0.1742197252833576 0.2428413052501257 0  0.1807733240458683 0.2461555514727623 0  0.1877417105384929 0.2484740584176516 0  0.1949745518995776 0.2497468076502398 0  0.202315810036185 0.2499463414463592 0  0.2096071079201568 0.2490683551528932 0  0.2166911463435495 0.2471317900544655 0  0.2234150974215506 0.2441784247426195 0  0.2296339016331197 0.2402719738031125 0  0.2352133972703547 0.2354967132658811 0  0.2400332147833751 0.2299556624715287 0  0.2439893735792577 0.2237683615780412 0  0.246996525252926 0.2170682926548348 0  0.25645809709277 0.21 0  0.2639263993298655 0.21 0  0.271394701566961 0.21 0  0.2788630038040554 0.21 0  0.2863313060411479 0.21 0  0.2937996082782405 0.21 0  0.301267910515333 0.21 0  0.3087362127524279 0.21 0  0.3162045149895234 0.21 0  0.3236728172265972 0.21 0  0.3311411194636928 0.21 0  0.3386094217007701 0.21 0  0.3460777239378666 0.21 0  0.3535460261749672 0.21 0  0.3610143284120516 0.21 0  0.3684826306491596 0.21 0  0.3759509328862226 0.21 0  0.383419235123329 0.21 0  0.3908875373604028 0.21 0  0.3983558395975142 0.21 0  0.4058241418345938 0.21 0  0.4132924440716992 0.21 0  0.4207607463087888 0.21 0  0.4282290485459029 0.21 0  0.4356973507830418 0.21 0  0.4431656530201649 0.21 0  0.4506339552573136 0.21 0  0.4581022574944306 0.21 0  0.4655705597315852 0.21 0  0.4730388619686996 0.21 0  0.480507164205851 0.21 0  0.4879754664429498 0.21 0  0.4954437686800938 0.21 0  0.502912070917267 0.21 0  0.5103803731544119 0.21 0  0.5178486753915261 0.21 0  0.5253169776286404 0.21 0  0.5327852798657868 0.21 0  0.5402535821029386 0.21 0  0.54772188434007 0.21 0  0.5551901865771842 0.21 0  0.5626584888143201 0.21 0  0.5701267910514778 0.21 0  0.5775950932886138 0.21 0  0.5850633955257281 0.21 0  0.5925316977628483 0.21 0  0.6 0.2050000000000054 0  0.6 0.1950000000000217 0  0.5925316977628897 0.19 0  0.5850633955257988 0.19 0  0.5775950932887378 0.19 0  0.5701267910515998 0.19 0  0.5626584888145268 0.19 0  0.5551901865773963 0.19 0  0.547721884340339 0.19 0  0.5402535821032429 0.19 0  0.5327852798661811 0.19 0  0.5253169776290537 0.19 0  0.5178486753919799 0.19 0  0.5103803731549078 0.19 0  0.502912070917822 0.19 0  0.4954437686807294 0.19 0  0.4879754664436223 0.19 0  0.4805071642065402 0.19 0  0.4730388619694271 0.19 0  0.4655705597323621 0.19 0  0.4581022574952563 0.19 0  0.4506339552581777 0.19 0  0.4431656530210671 0.19 0  0.4356973507839815 0.19 0  0.4282290485468779 0.19 0  0.4207607463097617 0.19 0  0.4132924440726327 0.19 0  0.4058241418354857 0.19 0  0.3983558395983636 0.19 0  0.3908875373612097 0.19 0  0.3834192351240934 0.19 0  0.3759509328869369 0.19 0  0.3684826306498175 0.19 0  0.361014328412667 0.19 0  0.3535460261755617 0.19 0  0.3460777239384295 0.19 0  0.3386094217012945 0.19 0  0.3311411194641595 0.19 0  0.3236728172270245 0.19 0  0.3162045149898895 0.19 0  0.3087362127527544 0.19 0  0.3012679105156187 0.19 0  0.2937996082784807 0.19 0  0.2863313060413428 0.19 0  0.2788630038042048 0.19 0  0.2713947015670686 0.19 0  0.2639263993299336 0.19 0  0.2564580970927985 0.19 0  0.2607803159922026 0.2000727136295815 0  0.5887803774232762 0.2001272386983733 0  0.5745072403740523 0.2002044435018727 0  0.5511891430099709 0.2001122610077113 0  0.2751288526855082 0.20000000000002 0  0.5365194309847112 0.1999999999999436 0  0.2894621222999649 0.1998691686390484 0  0.5215828265105155 0.1999999999999228 0  0.3127789816668748 0.1998657885438805 0  0.3274069683451451 0.2000000000000796 0  0.5066462220363641 0.199999999999908 0  0.3650630746574081 0.199866017807523 0  0.476773013087985 0.1999999999998713 0  0.3417402379596385 0.1998691686391011 0  0.3796850840047755 0.200000000000134 0  0.4618364086138087 0.1999999999998546 0  0.4917096175621762 0.1999999999998808 0  0.3946216884789568 0.2000000000001512 0  0.446899804139621 0.1999999999998389 0  0.4089549580935208 0.1998691686391595 0  0.4322718174608562 0.200127451265745 0  0.4201487168029707 0.1999966199048527 0  0.3528922713220932 0.2000185703532356 0  0.5633122436674589 0.1999814296467508 0  0.3006558810093873 0.1999966199048318 0  0.5815926498168407 0.1966545283159175 0  0.2677053789419034 0.1964246479135325 0  0.5290511287476175 0.1970915826863981 0  0.5439877332217911 0.197091582686394 0  0.2825131256993216 0.2035478995978015 0  0.3199386661080599 0.202908417313604 0  0.4842413153250809 0.1970915826863873 0  0.5141145242734466 0.1970915826863843 0  0.3722167817676917 0.2029084173136195 0  0.4693047108508938 0.1970915826863783 0  0.3348752705822316 0.202908417313609 0  0.3871533862418661 0.2029084173136212 0  0.4543681063767183 0.1970915826863795 0  0.4991779197992749 0.1970915826863902 0  0.4020059614928624 0.203547899597858 0  0.4394315019025246 0.1970915826863714 0  0.2550657455369551 0.2034088125358657 0  0.2548908499171161 0.1966940311614271 0  0.5946539510196798 0.2024302972968126 0  0.267698176732111 0.2039977513680092 0  0.4261685417851465 0.196409292431739 0  0.3590076176283495 0.196411355804271 0  0.5571672426447437 0.2036011176410121 0  0.3066757059912147 0.1964092924317024 0  0.594380730180568 0.1966558399668133 0  0.4842413153245942 0.2040749161535287 0  0.4693047108503577 0.2040749161535231 0  0.3871533862424271 0.1959250838464788 0  0.372246743208829 0.1959123236376545 0  0.5141145242731028 0.2040749161535395 0  0.4543681063761134 0.2040749161535186 0  0.4019979587101454 0.1959834479682427 0  0.4394608940728603 0.2040870543693135 0  0.5439623148931173 0.2040856076781014 0  0.5290511287473298 0.2040749161535501 0  0.4991779197988497 0.2040749161535382 0  0.3347912413592433 0.1959225448935183 0  0.3199680582793816 0.1959123018030061 0  0.2825051229162361 0.1959834479681729 0  0.3590471196690275 0.2036304442587945 0  0.5571594006495384 0.1963685282145804 0  0.3067669986803285 0.203627750582736 0  0.4262598344738712 0.2036568242185335 0  0.5814408164431408 0.2041285596160068 0  0.5688286748170428 0.1961819304477386 0  0.4145905603063645 0.2038180695522843 0  0.3473758401724931 0.2038180695522752 0  0.2950977245128307 0.2038180695522663 0  0.5688286748170693 0.203818069552238 0  0.2950977245127906 0.1961819304477774 0  0.3473758401723931 0.1961819304478349 0  0.4145905603061963 0.1961819304479011 0  0.2601812407614425 0.2056861609747042
[...]
<PointData  Vectors="f_40-1"> 
<DataArray  type="Float64"  Name="f_40-1"  NumberOfComponents="3" format="ascii">0.0000000000000000e+00 0.0000000000000000e+00 0.0000000000000000e+00  0.0000000000000000e+00 0.0000000000000000e+00 0.0000000000000000e+00  0.0000000000000000e+00 0.0000000000000000e+00 0.0000000000000000e+00  0.0000000000000000e+00 0.0000000000000000e+00 0.0000000000000000e+00  -3.2588499866099041e-05 -1.0654167753181469e-04 0.0000000000000000e+00  -6.2769943839304935e-06 -1.1049597471889576e-04 0.0000000000000000e+00  0.0000000000000000e+00 0.0000000000000000e+00 0.0000000000000000e+00  0.0000000000000000e+00 0.0000000000000000e+00 0.0000000000000000e+00  0.0000000000000000e+00 0.0000000000000000e+00 0.0000000000000000e+00  0.0000000000000000e+00 0.0000000000000000e+00 0.0000000000000000e+00  -1.9882917430657245e-05 -1.0850885879119538e-04 0.0000000000000000e+00  0.0000000000000000e+00 0.0000000000000000e+00 0.0000000000000000e+00  0.0000000000000000e+00 0.0000000000000000e+00 0.0000000000000000e+00  0.0000000000000000e+00 0.0000000000000000e+00 0.0000000000000000e+00  0.0000000000000000e+00 0.0000000000000000e+00 0.0000000000000000e+00  0.0000000000000000e+00 0.0000000000000000e+00 0.0000000000000000e+00  0.0000000000000000e+00 0.0000000000000000e+00 0.0000000000000000e+00  0.0000000000000000e+00 0.0000000000000000e+00 0.0000000000000000e+00  0.0000000000000000e+00 0.0000000000000000e+00 0.0000000000000000e+00  0.0000000000000000e+00 0.0000000000000000e+00 0.0000000000000000e+00  0.0000000000000000e+00 0.0000000000000000e+00 0.0000000000000000e+00  0.0000000000000000e+00 0.0000000000000000e+00 0.0000000000000000e+00  0.0000000000000000e+00 0.0000000000000000e+00 0.0000000000000000e+00  0.0000000000000000e+00 0.0000000000000000e+00 0.0000000000000000e+00  0.0000000000000000e+00 0.0000000000000000e+00 0.0000000000000000e+00  0.0000000000000000e+00 0.0000000000000000e+00 0.0000000000000000e+00  0.0000000000000000e+00 0.0000000000000000e+00 0.0000000000000000e+00  0.0000000000000000e+00 0.0000000000000000e+00 0.0000000000000000e+00  0.0000000000000000e+00 0.0000000000000000e+00 0.0000000000000000e+00  0.0000000000000000e+00 0.0000000000000000e+00 0.0000000000000000e+00  0.0000000000000000e+00 0.0000000000000000e+00 0.0000000000000000e+00  0.0000000000000000e+00 0.0000000000000000e+00 0.0000000000000000e+00  0.0000000000000000e+00 0.0000000000000000e+00 0.0000000000000000e+00  0.0000000000000000e+00 0.0000000000000000e+00 0.0000000000000000e+00  0.0000000000000000e+00 0.0000000000000000e+00 0.0000000000000000e+00  0.0000000000000000e+00 0.0000000000000000e+00 0.0000000000000000e+00  0.0000000000000000e+00 0.0000000000000000e+00 0.0000000000000000e+00  0.0000000000000000e+00 0.0000000000000000e+00 0.0000000000000000e+00  0.0000000000000000e+00 0.0000000000000000e+00 0.0000000000000000e+00  0.0000000000000000e+00 0.0000000000000000e+00 0.0000000000000000e+00  0.0000000000000000e+00 0.0000000000000000e+00 0.0000000000000000e+00  0.0000000000000000e+00 0.0000000000000000e+00 0.0000000000000000e+00  0.0000000000000000e+00 0.0000000000000000e+00 0.0000000000000000e+00  0.0000000000000000e+00 0.0000000000000000e+00 0.0000000000000000e+00  0.0000000000000000e+00 0.0000000000000000e+00 0.0000000000000000e+00  0.0000000000000000e+00 0.0000000000000000e+00 0.0000000000000000e+00  0.0000000000000000e+00 0.0000000000000000e+00 0.0000000000000000e+00  0.0000000000000000e+00 0.0000000000000000e+00 0.0000000000000000e+00  0.0000000000000000e+00 0.0000000000000000e+00 0.0000000000000000e+00  0.0000000000000000e+00 0.0000000000000000e+00 0.0000000000000000e+00  0.0000000000000000e+00 0.0000000000000000e+00 0.0000000000000000e+00  0.0000000000000000e+00 0.0000000000000000e+00 0.0000000000000000e+00  0.0000000000000000e+00 0.0000000000000000e+00 0.0000000000000000e+00  0.0000000000000000e+00 0.0000000000000000e+00 0.0000000000000000e+00  0.0000000000000000e+00 0.0000000000000000e+00 0.0000000000000000e+00  0.0000000000000000e+00 0.0000000000000000e+00 0.0000000000000000e+00  0.0000000000000000e+00 0.0000000000000000e+00 0.0000000000000000e+00  0.0000000000000000e+00 0.0000000000000000e+00 0.0000000000000000e+00  0.0000000000000000e+00 0.0000000000000000e+00 0.0000000000000000e+00  0.0000000000000000e+00 0.0000000000000000e+00 0.0000000000000000e+00  0.0000000000000000e+00 0.0000000000000000e+00 0.0000000000000000e+00  0.0000000000000000e+00 0.0000000000000000e+00 0.0000000000000000e+00  0.0000000000000000e+00 0.0000000000000000e+00 0.0000000000000000e+00  0.0000000000000000e+00 0.0000000000000000e+00 0.0000000000000000e+00  0.0000000000000000e+00 0.0000000000000000e+00 0.0000000000000000e+00  0.0000000000000000e+00 0.0000000000000000e+00 0.0000000000000000e+00  0.0000000000000000e+00 0.0000000000000000e+00 0.0000000000000000e+00  0.0000000000000000e+00 0.0000000000000000e+00 0.0000000000000000e+00  0.0000000000000000e+00 0.0000000000000000e+00 0.0000000000000000e+00  0.0000000000000000e+00 0.0000000000000000e+00 0.0000000000000000e+00  0.0000000000000000e+00 0.0000000000000000e+00 0.0000000000000000e+00  0.0000000000000000e+00 0.0000000000000000e+00 0.0000000000000000e+00  0.0000000000000000e+00 0.0000000000000000e+00 0.0000000000000000e+00  0.0000000000000000e+00 0.0000000000000000e+00 0.0000000000000000e+00  0.0000000000000000e+00 0.0000000000000000e+00 0.0000000000000000e+00  0.0000000000000000e+00 0.0000000000000000e+00 0.0000000000000000e+00  0.0000000000000000e+00 0.0000000000000000e+00 0.0000000000000000e+00  0.0000000000000000e+00 0.0000000000000000e+00 0.0000000000000000e+00  0.0000000000000000e+00 0.0000000000000000e+00 0.0000000000000000e+00  0.0000000000000000e+00 0.0000000000000000e+00 0.0000000000000000e+00  0.0000000000000000e+00 0.0000000000000000e+00 0.0000000000000000e+00  0.0000000000000000e+00 0.0000000000000000e+00 0.0000000000000000e+00  0.0000000000000000e+00 0.0000000000000000e+00 0.0000000000000000e+00  0.0000000000000000e+00 0.0000000000000000e+00 0.0000000000000000e+00  0.0000000000000000e+00 0.0000000000000000e+00 0.0000000000000000e+00  0.0000000000000000e+00 0.0000000000000000e+00 0.0000000000000000e+00  0.0000000000000000e+00 0.0000000000000000e+00 0.0000000000000000e+00  0.0000000000000000e+00 0.0000000000000000e+00 0.0000000000000000e+00  0.0000000000000000e+00 0.0000000000000000e+00 0.0000000000000000e+00  0.0000000000000000e+00 0.0000000000000000e+00 0.0000000000000000e+00  0.0000000000000000e+00 0.0000000000000000e+00 0.0000000000000000e+00  0.0000000000000000e+00 0.0000000000000000e+00 0.0000000000000000e+00  0.0000000000000000e+00 0.0000000000000000e+00 0.0000000000000000e+00  0.0000000000000000e+00 0.0000000000000000e+00 0.0000000000000000e+00  0.0000000000000000e+00 0.0000000000000000e+00 0.0000000000000000e+00  0.0000000000000000e+00 0.0000000000000000e+00 0.0000000000000000e+00  0.0000000000000000e+00 0.0000000000000000e+00 0.0000000000000000e+00  0.0000000000000000e+00 0.0000000000000000e+00 0.0000000000000000e+00  0.0000000000000000e+00 0.0000000000000000e+00 0.0000000000000000e+00  0.0000000000000000e+00 0.0000000000000000e+00 0.0000000000000000e+00  0.0000000000000000e+00 0.0000000000000000e+00 0.0000000000000000e+00  0.0000000000000000e+00 0.0000000000000000e+00 0.0000000000000000e+00  0.0000000000000000e+00 0.0000000000000000e+00 0.0000000000000000e+00  0.0000000000000000e+00 0.0000000000000000e+00 0.0000000000000000e+00  0.0000000000000000e+00 0.0000000000000000e+00 0.0000000000000000e+00  0.0000000000000000e+00 0.0000000000000000e+00 0.0000000000000000e+00  0.0000000000000000e+00 0.0000000000000000e+00 0.0000000000000000e+00  0.0000000000000000e+00 0.0000000000000000e+00 0.0000000000000000e+00  0.0000000000000000e+00 0.0000000000000000e+00 0.0000000000000000e+00  0.0000000000000000e+00 0.0000000000000000e+00 0.0000000000000000e+00  0.0000000000000000e+00 0.0000000000000000e+00 0.0000000000000000e+00  0.0000000000000000e+00 0.0000000000000000e+00 0.0000000000000000e+00  0.0000000000000000e+00 0.0000000000000000e+00 0.0000000000000000e+00  0.0000000000000000e+00 0.0000000000000000e+00 0.0000000000000000e+00  0.0000000000000000e+00 0.0000000000000000e+00 0.0000000000000000e+00  0.0000000000000000e+00 0.0000000000000000e+00 0.0000000000000000e+00  0.0000000000000000e+00 0.0000000000000000e+00 0.0000000000000000e+00  0.0000000000000000e+00 0.0000000000000000e+00 0.0000000000000000e+00  0.0000000000000000e+00 0.0000000000000000e+00 0.0000000000000000e+00  0.0000000000000000e+00 0.0000000000000000e+00 0.0000000000000000e+00  0.0000000000000000e+00 0.0000000000000000e+00 0.0000000000000000e+00  0.0000000000000000e+00 0.0000000000000000e+00 0.0000000000000000e+00  0.0000000000000000e+00 0.0000000000000000e+00 0.0000000000000000e+00  0.0000000000000000e+00 0.0000000000000000e+00 0.0000000000000000e+00  0.0000000000000000e+00 0.0000000000000000e+00 0.0000000000000000e+00  0.0000000000000000e+00 0.0000000000000000e+00 0.0000000000000000e+00  0.0000000000000000e+00 0.0000000000000000e+00 0.0000000000000000e+00  0.0000000000000000e+00 0.0000000000000000e+00 0.0000000000000000e+00  0.0000000000000000e+00 0.0000000000000000e+00 0.0000000000000000e+00  0.0000000000000000e+00 0.0000000000000000e+00 0.0000000000000000e+00  0.0000000000000000e+00 0.0000000000000000e+00 0.0000000000000000e+00  0.0000000000000000e+00 0.0000000000000000e+00 0.0000000000000000e+00  0.0000000000000000e+00 0.0000000000000000e+00 0.0000000000000000e+00  0.0000000000000000e+00 0.0000000000000000e+00 0.0000000000000000e+00  0.0000000000000000e+00 0.0000000000000000e+00 0.0000000000000000e+00  0.0000000000000000e+00 0.0000000000000000e+00 0.0000000000000000e+00  0.0000000000000000e+00 0.0000000000000000e+00 0.0000000000000000e+00  0.0000000000000000e+00 0.0000000000000000e+00 0.0000000000000000e+00  0.0000000000000000e+00 0.0000000000000000e+00 0.0000000000000000e+00  0.0000000000000000e+00 0.0000000000000000e+00 0.0000000000000000e+00  0.0000000000000000e+00 0.0000000000000000e+00 0.0000000000000000e+00  0.0000000000000000e+00 0.0000000000000000e+00 0.0000000000000000e+00  0.0000000000000000e+00 0.0000000000000000e+00 0.0000000000000000e+00  -2.4040026974120139e-06 -2.7606810942042611e-07 0.0000000000000000e+00  -4.7637991326585654e-06 1.8803589411334450e-06 0.0000000000000000e+00  -6.5854970486424687e-06 5.1299467925500006e-06 0.0000000000000000e+00  -8.2130599616513710e-06 9.4736639986519389e-06 0.0000000000000000e+00  -9.4188652190713632e-06 1.4369190907745100e-05 0.0000000000000000e+00  -1.0475550902087472e-05 1.9829440013781432e-05 0.0000000000000000e+00  -1.1238063271869848e-05 2.5549677449173194e-05 0.0000000000000000e+00  -1.1794686929805116e-05 3.1489143579401450e-05 0.0000000000000000e+00  -1.2179854407600866e-05 3.7475651385714359e-05 0.0000000000000000e+00  -1.2384709063418961e-05 4.3347702315124314e-05 0.0000000000000000e+00  -1.2353301244218967e-05 4.9052108688818990e-05 0.0000000000000000e+00  -1.2269005773455013e-05 5.4392661911633899e-05 0.0000000000000000e+00  -1.1915408573532217e-05 5.9333235615605825e-05 0.0000000000000000e+00  -1.1585399333057661e-05 6.3834350604289266e-05 0.0000000000000000e+00  -1.1141391751889577e-05 6.7691971662391551e-05 0.0000000000000000e+00  -1.0460233166705231e-05 7.0986221539446931e-05 0.0000000000000000e+00  -9.9112077874548673e-06 7.3587565111938702e-05 0.0000000000000000e+00  -9.0668454397924801e-06 7.5484690553003341e-05 0.0000000000000000e+00  -8.4379083912865104e-06 7.6616576029133544e-05 0.0000000000000000e+00  -7.5436216822812994e-06 7.7030996515337451e-05 0.0000000000000000e+00  -6.8344798029869583e-06 7.6636797949112333e-05 0.0000000000000000e+00  -5.9390053339001123e-06 7.5450508662893562e-05 0.0000000000000000e+00  -5.2557458806675440e-06 7.3627691800583065e-05 0.0000000000000000e+00  -4.5766298790164316e-06 7.0951832482753731e-05 0.0000000000000000e+00  -3.7666957486390611e-06 6.7676825007586804e-05 0.0000000000000000e+00  -3.1291964559068013e-06 6.3655365908136838e-05 0.0000000000000000e+00  -2.4788962133535344e-06 5.8980354919989477e-05 0.0000000000000000e+00  -1.9471525064393213e-06 5.3716644685230125e-05 0.0000000000000000e+00  -1.4237227600354983e-06 4.7847116183645059e-05 0.0000000000000000e+00  -1.0231198695012247e-06 4.1477894877152817e-05 0.0000000000000000e+00  -6.4757658608057733e-07 3.4579030685963714e-05 0.0000000000000000e+00  -3.9526484734589359e-07 2.7269418309997439e-05 0.0000000000000000e+00  -1.8304983247862652e-07 1.9512324122825180e-05 0.0000000000000000e+00  -8.9338915615676459e-08 1.1433939446128595e-05 0.0000000000000000e+00  -5.0163950726115224e-08 2.9893072748972318e-06 0.0000000000000000e+00  -1.2640247554088668e-07 -5.6887975679610798e-06 0.0000000000000000e+00  -2.6483156789232236e-07 -1.4652606988758897e-05 0.0000000000000000e+00  -5.1232460493906291e-07 -2.3771433261227059e-05 0.0000000000000000e+00  -8.2900391186964081e-07 -3.3104207238903237e-05 0.0000000000000000e+00  -1.2514131857792880e-06 -4.2521200373370587e-05 0.0000000000000000e+00  -1.7531844648864589e-06 -5.2083545012225565e-05 0.0000000000000000e+00  -2.3454288840131474e-06 -6.1689280463666829e-05 0.0000000000000000e+00  -3.0282042536113059e-06 -7.1364690972157085e-05 0.0000000000000000e+00  -3.7565127898046818e-06 -8.1063911629328930e-05 0.0000000000000000e+00  -4.5895427169936148e-06 -9.0755869371590472e-05 0.0000000000000000e+00  -5.4610362259620739e-06 -1.0050909455864762e-04 0.0000000000000000e+00  -1.3238889609515869e-05 -1.0950020553930509e-04 0.0000000000000000e+00  -2.6375442659454699e-05 -1.0752701736863797e-04 0.0000000000000000e+00  -3.1738905957255077e-05 -9.6870510428087708e-05 0.0000000000000000e+00  -3.0811583522895537e-05 -8.6989430655414260e-05 0.0000000000000000e+00  -2.9911314938109749e-05 -7.7089554750360496e-05 0.0000000000000000e+00  -2.9058556625722235e-05 -6.7248702321963733e-05 0.0000000000000000e+00  -2.8236800422356283e-05 -5.7443867467619213e-05 0.0000000000000000e+00  -2.7454907647263445e-05 -4.7712213017443853e-05 0.0000000000000000e+00  -2.6663551233241360e-05 -3.8064867643156588e-05 0.0000000000000000e+00  -2.5926047692852999e-05 -2.8514963142455488e-05 0.0000000000000000e+00  -2.5146816903269303e-05 -1.9128589974943228e-05 0.0000000000000000e+00  -2.4426021488669012e-05 -9.8972879983189849e-06 0.0000000000000000e+00  -2.3626395484712078e-05 -8.9118423395977432e-07 0.0000000000000000e+00  -2.2895713935614766e-05 7.8810001801898199e-06 0.0000000000000000e+00  -2.2047495619727517e-05 1.6355691400429556e-05 0.0000000000000000e+00  -2.1285329384192448e-05 2.4509861616621284e-05 0.0000000000000000e+00  -2.0368881724338397e-05 3.2287035573977172e-05 0.0000000000000000e+00  -1.9561102238716260e-05 3.9654844923070843e-05 0.0000000000000000e+00  -1.8564133243526039e-05 4.6563749325772073e-05 0.0000000000000000e+00  -1.7699533683495807e-05 5.2973850160237073e-05 0.0000000000000000e+00  -1.6612203778570742e-05 5.8844318329074913e-05 0.0000000000000000e+00  -1.5683801797986565e-05 6.4132574183340551e-05 0.0000000000000000e+00  -1.4501057613067929e-05 6.8799823774698008e-05 0.0000000000000000e+00  -1.3502874175126481e-05 7.2803077253745123e-05 0.0000000000000000e+00  -1.2253383939907871e-05 7.6108185738748923e-05 0.0000000000000000e+00  -1.1158785241553539e-05 7.8758130309402246e-05 0.0000000000000000e+00  -1.0049135338123329e-05 8.0554930074345585e-05 0.0000000000000000e+00  -8.7489353417656843e-06 8.1738652218166352e-05 0.0000000000000000e+00  -7.5724410785027605e-06 8.2075356183179809e-05 0.0000000000000000e+00  -6.3055253008610309e-06 8.1667877534830218e-05 0.0000000000000000e+00  -5.1315234268450094e-06 8.0487189222758112e-05 0.0000000000000000e+00  -3.9101385654704091e-06 7.8557909006513480e-05 0.0000000000000000e+00  -2.7894678458558763e-06 7.5938359679450967e-05 0.0000000000000000e+00  -1.6078318070991685e-06 7.2565507475893509e-05 0.0000000000000000e+00  -6.2394503768189918e-07 6.8671300213636808e-05 0.0000000000000000e+00  2.8805042318061219e-07 6.4122408753863731e-05 0.0000000000000000e+00  1.2348445966575388e-06 5.9157576951350793e-05 0.0000000000000000e+00  2.0010694759757753e-06 5.3751408822119557e-05 0.0000000000000000e+00  2.6798442084000520e-06 4.7997230742787441e-05 0.0000000000000000e+00  3.2087511172694028e-06 4.2072042033974947e-05 0.0000000000000000e+00  3.5697646329219540e-06 3.6030621057934598e-05 0.0000000000000000e+00  3.8019746913300184e-06 3.0038925703442814e-05 0.0000000000000000e+00  3.8766149971414972e-06 2.4267663184631262e-05 0.0000000000000000e+00  3.6977259743545068e-06 1.8743392636436080e-05 0.0000000000000000e+00  3.3684381084351509e-06 1.3802926785910580e-05 0.0000000000000000e+00  2.7099234691959547e-06 9.5042524477388514e-06 0.0000000000000000e+00  2.0300378708491865e-06 6.0977506628143801e-06 0.0000000000000000e+00  1.0050806337954256e-06 3.5955842634251933e-06 0.0000000000000000e+00  -1.4583311249076702e-06 2.0142192385411920e-06 0.0000000000000000e+00  -1.8165702044996240e-05 -9.3765935163028755e-05 0.0000000000000000e+00  -1.6311448067358786e-05 -7.5043073992280435e-05 0.0000000000000000e+00  -1.4178143235649330e-05 -4.4695420612068027e-05 0.0000000000000000e+00  -2.1713219083068941e-06 8.8473337501556929e-06 0.0000000000000000e+00  -1.3172853151842784e-05 -2.6005100615743245e-05 0.0000000000000000e+00  -2.9562646037149856e-06 1.8522162283453562e-05 0.0000000000000000e+00  -1.2174395155906773e-05 -7.6043771200947893e-06 0.0000000000000000e+00  -4.2128436399787230e-06 3.7052885978293094e-05 0.0000000000000000e+00  -5.0170787995875949e-06 4.8720737557508972e-05 0.0000000000000000e+00  -1.1328397259275984e-05 9.9035170581458463e-06 0.0000000000000000e+00  -6.4719341471174235e-06 7.2468426464003568e-05 0.0000000000000000e+00  -9.9948086854229977e-06 4.0936868603462277e-05 0.0000000000000000e+00  -5.5562108701151754e-06 5.9224585609304485e-05 0.0000000000000000e+00  -7.0134491263042968e-06 7.7576258051949889e-05 0.0000000000000000e+00  -9.4605362242970659e-06 5.3777032496126412e-05 0.0000000000000000e+00  -1.0609618661565856e-05 2.6197592945747766e-05 0.0000000000000000e+00  -7.4727694347062626e-06 7.9929148178361860e-05 0.0000000000000000e+00  -8.9873682462793853e-06 6.4378979965340022e-05 0.0000000000000000e+00  -7.9101122247889987e-06 7.9326212763229499e-05 0.0000000000000000e+00  -8.4973721756332822e-06 7.2261035620446200e-05 0.0000000000000000e+00  -8.2107545741328690e-06 7.6720361827721428e-05 0.0000000000000000e+00  -6.0924136168659207e-06 6.6125699523594711e-05 0.0000000000000000e+00  -1.5475260561759113e-05 -6.0380637773845821e-05 0.0000000000000000e+00  -3.6702814163406781e-06 2.7199891511981942e-05 0.0000000000000000e+00  -2.1785045898704575e-05 -8.3666984986107117e-05 0.0000000000000000e+00  -3.2404734939844500e-07 5.8036934908127212e-06 0.0000000000000000e+00  -1.6194542324900368e-05 -1.6046822291178205e-05 0.0000000000000000e+00  -1.7401991061556299e-05 -3.4804238990837409e-05 0.0000000000000000e+00  -4.7781710741580836e-06 1.2852440574769108e-05 0.0000000000000000e+00  -6.8640869758518398e-06 4.2141369378994678e-05 0.0000000000000000e+00  -1.3110885722068458e-05 3.4477507936706539e-05 0.0000000000000000e+00  -1.5096720470572979e-05 1.9600362321413436e-06 0.0000000000000000e+00  -7.7481356133850822e-06 7.4508680055481870e-05 0.0000000000000000e+00  -1.2170738595259055e-05 4.8311363272154856e-05 0.0000000000000000e+00  -7.3711421706367815e-06 5.3632593339286697e-05 0.0000000000000000e+00  -7.6887226831232611e-06 7.8335927266995624e-05 0.0000000000000000e+00  -1.1236902940968411e-05 6.0073071209445735e-05 0.0000000000000000e+00  -1.4078235596246904e-05 1.8912971639312944e-05 0.0000000000000000e+00  -7.5375870699951994e-06 7.8977349908171271e-05 0.0000000000000000e+00  -1.0302964959117466e-05 6.9432335716443220e-05 0.0000000000000000e+00  -1.2052583829692839e-06 1.2436656383035386e-07 0.0000000000000000e+00  -6.4838813527367408e-07 9.6292026815042560e-07 0.0000000000000000e+00  -1.5941512292768498e-05 -1.0191450536001471e-04 0.0000000000000000e+00  -3.3282089267734755e-06 4.1020325138490061e-06 0.000