<?xml version="1.0"?>
<VTKFile type="UnstructuredGrid"  version="0.1"  >
<UnstructuredGrid>
<Piece  NumberOfPoints="1419" NumberOfCells="2698">
<Points>
<DataArray  type="Float64"  NumberOfComponents="3"  format="ascii">0 0 0  0 0.41 0  2.5 0 0  2.5 0.41 0  0.6 0.19 0  0.6 0.21 0  0.25 0.2 0  0.15 0.2 0  0.2489897948556636 0.21 0  0.2489897948556636 0.19 0  0.6 0.2 0  0 0.3807142857143437 0  0 0.3514285714286952 0  0 0.3221428571430699 0  0 0.29285714285744 0  0 0.2635714285718054 0  0 0.2342857142861561 0  0 0.2050000000005308 0  0 0.175714285714732 0  0 0.1464285714289574 0  0 0.1171428571431897 0  0 0.08785714285737878 0  0 0.05857142857161107 0  0 0.02928571428580012 0  0.03015443760436003 0 0  0.06140001986583606 0 0  0.09377624077125973 0 0  0.1273239957535082 0 0  0.1620856860351972 0 0  0.1981052433264291 0 0  0.235428184091502 0 0  0.2741016576309132 0 0  0.3141745521465447 0 0  0.3556974926295285 0 0  0.3987229542472677 0 0  0.4433053055141081 0 0  0.4895008759286886 0 0  0.5373680609405097 0 0  0.5869673343216626 0 0  0.6383613676634521 0 0  0.6916151138468254 0 0  0.7467958595648856 0 0  0.8039733463919316 0 0  0.8632198139502143 0 0  0.9246101326867038 0 0  0.9882218810934433 0 0  1.054135445558498 0 0  1.122434100542598 0 0  1.193204177141305 0 0  1.266535089879536 0 0  1.342519516046404 0 0  1.421253448503939 0 0  1.502836389106271 0 0  1.587371439758838 0 0  1.674965418777374 0 0  1.765729001825544 0 0  1.859776908880082 0 0  1.957227977487062 0 0  2.058205329869943 0 0  2.162836591189951 0 0  2.271253957290865 0 0  2.383594446803425 0 0  2.5 0.1024999999997612 0  2.5 0.2049999999994743 0  2.5 0.3074999999997183 0  2.383594446803656 0.41 0  2.271253957291315 0.41 0  2.162836591190598 0.41 0  2.058205329870775 0.41 0  1.957227977488067 0.41 0  1.859776908881246 0.41 0  1.765729001826854 0.41 0  1.674965418778818 0.41 0  1.58737143976041 0.41 0  1.502836389107956 0.41 0  1.421253448505726 0.41 0  1.342519516048286 0.41 0  1.266535089881505 0.41 0  1.193204177143353 0.41 0  1.122434100544716 0.41 0  1.05413544556068 0.41 0  0.9882218810956305 0.41 0  0.9246101326886647 0.41 0  0.8632198139519631 0.41 0  0.8039733463934788 0.41 0  0.7467958595662458 0.41 0  0.6916151138480078 0.41 0  0.6383613676644679 0.41 0  0.5869673343225223 0.41 0  0.5373680609412221 0.41 0  0.4895008759292634 0.41 0  0.4433053055145528 0.41 0  0.3987229542475914 0.41 0  0.3556974926297398 0.41 0  0.3141745521466497 0.41 0  0.2741016576310038 0.41 0  0.2354281840915826 0.41 0  0.1981052433265003 0.41 0  0.1620856860352591 0.41 0  0.1273239957535623 0.41 0  0.09377624077128965 0.41 0  0.06140001986584975 0.41 0  0.03015443760436654 0.41 0  0.2497468076502589 0.2050254481002335 0  0.2497468076502614 0.1949745518997913 0  0.2469965252529372 0.1829317073451959 0  0.2439893735792749 0.1762316384219906 0  0.2400332147834255 0.1700443375285386 0  0.2352133972704371 0.1645032867342007 0  0.2296339016332438 0.1597280261969788 0  0.2234150974217223 0.1558215752574715 0  0.2166911463437691 0.1528682099456123 0  0.2096071079204251 0.1509316448471593 0  0.2023158100364996 0.1500536585536553 0  0.194974551899914 0.1502531923497262 0  0.1877417105387872 0.1515259415822739 0  0.1807733240461124 0.153844448527136 0  0.1742197252835808 0.15715869474974 0  0.1682222986673531 0.1613971801805478 0  0.162910430003803 0.1664684656256651 0  0.1583987151779087 0.1722631454351573 0  0.1547844879126891 0.178656207771761 0  0.1521457199348551 0.1855097315605723 0  0.1505393388476355 0.1926758619366523 0  0.1505393388476328 0.2073241380633295 0  0.1521457199348437 0.2144902684393899 0  0.1547844879126531 0.221343792228163 0  0.1583987151778488 0.2277368545647528 0  0.1629104300036858 0.2335315343742052 0  0.1682222986671726 0.2386028198193036 0  0.1742197252833576 0.2428413052501257 0  0.1807733240458683 0.2461555514727623 0  0.1877417105384929 0.2484740584176516 0  0.1949745518995776 0.2497468076502398 0  0.202315810036185 0.2499463414463592 0  0.2096071079201568 0.2490683551528932 0  0.2166911463435495 0.2471317900544655 0  0.2234150974215506 0.2441784247426195 0  0.2296339016331197 0.2402719738031125 0  0.2352133972703547 0.2354967132658811 0  0.2400332147833751 0.2299556624715287 0  0.2439893735792577 0.2237683615780412 0  0.246996525252926 0.2170682926548348 0  0.25645809709277 0.21 0  0.2639263993298655 0.21 0  0.271394701566961 0.21 0  0.2788630038040554 0.21 0  0.2863313060411479 0.21 0  0.2937996082782405 0.21 0  0.301267910515333 0.21 0  0.3087362127524279 0.21 0  0.3162045149895234 0.21 0  0.3236728172265972 0.21 0  0.3311411194636928 0.21 0  0.3386094217007701 0.21 0  0.3460777239378666 0.21 0  0.3535460261749672 0.21 0  0.3610143284120516 0.21 0  0.3684826306491596 0.21 0  0.3759509328862226 0.21 0  0.383419235123329 0.21 0  0.3908875373604028 0.21 0  0.3983558395975142 0.21 0  0.4058241418345938 0.21 0  0.4132924440716992 0.21 0  0.4207607463087888 0.21 0  0.4282290485459029 0.21 0  0.4356973507830418 0.21 0  0.4431656530201649 0.21 0  0.4506339552573136 0.21 0  0.4581022574944306 0.21 0  0.4655705597315852 0.21 0  0.4730388619686996 0.21 0  0.480507164205851 0.21 0  0.4879754664429498 0.21 0  0.4954437686800938 0.21 0  0.502912070917267 0.21 0  0.5103803731544119 0.21 0  0.5178486753915261 0.21 0  0.5253169776286404 0.21 0  0.5327852798657868 0.21 0  0.5402535821029386 0.21 0  0.54772188434007 0.21 0  0.5551901865771842 0.21 0  0.5626584888143201 0.21 0  0.5701267910514778 0.21 0  0.5775950932886138 0.21 0  0.5850633955257281 0.21 0  0.5925316977628483 0.21 0  0.6 0.2050000000000054 0  0.6 0.1950000000000217 0  0.5925316977628897 0.19 0  0.5850633955257988 0.19 0  0.5775950932887378 0.19 0  0.5701267910515998 0.19 0  0.5626584888145268 0.19 0  0.5551901865773963 0.19 0  0.547721884340339 0.19 0  0.5402535821032429 0.19 0  0.5327852798661811 0.19 0  0.5253169776290537 0.19 0  0.5178486753919799 0.19 0  0.5103803731549078 0.19 0  0.502912070917822 0.19 0  0.4954437686807294 0.19 0  0.4879754664436223 0.19 0  0.4805071642065402 0.19 0  0.4730388619694271 0.19 0  0.4655705597323621 0.19 0  0.4581022574952563 0.19 0  0.4506339552581777 0.19 0  0.4431656530210671 0.19 0  0.4356973507839815 0.19 0  0.4282290485468779 0.19 0  0.4207607463097617 0.19 0  0.4132924440726327 0.19 0  0.4058241418354857 0.19 0  0.3983558395983636 0.19 0  0.3908875373612097 0.19 0  0.3834192351240934 0.19 0  0.3759509328869369 0.19 0  0.3684826306498175 0.19 0  0.361014328412667 0.19 0  0.3535460261755617 0.19 0  0.3460777239384295 0.19 0  0.3386094217012945 0.19 0  0.3311411194641595 0.19 0  0.3236728172270245 0.19 0  0.3162045149898895 0.19 0  0.3087362127527544 0.19 0  0.3012679105156187 0.19 0  0.2937996082784807 0.19 0  0.2863313060413428 0.19 0  0.2788630038042048 0.19 0  0.2713947015670686 0.19 0  0.2639263993299336 0.19 0  0.2564580970927985 0.19 0  0.2607803159922026 0.2000727136295815 0  0.5887803774232762 0.2001272386983733 0  0.5745072403740523 0.2002044435018727 0  0.5511891430099709 0.2001122610077113 0  0.2751288526855082 0.20000000000002 0  0.5365194309847112 0.1999999999999436 0  0.2894621222999649 0.1998691686390484 0  0.5215828265105155 0.1999999999999228 0  0.3127789816668748 0.1998657885438805 0  0.3274069683451451 0.2000000000000796 0  0.5066462220363641 0.199999999999908 0  0.3650630746574081 0.199866017807523 0  0.476773013087985 0.1999999999998713 0  0.3417402379596385 0.1998691686391011 0  0.3796850840047755 0.200000000000134 0  0.4618364086138087 0.1999999999998546 0  0.4917096175621762 0.1999999999998808 0  0.3946216884789568 0.2000000000001512 0  0.446899804139621 0.1999999999998389 0  0.4089549580935208 0.1998691686391595 0  0.4322718174608562 0.200127451265745 0  0.4201487168029707 0.1999966199048527 0  0.3528922713220932 0.2000185703532356 0  0.5633122436674589 0.1999814296467508 0  0.3006558810093873 0.1999966199048318 0  0.5815926498168407 0.1966545283159175 0  0.2677053789419034 0.1964246479135325 0  0.5290511287476175 0.1970915826863981 0  0.5439877332217911 0.197091582686394 0  0.2825131256993216 0.2035478995978015 0  0.3199386661080599 0.202908417313604 0  0.4842413153250809 0.1970915826863873 0  0.5141145242734466 0.1970915826863843 0  0.3722167817676917 0.2029084173136195 0  0.4693047108508938 0.1970915826863783 0  0.3348752705822316 0.202908417313609 0  0.3871533862418661 0.2029084173136212 0  0.4543681063767183 0.1970915826863795 0  0.4991779197992749 0.1970915826863902 0  0.4020059614928624 0.203547899597858 0  0.4394315019025246 0.1970915826863714 0  0.2550657455369551 0.2034088125358657 0  0.2548908499171161 0.1966940311614271 0  0.5946539510196798 0.2024302972968126 0  0.267698176732111 0.2039977513680092 0  0.4261685417851465 0.196409292431739 0  0.3590076176283495 0.196411355804271 0  0.5571672426447437 0.2036011176410121 0  0.3066757059912147 0.1964092924317024 0  0.594380730180568 0.1966558399668133 0  0.4842413153245942 0.2040749161535287 0  0.4693047108503577 0.2040749161535231 0  0.3871533862424271 0.1959250838464788 0  0.372246743208829 0.1959123236376545 0  0.5141145242731028 0.2040749161535395 0  0.4543681063761134 0.2040749161535186 0  0.4019979587101454 0.1959834479682427 0  0.4394608940728603 0.2040870543693135 0  0.5439623148931173 0.2040856076781014 0  0.5290511287473298 0.2040749161535501 0  0.4991779197988497 0.2040749161535382 0  0.3347912413592433 0.1959225448935183 0  0.3199680582793816 0.1959123018030061 0  0.2825051229162361 0.1959834479681729 0  0.3590471196690275 0.2036304442587945 0  0.5571594006495384 0.1963685282145804 0  0.3067669986803285 0.203627750582736 0  0.4262598344738712 0.2036568242185335 0  0.5814408164431408 0.2041285596160068 0  0.5688286748170428 0.1961819304477386 0  0.4145905603063645 0.2038180695522843 0  0.3473758401724931 0.2038180695522752 0  0.2950977245128307 0.2038180695522663 0  0.5688286748170693 0.203818069552238 0  0.2950977245127906 0.1961819304477774 0  0.3473758401723931 0.1961819304478349 0  0.4145905603061963 0.1961819304479011 0  0.2601812407614425 0.2056861609747042
[...]
<PointData  Vectors="f_40-1"> 
<DataArray  type="Float64"  Name="f_40-1"  NumberOfComponents="3" format="ascii">0.0000000000000000e+00 0.0000000000000000e+00 0.0000000000000000e+00  0.0000000000000000e+00 0.0000000000000000e+00 0.0000000000000000e+00  0.0000000000000000e+00 0.0000000000000000e+00 0.0000000000000000e+00  0.0000000000000000e+00 0.0000000000000000e+00 0.0000000000000000e+00  6.1674572931044640e-05 2.2092064407609109e-03 0.0000000000000000e+00  -9.2495210223584703e-05 2.2090163070042552e-03 0.0000000000000000e+00  0.0000000000000000e+00 0.0000000000000000e+00 0.0000000000000000e+00  0.0000000000000000e+00 0.0000000000000000e+00 0.0000000000000000e+00  0.0000000000000000e+00 0.0000000000000000e+00 0.0000000000000000e+00  0.0000000000000000e+00 0.0000000000000000e+00 0.0000000000000000e+00  -1.5481795368769246e-05 2.2091037893305484e-03 0.0000000000000000e+00  0.0000000000000000e+00 0.0000000000000000e+00 0.0000000000000000e+00  0.0000000000000000e+00 0.0000000000000000e+00 0.0000000000000000e+00  0.0000000000000000e+00 0.0000000000000000e+00 0.0000000000000000e+00  0.0000000000000000e+00 0.0000000000000000e+00 0.0000000000000000e+00  0.0000000000000000e+00 0.0000000000000000e+00 0.0000000000000000e+00  0.0000000000000000e+00 0.0000000000000000e+00 0.0000000000000000e+00  0.0000000000000000e+00 0.0000000000000000e+00 0.0000000000000000e+00  0.0000000000000000e+00 0.0000000000000000e+00 0.0000000000000000e+00  0.0000000000000000e+00 0.0000000000000000e+00 0.0000000000000000e+00  0.0000000000000000e+00 0.0000000000000000e+00 0.0000000000000000e+00  0.0000000000000000e+00 0.0000000000000000e+00 0.0000000000000000e+00  0.0000000000000000e+00 0.0000000000000000e+00 0.0000000000000000e+00  0.0000000000000000e+00 0.0000000000000000e+00 0.0000000000000000e+00  0.0000000000000000e+00 0.0000000000000000e+00 0.0000000000000000e+00  0.0000000000000000e+00 0.0000000000000000e+00 0.0000000000000000e+00  0.0000000000000000e+00 0.0000000000000000e+00 0.0000000000000000e+00  0.0000000000000000e+00 0.0000000000000000e+00 0.0000000000000000e+00  0.0000000000000000e+00 0.0000000000000000e+00 0.0000000000000000e+00  0.0000000000000000e+00 0.0000000000000000e+00 0.0000000000000000e+00  0.0000000000000000e+00 0.0000000000000000e+00 0.0000000000000000e+00  0.0000000000000000e+00 0.0000000000000000e+00 0.0000000000000000e+00  0.0000000000000000e+00 0.0000000000000000e+00 0.0000000000000000e+00  0.0000000000000000e+00 0.0000000000000000e+00 0.0000000000000000e+00  0.0000000000000000e+00 0.0000000000000000e+00 0.0000000000000000e+00  0.0000000000000000e+00 0.0000000000000000e+00 0.0000000000000000e+00  0.0000000000000000e+00 0.0000000000000000e+00 0.0000000000000000e+00  0.0000000000000000e+00 0.0000000000000000e+00 0.0000000000000000e+00  0.0000000000000000e+00 0.0000000000000000e+00 0.0000000000000000e+00  0.0000000000000000e+00 0.0000000000000000e+00 0.0000000000000000e+00  0.0000000000000000e+00 0.0000000000000000e+00 0.0000000000000000e+00  0.0000000000000000e+00 0.0000000000000000e+00 0.0000000000000000e+00  0.0000000000000000e+00 0.0000000000000000e+00 0.0000000000000000e+00  0.0000000000000000e+00 0.0000000000000000e+00 0.0000000000000000e+00  0.0000000000000000e+00 0.0000000000000000e+00 0.0000000000000000e+00  0.0000000000000000e+00 0.0000000000000000e+00 0.0000000000000000e+00  0.0000000000000000e+00 0.0000000000000000e+00 0.0000000000000000e+00  0.0000000000000000e+00 0.0000000000000000e+00 0.0000000000000000e+00  0.0000000000000000e+00 0.0000000000000000e+00 0.0000000000000000e+00  0.0000000000000000e+00 0.0000000000000000e+00 0.0000000000000000e+00  0.0000000000000000e+00 0.0000000000000000e+00 0.0000000000000000e+00  0.0000000000000000e+00 0.0000000000000000e+00 0.0000000000000000e+00  0.0000000000000000e+00 0.0000000000000000e+00 0.0000000000000000e+00  0.0000000000000000e+00 0.0000000000000000e+00 0.0000000000000000e+00  0.0000000000000000e+00 0.0000000000000000e+00 0.0000000000000000e+00  0.0000000000000000e+00 0.0000000000000000e+00 0.0000000000000000e+00  0.0000000000000000e+00 0.0000000000000000e+00 0.0000000000000000e+00  0.0000000000000000e+00 0.0000000000000000e+00 0.0000000000000000e+00  0.0000000000000000e+00 0.0000000000000000e+00 0.0000000000000000e+00  0.0000000000000000e+00 0.0000000000000000e+00 0.0000000000000000e+00  0.0000000000000000e+00 0.0000000000000000e+00 0.0000000000000000e+00  0.0000000000000000e+00 0.0000000000000000e+00 0.0000000000000000e+00  0.0000000000000000e+00 0.0000000000000000e+00 0.0000000000000000e+00  0.0000000000000000e+00 0.0000000000000000e+00 0.0000000000000000e+00  0.0000000000000000e+00 0.0000000000000000e+00 0.0000000000000000e+00  0.0000000000000000e+00 0.0000000000000000e+00 0.0000000000000000e+00  0.0000000000000000e+00 0.0000000000000000e+00 0.0000000000000000e+00  0.0000000000000000e+00 0.0000000000000000e+00 0.0000000000000000e+00  0.0000000000000000e+00 0.0000000000000000e+00 0.0000000000000000e+00  0.0000000000000000e+00 0.0000000000000000e+00 0.0000000000000000e+00  0.0000000000000000e+00 0.0000000000000000e+00 0.0000000000000000e+00  0.0000000000000000e+00 0.0000000000000000e+00 0.0000000000000000e+00  0.0000000000000000e+00 0.0000000000000000e+00 0.0000000000000000e+00  0.0000000000000000e+00 0.0000000000000000e+00 0.0000000000000000e+00  0.0000000000000000e+00 0.0000000000000000e+00 0.0000000000000000e+00  0.0000000000000000e+00 0.0000000000000000e+00 0.0000000000000000e+00  0.0000000000000000e+00 0.0000000000000000e+00 0.0000000000000000e+00  0.0000000000000000e+00 0.0000000000000000e+00 0.0000000000000000e+00  0.0000000000000000e+00 0.0000000000000000e+00 0.0000000000000000e+00  0.0000000000000000e+00 0.0000000000000000e+00 0.0000000000000000e+00  0.0000000000000000e+00 0.0000000000000000e+00 0.0000000000000000e+00  0.0000000000000000e+00 0.0000000000000000e+00 0.0000000000000000e+00  0.0000000000000000e+00 0.0000000000000000e+00 0.0000000000000000e+00  0.0000000000000000e+00 0.0000000000000000e+00 0.0000000000000000e+00  0.0000000000000000e+00 0.0000000000000000e+00 0.0000000000000000e+00  0.0000000000000000e+00 0.0000000000000000e+00 0.0000000000000000e+00  0.0000000000000000e+00 0.0000000000000000e+00 0.0000000000000000e+00  0.0000000000000000e+00 0.0000000000000000e+00 0.0000000000000000e+00  0.0000000000000000e+00 0.0000000000000000e+00 0.0000000000000000e+00  0.0000000000000000e+00 0.0000000000000000e+00 0.0000000000000000e+00  0.0000000000000000e+00 0.0000000000000000e+00 0.0000000000000000e+00  0.0000000000000000e+00 0.0000000000000000e+00 0.0000000000000000e+00  0.0000000000000000e+00 0.0000000000000000e+00 0.0000000000000000e+00  0.0000000000000000e+00 0.0000000000000000e+00 0.0000000000000000e+00  0.0000000000000000e+00 0.0000000000000000e+00 0.0000000000000000e+00  0.0000000000000000e+00 0.0000000000000000e+00 0.0000000000000000e+00  0.0000000000000000e+00 0.0000000000000000e+00 0.0000000000000000e+00  0.0000000000000000e+00 0.0000000000000000e+00 0.0000000000000000e+00  0.0000000000000000e+00 0.0000000000000000e+00 0.0000000000000000e+00  0.0000000000000000e+00 0.0000000000000000e+00 0.0000000000000000e+00  0.0000000000000000e+00 0.0000000000000000e+00 0.0000000000000000e+00  0.0000000000000000e+00 0.0000000000000000e+00 0.0000000000000000e+00  0.0000000000000000e+00 0.0000000000000000e+00 0.0000000000000000e+00  0.0000000000000000e+00 0.0000000000000000e+00 0.0000000000000000e+00  0.0000000000000000e+00 0.0000000000000000e+00 0.0000000000000000e+00  0.0000000000000000e+00 0.0000000000000000e+00 0.0000000000000000e+00  0.0000000000000000e+00 0.0000000000000000e+00 0.0000000000000000e+00  0.0000000000000000e+00 0.0000000000000000e+00 0.0000000000000000e+00  0.0000000000000000e+00 0.0000000000000000e+00 0.0000000000000000e+00  0.0000000000000000e+00 0.0000000000000000e+00 0.0000000000000000e+00  0.0000000000000000e+00 0.0000000000000000e+00 0.0000000000000000e+00  0.0000000000000000e+00 0.0000000000000000e+00 0.0000000000000000e+00  0.0000000000000000e+00 0.0000000000000000e+00 0.0000000000000000e+00  0.0000000000000000e+00 0.0000000000000000e+00 0.0000000000000000e+00  0.0000000000000000e+00 0.0000000000000000e+00 0.0000000000000000e+00  0.0000000000000000e+00 0.0000000000000000e+00 0.0000000000000000e+00  0.0000000000000000e+00 0.0000000000000000e+00 0.0000000000000000e+00  0.0000000000000000e+00 0.0000000000000000e+00 0.0000000000000000e+00  0.0000000000000000e+00 0.0000000000000000e+00 0.0000000000000000e+00  0.0000000000000000e+00 0.0000000000000000e+00 0.0000000000000000e+00  0.0000000000000000e+00 0.0000000000000000e+00 0.0000000000000000e+00  0.0000000000000000e+00 0.0000000000000000e+00 0.0000000000000000e+00  0.0000000000000000e+00 0.0000000000000000e+00 0.0000000000000000e+00  0.0000000000000000e+00 0.0000000000000000e+00 0.0000000000000000e+00  0.0000000000000000e+00 0.0000000000000000e+00 0.0000000000000000e+00  0.0000000000000000e+00 0.0000000000000000e+00 0.0000000000000000e+00  0.0000000000000000e+00 0.0000000000000000e+00 0.0000000000000000e+00  0.0000000000000000e+00 0.0000000000000000e+00 0.0000000000000000e+00  0.0000000000000000e+00 0.0000000000000000e+00 0.0000000000000000e+00  0.0000000000000000e+00 0.0000000000000000e+00 0.0000000000000000e+00  0.0000000000000000e+00 0.0000000000000000e+00 0.0000000000000000e+00  0.0000000000000000e+00 0.0000000000000000e+00 0.0000000000000000e+00  0.0000000000000000e+00 0.0000000000000000e+00 0.0000000000000000e+00  0.0000000000000000e+00 0.0000000000000000e+00 0.0000000000000000e+00  0.0000000000000000e+00 0.0000000000000000e+00 0.0000000000000000e+00  0.0000000000000000e+00 0.0000000000000000e+00 0.0000000000000000e+00  0.0000000000000000e+00 0.0000000000000000e+00 0.0000000000000000e+00  0.0000000000000000e+00 0.0000000000000000e+00 0.0000000000000000e+00  0.0000000000000000e+00 0.0000000000000000e+00 0.0000000000000000e+00  0.0000000000000000e+00 0.0000000000000000e+00 0.0000000000000000e+00  0.0000000000000000e+00 0.0000000000000000e+00 0.0000000000000000e+00  0.0000000000000000e+00 0.0000000000000000e+00 0.0000000000000000e+00  0.0000000000000000e+00 0.0000000000000000e+00 0.0000000000000000e+00  -6.2695274801648873e-06 6.1634877330217796e-06 0.0000000000000000e+00  -1.3259273599750770e-05 1.3354693812588442e-05 0.0000000000000000e+00  -1.9396893513222597e-05 2.4806080238115369e-05 0.0000000000000000e+00  -2.5898869699756929e-05 4.0779029761204416e-05 0.0000000000000000e+00  -3.1278236749753876e-05 6.0408204856375483e-05 0.0000000000000000e+00  -3.7178375722977797e-05 8.4027895927326468e-05 0.0000000000000000e+00  -4.1883690847324333e-05 1.1050772011202572e-04 0.0000000000000000e+00  -4.6327436018905353e-05 1.4067507830160919e-04 0.0000000000000000e+00  -5.1255607779695519e-05 1.7356426675716231e-04 0.0000000000000000e+00  -5.4956633472013310e-05 2.0919073102738285e-04 0.0000000000000000e+00  -5.9264929778914261e-05 2.4747047382006111e-04 0.0000000000000000e+00  -6.2451146045751707e-05 2.8804948046163084e-04 0.0000000000000000e+00  -6.6014824467192781e-05 3.3081451150067712e-04 0.0000000000000000e+00  -6.8791375719185147e-05 3.7526824818342357e-04 0.0000000000000000e+00  -7.1357940048064227e-05 4.2172362843107886e-04 0.0000000000000000e+00  -7.4109124765922262e-05 4.6962161920489437e-04 0.0000000000000000e+00  -7.6142940417288100e-05 5.1890683178205878e-04 0.0000000000000000e+00  -7.8397164007696355e-05 5.6951586103471915e-04 0.0000000000000000e+00  -8.0039748078557688e-05 6.2117295827868516e-04 0.0000000000000000e+00  -8.1816652823180284e-05 6.7381535122712228e-04 0.0000000000000000e+00  -8.3179548213401633e-05 7.2728353210491819e-04 0.0000000000000000e+00  -8.4547086242530657e-05 7.8153141871650333e-04 0.0000000000000000e+00  -8.5618421934942395e-05 8.3629495215438562e-04 0.0000000000000000e+00  -8.6565469534392834e-05 8.9168281785313654e-04 0.0000000000000000e+00  -8.7516250398561512e-05 9.4746816024335562e-04 0.0000000000000000e+00  -8.8259964943175422e-05 1.0036620883656434e-03 0.0000000000000000e+00  -8.8937928600355470e-05 1.0602113659708839e-03 0.0000000000000000e+00  -8.9497730328821142e-05 1.1169875380631557e-03 0.0000000000000000e+00  -8.9995620059619042e-05 1.1740202845142620e-03 0.0000000000000000e+00  -9.0404171310062175e-05 1.2311957567717638e-03 0.0000000000000000e+00  -9.0758912240455864e-05 1.2885344493479035e-03 0.0000000000000000e+00  -9.1045546097823734e-05 1.3459449523081733e-03 0.0000000000000000e+00  -9.1288756568608419e-05 1.4034463878619453e-03 0.0000000000000000e+00  -9.1480933477925720e-05 1.4609686611876730e-03 0.0000000000000000e+00  -9.1637221912002951e-05 1.5185334319422863e-03 0.0000000000000000e+00  -9.1763515857581866e-05 1.5760930539041721e-03 0.0000000000000000e+00  -9.1866425027619698e-05 1.6336617298197559e-03 0.0000000000000000e+00  -9.1952800240202394e-05 1.6912153785981873e-03 0.0000000000000000e+00  -9.2024673032975473e-05 1.7487634863740452e-03 0.0000000000000000e+00  -9.2090724598122735e-05 1.8062985984007211e-03 0.0000000000000000e+00  -9.2151388898377659e-05 1.8638240894310312e-03 0.0000000000000000e+00  -9.2213409841603410e-05 1.9213442611971609e-03 0.0000000000000000e+00  -9.2272123198760736e-05 1.9788654531440420e-03 0.0000000000000000e+00  -9.2333541160829241e-05 2.0363899075340097e-03 0.0000000000000000e+00  -9.2396998973153766e-05 2.0939270632717227e-03 0.0000000000000000e+00  -9.2455092282917197e-05 2.1514729927588684e-03 0.0000000000000000e+00  -5.4005500269668744e-05 2.2090596431886969e-03 0.0000000000000000e+00  2.3070422799966883e-05 2.2091501174530187e-03 0.0000000000000000e+00  6.1693861468799786e-05 2.1516051380012710e-03 0.0000000000000000e+00  6.1736000269020883e-05 2.0940416328177401e-03 0.0000000000000000e+00  6.1786003805746579e-05 2.0364929446526725e-03 0.0000000000000000e+00  6.1838784974681027e-05 1.9789489427002502e-03 0.0000000000000000e+00  6.1897386024886421e-05 1.9214060934549851e-03 0.0000000000000000e+00  6.1968221768567472e-05 1.8638595473067091e-03 0.0000000000000000e+00  6.2046924315169240e-05 1.8063050865313221e-03 0.0000000000000000e+00  6.2133904655635677e-05 1.7487408474854264e-03 0.0000000000000000e+00  6.2228542651632981e-05 1.6911619774898964e-03 0.0000000000000000e+00  6.2327751316245235e-05 1.6335684757238309e-03 0.0000000000000000e+00  6.2428155034325946e-05 1.5759645026706323e-03 0.0000000000000000e+00  6.2532386829896312e-05 1.5183562683657962e-03 0.0000000000000000e+00  6.2624013139445616e-05 1.4607535365574608e-03 0.0000000000000000e+00  6.2718107280225249e-05 1.4031743643007802e-03 0.0000000000000000e+00  6.2775624962516262e-05 1.3456322892711555e-03 0.0000000000000000e+00  6.2839969887203996e-05 1.2881606920856707e-03 0.0000000000000000e+00  6.2836898180858579e-05 1.2307781696488460e-03 0.0000000000000000e+00  6.2851433925299865e-05 1.1735329330652656e-03 0.0000000000000000e+00  6.2760637751722352e-05 1.1164506841309968e-03 0.0000000000000000e+00  6.2704534145292668e-05 1.0595936826685527e-03 0.0000000000000000e+00  6.2491017654054971e-05 1.0029926700351295e-03 0.0000000000000000e+00  6.2334461312485908e-05 9.4672706789101667e-04 0.0000000000000000e+00  6.1969177638411240e-05 8.9084574429151983e-04 0.0000000000000000e+00  6.1647631909376687e-05 8.3538249318716663e-04 0.0000000000000000e+00  6.1253978434553638e-05 7.8054513126698524e-04 0.0000000000000000e+00  6.0611207756363694e-05 7.2619530280460280e-04 0.0000000000000000e+00  5.9962835553942340e-05 6.7266392638700031e-04 0.0000000000000000e+00  5.9074459683938501e-05 6.1990083010747977e-04 0.0000000000000000e+00  5.8139082395793252e-05 5.6816631526807732e-04 0.0000000000000000e+00  5.6924246529183358e-05 5.1746724745402718e-04 0.0000000000000000e+00  5.5655261227027397e-05 4.6802229736673059e-04 0.0000000000000000e+00  5.3883627992700714e-05 4.2012426846568427e-04 0.0000000000000000e+00  5.2301740243745857e-05 3.7354538053604091e-04 0.0000000000000000e+00  5.0544065744246265e-05 3.2902434876860251e-04 0.0000000000000000e+00  4.8132925132633673e-05 2.8601616026709402e-04 0.0000000000000000e+00  4.5779112029712509e-05 2.4540993433262140e-04 0.0000000000000000e+00  4.2937709642961540e-05 2.0701127885665728e-04 0.0000000000000000e+00  4.0103298609029273e-05 1.7116152300754555e-04 0.0000000000000000e+00  3.6431206935931096e-05 1.3833374336328573e-04 0.0000000000000000e+00  3.3210646199298859e-05 1.0801369893668393e-04 0.0000000000000000e+00  2.9781120969897756e-05 8.1441467815385993e-05 0.0000000000000000e+00  2.5264024637643140e-05 5.7616767262986657e-05 0.0000000000000000e+00  2.1069414512501215e-05 3.7812075797664826e-05 0.0000000000000000e+00  1.5866467385294225e-05 2.1964397257001459e-05 0.0000000000000000e+00  1.1134036985254759e-05 1.0432541741401955e-05 0.0000000000000000e+00  5.2907331839214810e-06 3.3527087645332950e-06 0.0000000000000000e+00  -6.0418842713310882e-07 5.1500502515766508e-06 0.0000000000000000e+00  -1.6368032161889003e-05 2.1226251960394875e-03 0.0000000000000000e+00  -1.6846430334547223e-05 2.0126498653488655e-03 0.0000000000000000e+00  -1.5936544589486379e-05 1.8330200206355784e-03 0.0000000000000000e+00  -2.0081476158535999e-06 2.8145811210202031e-05 0.0000000000000000e+00  -1.4918906836592440e-05 1.7199755898905603e-03 0.0000000000000000e+00  -2.9152408211569825e-06 6.6048978816201785e-05 0.0000000000000000e+00  -1.4731200958801368e-05 1.6048201862140113e-03 0.0000000000000000e+00  -4.6449731148930464e-06 1.5501367771725259e-04 0.0000000000000000e+00  -6.3635341239441007e-06 2.2538507144279082e-04 0.0000000000000000e+00  -1.4499953608800545e-05 1.4896342014168932e-03 0.0000000000000000e+00  -8.1167009152773649e-06 4.4569479625446780e-04 0.0000000000000000e+00  -1.3875137996558842e-05 1.2595698064621836e-03 0.0000000000000000e+00  -6.6764819795177560e-06 3.0334477940658467e-04 0.0000000000000000e+00  -9.8655773258168166e-06 5.4259098954203145e-04 0.0000000000000000e+00  -1.3470974266722814e-05 1.1450886585076729e-03 0.0000000000000000e+00  -1.4216505931629423e-05 1.3744983063207158e-03 0.0000000000000000e+00  -1.0704403854582035e-05 6.4616413020999542e-04 0.0000000000000000e+00  -1.2994614752190456e-05 1.0313770499508186e-03 0.0000000000000000e+00  -1.0489309358815167e-05 7.4892612602299165e-04 0.0000000000000000e+00  -1.3408619698286229e-05 9.2114987035746233e-04 0.0000000000000000e+00  -1.1921826955155733e-05 8.3104597318716159e-04 0.0000000000000000e+00  -8.2866840262268363e-06 3.6957590784516712e-04 0.0000000000000000e+00  -1.5038758186562762e-05 1.9264118846995723e-03 0.0000000000000000e+00  -4.2137558860943515e-06 1.0538802775159971e-04 0.0000000000000000e+00  1.0455454739871642e-05 2.0672564416388192e-03 0.0000000000000000e+00  4.0692856797067698e-06 1.4224811410996723e-05 0.0000000000000000e+00  7.5933434056677682e-06 1.6623939218881618e-03 0.0000000000000000e+00  7.4183597853938891e-06 1.7775310557282176e-03 0.0000000000000000e+00  -1.1748036454363298e-05 4.6872688255930690e-05 0.0000000000000000e+00  -1.9576076096360851e-05 1.8875788820669939e-04 0.0000000000000000e+00  8.2967801173280428e-06 1.3169547047273821e-03 0.0000000000000000e+00  7.7996630886159462e-06 1.5472072093333854e-03 0.0000000000000000e+00  -2.8531369887107473e-05 4.9281135472980023e-04 0.0000000000000000e+00  8.5704418863871693e-06 1.2022046923858571e-03 0.0000000000000000e+00  -2.2524307624224616e-05 2.6549132695256162e-04 0.0000000000000000e+00  -3.0312951967969860e-05 5.9415760413835338e-04 0.0000000000000000e+00  8.8490488834633726e-06 1.0880534226044645e-03 0.0000000000000000e+00  8.0366021801827043e-06 1.4320215023109247e-03 0.0000000000000000e+00  -3.6381511895657220e-05 6.9904581723930458e-04 0.0000000000000000e+00  9.1270595206768487e-06 9.7486045697240818e-04 0.0000000000000000e+00  -1.1112775946897742e-06 1.4891066251587311e-06 0.0000000000000000e+00  8.0360889549885020e-07 7.4044962110295097e-07 0.0000000000000000e+00  -3.4166242921660006e-05 2.1678806359740721e-03 0.0000000000000000e+00  -7.2857392008299511e-06 1.5401454004806298e-05 0.0000000000000000e+00  1.4418789739014965e-05 8.7549489656078676e-04 0.0000000000000000e