<?xml version="1.0"?>
<VTKFile type="UnstructuredGrid"  version="0.1"  >
<UnstructuredGrid>
<Piece  NumberOfPoints="1419" NumberOfCells="2698">
<Points>
<DataArray  type="Float64"  NumberOfComponents="3"  format="ascii">0 0 0  0 0.41 0  2.5 0 0  2.5 0.41 0  0.6 0.19 0  0.6 0.21 0  0.25 0.2 0  0.15 0.2 0  0.2489897948556636 0.21 0  0.2489897948556636 0.19 0  0.6 0.2 0  0 0.3807142857143437 0  0 0.3514285714286952 0  0 0.3221428571430699 0  0 0.29285714285744 0  0 0.2635714285718054 0  0 0.2342857142861561 0  0 0.2050000000005308 0  0 0.175714285714732 0  0 0.1464285714289574 0  0 0.1171428571431897 0  0 0.08785714285737878 0  0 0.05857142857161107 0  0 0.02928571428580012 0  0.03015443760436003 0 0  0.06140001986583606 0 0  0.09377624077125973 0 0  0.1273239957535082 0 0  0.1620856860351972 0 0  0.1981052433264291 0 0  0.235428184091502 0 0  0.2741016576309132 0 0  0.3141745521465447 0 0  0.3556974926295285 0 0  0.3987229542472677 0 0  0.4433053055141081 0 0  0.4895008759286886 0 0  0.5373680609405097 0 0  0.5869673343216626 0 0  0.6383613676634521 0 0  0.6916151138468254 0 0  0.7467958595648856 0 0  0.8039733463919316 0 0  0.8632198139502143 0 0  0.9246101326867038 0 0  0.9882218810934433 0 0  1.054135445558498 0 0  1.122434100542598 0 0  1.193204177141305 0 0  1.266535089879536 0 0  1.342519516046404 0 0  1.421253448503939 0 0  1.502836389106271 0 0  1.587371439758838 0 0  1.674965418777374 0 0  1.765729001825544 0 0  1.859776908880082 0 0  1.957227977487062 0 0  2.058205329869943 0 0  2.162836591189951 0 0  2.271253957290865 0 0  2.383594446803425 0 0  2.5 0.1024999999997612 0  2.5 0.2049999999994743 0  2.5 0.3074999999997183 0  2.383594446803656 0.41 0  2.271253957291315 0.41 0  2.162836591190598 0.41 0  2.058205329870775 0.41 0  1.957227977488067 0.41 0  1.859776908881246 0.41 0  1.765729001826854 0.41 0  1.674965418778818 0.41 0  1.58737143976041 0.41 0  1.502836389107956 0.41 0  1.421253448505726 0.41 0  1.342519516048286 0.41 0  1.266535089881505 0.41 0  1.193204177143353 0.41 0  1.122434100544716 0.41 0  1.05413544556068 0.41 0  0.9882218810956305 0.41 0  0.9246101326886647 0.41 0  0.8632198139519631 0.41 0  0.8039733463934788 0.41 0  0.7467958595662458 0.41 0  0.6916151138480078 0.41 0  0.6383613676644679 0.41 0  0.5869673343225223 0.41 0  0.5373680609412221 0.41 0  0.4895008759292634 0.41 0  0.4433053055145528 0.41 0  0.3987229542475914 0.41 0  0.3556974926297398 0.41 0  0.3141745521466497 0.41 0  0.2741016576310038 0.41 0  0.2354281840915826 0.41 0  0.1981052433265003 0.41 0  0.1620856860352591 0.41 0  0.1273239957535623 0.41 0  0.09377624077128965 0.41 0  0.06140001986584975 0.41 0  0.03015443760436654 0.41 0  0.2497468076502589 0.2050254481002335 0  0.2497468076502614 0.1949745518997913 0  0.2469965252529372 0.1829317073451959 0  0.2439893735792749 0.1762316384219906 0  0.2400332147834255 0.1700443375285386 0  0.2352133972704371 0.1645032867342007 0  0.2296339016332438 0.1597280261969788 0  0.2234150974217223 0.1558215752574715 0  0.2166911463437691 0.1528682099456123 0  0.2096071079204251 0.1509316448471593 0  0.2023158100364996 0.1500536585536553 0  0.194974551899914 0.1502531923497262 0  0.1877417105387872 0.1515259415822739 0  0.1807733240461124 0.153844448527136 0  0.1742197252835808 0.15715869474974 0  0.1682222986673531 0.1613971801805478 0  0.162910430003803 0.1664684656256651 0  0.1583987151779087 0.1722631454351573 0  0.1547844879126891 0.178656207771761 0  0.1521457199348551 0.1855097315605723 0  0.1505393388476355 0.1926758619366523 0  0.1505393388476328 0.2073241380633295 0  0.1521457199348437 0.2144902684393899 0  0.1547844879126531 0.221343792228163 0  0.1583987151778488 0.2277368545647528 0  0.1629104300036858 0.2335315343742052 0  0.1682222986671726 0.2386028198193036 0  0.1742197252833576 0.2428413052501257 0  0.1807733240458683 0.2461555514727623 0  0.1877417105384929 0.2484740584176516 0  0.1949745518995776 0.2497468076502398 0  0.202315810036185 0.2499463414463592 0  0.2096071079201568 0.2490683551528932 0  0.2166911463435495 0.2471317900544655 0  0.2234150974215506 0.2441784247426195 0  0.2296339016331197 0.2402719738031125 0  0.2352133972703547 0.2354967132658811 0  0.2400332147833751 0.2299556624715287 0  0.2439893735792577 0.2237683615780412 0  0.246996525252926 0.2170682926548348 0  0.25645809709277 0.21 0  0.2639263993298655 0.21 0  0.271394701566961 0.21 0  0.2788630038040554 0.21 0  0.2863313060411479 0.21 0  0.2937996082782405 0.21 0  0.301267910515333 0.21 0  0.3087362127524279 0.21 0  0.3162045149895234 0.21 0  0.3236728172265972 0.21 0  0.3311411194636928 0.21 0  0.3386094217007701 0.21 0  0.3460777239378666 0.21 0  0.3535460261749672 0.21 0  0.3610143284120516 0.21 0  0.3684826306491596 0.21 0  0.3759509328862226 0.21 0  0.383419235123329 0.21 0  0.3908875373604028 0.21 0  0.3983558395975142 0.21 0  0.4058241418345938 0.21 0  0.4132924440716992 0.21 0  0.4207607463087888 0.21 0  0.4282290485459029 0.21 0  0.4356973507830418 0.21 0  0.4431656530201649 0.21 0  0.4506339552573136 0.21 0  0.4581022574944306 0.21 0  0.4655705597315852 0.21 0  0.4730388619686996 0.21 0  0.480507164205851 0.21 0  0.4879754664429498 0.21 0  0.4954437686800938 0.21 0  0.502912070917267 0.21 0  0.5103803731544119 0.21 0  0.5178486753915261 0.21 0  0.5253169776286404 0.21 0  0.5327852798657868 0.21 0  0.5402535821029386 0.21 0  0.54772188434007 0.21 0  0.5551901865771842 0.21 0  0.5626584888143201 0.21 0  0.5701267910514778 0.21 0  0.5775950932886138 0.21 0  0.5850633955257281 0.21 0  0.5925316977628483 0.21 0  0.6 0.2050000000000054 0  0.6 0.1950000000000217 0  0.5925316977628897 0.19 0  0.5850633955257988 0.19 0  0.5775950932887378 0.19 0  0.5701267910515998 0.19 0  0.5626584888145268 0.19 0  0.5551901865773963 0.19 0  0.547721884340339 0.19 0  0.5402535821032429 0.19 0  0.5327852798661811 0.19 0  0.5253169776290537 0.19 0  0.5178486753919799 0.19 0  0.5103803731549078 0.19 0  0.502912070917822 0.19 0  0.4954437686807294 0.19 0  0.4879754664436223 0.19 0  0.4805071642065402 0.19 0  0.4730388619694271 0.19 0  0.4655705597323621 0.19 0  0.4581022574952563 0.19 0  0.4506339552581777 0.19 0  0.4431656530210671 0.19 0  0.4356973507839815 0.19 0  0.4282290485468779 0.19 0  0.4207607463097617 0.19 0  0.4132924440726327 0.19 0  0.4058241418354857 0.19 0  0.3983558395983636 0.19 0  0.3908875373612097 0.19 0  0.3834192351240934 0.19 0  0.3759509328869369 0.19 0  0.3684826306498175 0.19 0  0.361014328412667 0.19 0  0.3535460261755617 0.19 0  0.3460777239384295 0.19 0  0.3386094217012945 0.19 0  0.3311411194641595 0.19 0  0.3236728172270245 0.19 0  0.3162045149898895 0.19 0  0.3087362127527544 0.19 0  0.3012679105156187 0.19 0  0.2937996082784807 0.19 0  0.2863313060413428 0.19 0  0.2788630038042048 0.19 0  0.2713947015670686 0.19 0  0.2639263993299336 0.19 0  0.2564580970927985 0.19 0  0.2607803159922026 0.2000727136295815 0  0.5887803774232762 0.2001272386983733 0  0.5745072403740523 0.2002044435018727 0  0.5511891430099709 0.2001122610077113 0  0.2751288526855082 0.20000000000002 0  0.5365194309847112 0.1999999999999436 0  0.2894621222999649 0.1998691686390484 0  0.5215828265105155 0.1999999999999228 0  0.3127789816668748 0.1998657885438805 0  0.3274069683451451 0.2000000000000796 0  0.5066462220363641 0.199999999999908 0  0.3650630746574081 0.199866017807523 0  0.476773013087985 0.1999999999998713 0  0.3417402379596385 0.1998691686391011 0  0.3796850840047755 0.200000000000134 0  0.4618364086138087 0.1999999999998546 0  0.4917096175621762 0.1999999999998808 0  0.3946216884789568 0.2000000000001512 0  0.446899804139621 0.1999999999998389 0  0.4089549580935208 0.1998691686391595 0  0.4322718174608562 0.200127451265745 0  0.4201487168029707 0.1999966199048527 0  0.3528922713220932 0.2000185703532356 0  0.5633122436674589 0.1999814296467508 0  0.3006558810093873 0.1999966199048318 0  0.5815926498168407 0.1966545283159175 0  0.2677053789419034 0.1964246479135325 0  0.5290511287476175 0.1970915826863981 0  0.5439877332217911 0.197091582686394 0  0.2825131256993216 0.2035478995978015 0  0.3199386661080599 0.202908417313604 0  0.4842413153250809 0.1970915826863873 0  0.5141145242734466 0.1970915826863843 0  0.3722167817676917 0.2029084173136195 0  0.4693047108508938 0.1970915826863783 0  0.3348752705822316 0.202908417313609 0  0.3871533862418661 0.2029084173136212 0  0.4543681063767183 0.1970915826863795 0  0.4991779197992749 0.1970915826863902 0  0.4020059614928624 0.203547899597858 0  0.4394315019025246 0.1970915826863714 0  0.2550657455369551 0.2034088125358657 0  0.2548908499171161 0.1966940311614271 0  0.5946539510196798 0.2024302972968126 0  0.267698176732111 0.2039977513680092 0  0.4261685417851465 0.196409292431739 0  0.3590076176283495 0.196411355804271 0  0.5571672426447437 0.2036011176410121 0  0.3066757059912147 0.1964092924317024 0  0.594380730180568 0.1966558399668133 0  0.4842413153245942 0.2040749161535287 0  0.4693047108503577 0.2040749161535231 0  0.3871533862424271 0.1959250838464788 0  0.372246743208829 0.1959123236376545 0  0.5141145242731028 0.2040749161535395 0  0.4543681063761134 0.2040749161535186 0  0.4019979587101454 0.1959834479682427 0  0.4394608940728603 0.2040870543693135 0  0.5439623148931173 0.2040856076781014 0  0.5290511287473298 0.2040749161535501 0  0.4991779197988497 0.2040749161535382 0  0.3347912413592433 0.1959225448935183 0  0.3199680582793816 0.1959123018030061 0  0.2825051229162361 0.1959834479681729 0  0.3590471196690275 0.2036304442587945 0  0.5571594006495384 0.1963685282145804 0  0.3067669986803285 0.203627750582736 0  0.4262598344738712 0.2036568242185335 0  0.5814408164431408 0.2041285596160068 0  0.5688286748170428 0.1961819304477386 0  0.4145905603063645 0.2038180695522843 0  0.3473758401724931 0.2038180695522752 0  0.2950977245128307 0.2038180695522663 0  0.5688286748170693 0.203818069552238 0  0.2950977245127906 0.1961819304477774 0  0.3473758401723931 0.1961819304478349 0  0.4145905603061963 0.1961819304479011 0  0.2601812407614425 0.2056861609747042
[...]
<PointData  Vectors="f_40-1"> 
<DataArray  type="Float64"  Name="f_40-1"  NumberOfComponents="3" format="ascii">0.0000000000000000e+00 0.0000000000000000e+00 0.0000000000000000e+00  0.0000000000000000e+00 0.0000000000000000e+00 0.0000000000000000e+00  0.0000000000000000e+00 0.0000000000000000e+00 0.0000000000000000e+00  0.0000000000000000e+00 0.0000000000000000e+00 0.0000000000000000e+00  6.1674015484390591e-05 2.2091123989167257e-03 0.0000000000000000e+00  -9.2488922876793052e-05 2.2089224439289803e-03 0.0000000000000000e+00  0.0000000000000000e+00 0.0000000000000000e+00 0.0000000000000000e+00  0.0000000000000000e+00 0.0000000000000000e+00 0.0000000000000000e+00  0.0000000000000000e+00 0.0000000000000000e+00 0.0000000000000000e+00  0.0000000000000000e+00 0.0000000000000000e+00 0.0000000000000000e+00  -1.5478930225833895e-05 2.2090098370307521e-03 0.0000000000000000e+00  0.0000000000000000e+00 0.0000000000000000e+00 0.0000000000000000e+00  0.0000000000000000e+00 0.0000000000000000e+00 0.0000000000000000e+00  0.0000000000000000e+00 0.0000000000000000e+00 0.0000000000000000e+00  0.0000000000000000e+00 0.0000000000000000e+00 0.0000000000000000e+00  0.0000000000000000e+00 0.0000000000000000e+00 0.0000000000000000e+00  0.0000000000000000e+00 0.0000000000000000e+00 0.0000000000000000e+00  0.0000000000000000e+00 0.0000000000000000e+00 0.0000000000000000e+00  0.0000000000000000e+00 0.0000000000000000e+00 0.0000000000000000e+00  0.0000000000000000e+00 0.0000000000000000e+00 0.0000000000000000e+00  0.0000000000000000e+00 0.0000000000000000e+00 0.0000000000000000e+00  0.0000000000000000e+00 0.0000000000000000e+00 0.0000000000000000e+00  0.0000000000000000e+00 0.0000000000000000e+00 0.0000000000000000e+00  0.0000000000000000e+00 0.0000000000000000e+00 0.0000000000000000e+00  0.0000000000000000e+00 0.0000000000000000e+00 0.0000000000000000e+00  0.0000000000000000e+00 0.0000000000000000e+00 0.0000000000000000e+00  0.0000000000000000e+00 0.0000000000000000e+00 0.0000000000000000e+00  0.0000000000000000e+00 0.0000000000000000e+00 0.0000000000000000e+00  0.0000000000000000e+00 0.0000000000000000e+00 0.0000000000000000e+00  0.0000000000000000e+00 0.0000000000000000e+00 0.0000000000000000e+00  0.0000000000000000e+00 0.0000000000000000e+00 0.0000000000000000e+00  0.0000000000000000e+00 0.0000000000000000e+00 0.0000000000000000e+00  0.0000000000000000e+00 0.0000000000000000e+00 0.0000000000000000e+00  0.0000000000000000e+00 0.0000000000000000e+00 0.0000000000000000e+00  0.0000000000000000e+00 0.0000000000000000e+00 0.0000000000000000e+00  0.0000000000000000e+00 0.0000000000000000e+00 0.0000000000000000e+00  0.0000000000000000e+00 0.0000000000000000e+00 0.0000000000000000e+00  0.0000000000000000e+00 0.0000000000000000e+00 0.0000000000000000e+00  0.0000000000000000e+00 0.0000000000000000e+00 0.0000000000000000e+00  0.0000000000000000e+00 0.0000000000000000e+00 0.0000000000000000e+00  0.0000000000000000e+00 0.0000000000000000e+00 0.0000000000000000e+00  0.0000000000000000e+00 0.0000000000000000e+00 0.0000000000000000e+00  0.0000000000000000e+00 0.0000000000000000e+00 0.0000000000000000e+00  0.0000000000000000e+00 0.0000000000000000e+00 0.0000000000000000e+00  0.0000000000000000e+00 0.0000000000000000e+00 0.0000000000000000e+00  0.0000000000000000e+00 0.0000000000000000e+00 0.0000000000000000e+00  0.0000000000000000e+00 0.0000000000000000e+00 0.0000000000000000e+00  0.0000000000000000e+00 0.0000000000000000e+00 0.0000000000000000e+00  0.0000000000000000e+00 0.0000000000000000e+00 0.0000000000000000e+00  0.0000000000000000e+00 0.0000000000000000e+00 0.0000000000000000e+00  0.0000000000000000e+00 0.0000000000000000e+00 0.0000000000000000e+00  0.0000000000000000e+00 0.0000000000000000e+00 0.0000000000000000e+00  0.0000000000000000e+00 0.0000000000000000e+00 0.0000000000000000e+00  0.0000000000000000e+00 0.0000000000000000e+00 0.0000000000000000e+00  0.0000000000000000e+00 0.0000000000000000e+00 0.0000000000000000e+00  0.0000000000000000e+00 0.0000000000000000e+00 0.0000000000000000e+00  0.0000000000000000e+00 0.0000000000000000e+00 0.0000000000000000e+00  0.0000000000000000e+00 0.0000000000000000e+00 0.0000000000000000e+00  0.0000000000000000e+00 0.0000000000000000e+00 0.0000000000000000e+00  0.0000000000000000e+00 0.0000000000000000e+00 0.0000000000000000e+00  0.0000000000000000e+00 0.0000000000000000e+00 0.0000000000000000e+00  0.0000000000000000e+00 0.0000000000000000e+00 0.0000000000000000e+00  0.0000000000000000e+00 0.0000000000000000e+00 0.0000000000000000e+00  0.0000000000000000e+00 0.0000000000000000e+00 0.0000000000000000e+00  0.0000000000000000e+00 0.0000000000000000e+00 0.0000000000000000e+00  0.0000000000000000e+00 0.0000000000000000e+00 0.0000000000000000e+00  0.0000000000000000e+00 0.0000000000000000e+00 0.0000000000000000e+00  0.0000000000000000e+00 0.0000000000000000e+00 0.0000000000000000e+00  0.0000000000000000e+00 0.0000000000000000e+00 0.0000000000000000e+00  0.0000000000000000e+00 0.0000000000000000e+00 0.0000000000000000e+00  0.0000000000000000e+00 0.0000000000000000e+00 0.0000000000000000e+00  0.0000000000000000e+00 0.0000000000000000e+00 0.0000000000000000e+00  0.0000000000000000e+00 0.0000000000000000e+00 0.0000000000000000e+00  0.0000000000000000e+00 0.0000000000000000e+00 0.0000000000000000e+00  0.0000000000000000e+00 0.0000000000000000e+00 0.0000000000000000e+00  0.0000000000000000e+00 0.0000000000000000e+00 0.0000000000000000e+00  0.0000000000000000e+00 0.0000000000000000e+00 0.0000000000000000e+00  0.0000000000000000e+00 0.0000000000000000e+00 0.0000000000000000e+00  0.0000000000000000e+00 0.0000000000000000e+00 0.0000000000000000e+00  0.0000000000000000e+00 0.0000000000000000e+00 0.0000000000000000e+00  0.0000000000000000e+00 0.0000000000000000e+00 0.0000000000000000e+00  0.0000000000000000e+00 0.0000000000000000e+00 0.0000000000000000e+00  0.0000000000000000e+00 0.0000000000000000e+00 0.0000000000000000e+00  0.0000000000000000e+00 0.0000000000000000e+00 0.0000000000000000e+00  0.0000000000000000e+00 0.0000000000000000e+00 0.0000000000000000e+00  0.0000000000000000e+00 0.0000000000000000e+00 0.0000000000000000e+00  0.0000000000000000e+00 0.0000000000000000e+00 0.0000000000000000e+00  0.0000000000000000e+00 0.0000000000000000e+00 0.0000000000000000e+00  0.0000000000000000e+00 0.0000000000000000e+00 0.0000000000000000e+00  0.0000000000000000e+00 0.0000000000000000e+00 0.0000000000000000e+00  0.0000000000000000e+00 0.0000000000000000e+00 0.0000000000000000e+00  0.0000000000000000e+00 0.0000000000000000e+00 0.0000000000000000e+00  0.0000000000000000e+00 0.0000000000000000e+00 0.0000000000000000e+00  0.0000000000000000e+00 0.0000000000000000e+00 0.0000000000000000e+00  0.0000000000000000e+00 0.0000000000000000e+00 0.0000000000000000e+00  0.0000000000000000e+00 0.0000000000000000e+00 0.0000000000000000e+00  0.0000000000000000e+00 0.0000000000000000e+00 0.0000000000000000e+00  0.0000000000000000e+00 0.0000000000000000e+00 0.0000000000000000e+00  0.0000000000000000e+00 0.0000000000000000e+00 0.0000000000000000e+00  0.0000000000000000e+00 0.0000000000000000e+00 0.0000000000000000e+00  0.0000000000000000e+00 0.0000000000000000e+00 0.0000000000000000e+00  0.0000000000000000e+00 0.0000000000000000e+00 0.0000000000000000e+00  0.0000000000000000e+00 0.0000000000000000e+00 0.0000000000000000e+00  0.0000000000000000e+00 0.0000000000000000e+00 0.0000000000000000e+00  0.0000000000000000e+00 0.0000000000000000e+00 0.0000000000000000e+00  0.0000000000000000e+00 0.0000000000000000e+00 0.0000000000000000e+00  0.0000000000000000e+00 0.0000000000000000e+00 0.0000000000000000e+00  0.0000000000000000e+00 0.0000000000000000e+00 0.0000000000000000e+00  0.0000000000000000e+00 0.0000000000000000e+00 0.0000000000000000e+00  0.0000000000000000e+00 0.0000000000000000e+00 0.0000000000000000e+00  0.0000000000000000e+00 0.0000000000000000e+00 0.0000000000000000e+00  0.0000000000000000e+00 0.0000000000000000e+00 0.0000000000000000e+00  0.0000000000000000e+00 0.0000000000000000e+00 0.0000000000000000e+00  0.0000000000000000e+00 0.0000000000000000e+00 0.0000000000000000e+00  0.0000000000000000e+00 0.0000000000000000e+00 0.0000000000000000e+00  0.0000000000000000e+00 0.0000000000000000e+00 0.0000000000000000e+00  0.0000000000000000e+00 0.0000000000000000e+00 0.0000000000000000e+00  0.0000000000000000e+00 0.0000000000000000e+00 0.0000000000000000e+00  0.0000000000000000e+00 0.0000000000000000e+00 0.0000000000000000e+00  0.0000000000000000e+00 0.0000000000000000e+00 0.0000000000000000e+00  0.0000000000000000e+00 0.0000000000000000e+00 0.0000000000000000e+00  0.0000000000000000e+00 0.0000000000000000e+00 0.0000000000000000e+00  0.0000000000000000e+00 0.0000000000000000e+00 0.0000000000000000e+00  0.0000000000000000e+00 0.0000000000000000e+00 0.0000000000000000e+00  0.0000000000000000e+00 0.0000000000000000e+00 0.0000000000000000e+00  0.0000000000000000e+00 0.0000000000000000e+00 0.0000000000000000e+00  0.0000000000000000e+00 0.0000000000000000e+00 0.0000000000000000e+00  0.0000000000000000e+00 0.0000000000000000e+00 0.0000000000000000e+00  0.0000000000000000e+00 0.0000000000000000e+00 0.0000000000000000e+00  0.0000000000000000e+00 0.0000000000000000e+00 0.0000000000000000e+00  0.0000000000000000e+00 0.0000000000000000e+00 0.0000000000000000e+00  0.0000000000000000e+00 0.0000000000000000e+00 0.0000000000000000e+00  0.0000000000000000e+00 0.0000000000000000e+00 0.0000000000000000e+00  0.0000000000000000e+00 0.0000000000000000e+00 0.0000000000000000e+00  0.0000000000000000e+00 0.0000000000000000e+00 0.0000000000000000e+00  0.0000000000000000e+00 0.0000000000000000e+00 0.0000000000000000e+00  0.0000000000000000e+00 0.0000000000000000e+00 0.0000000000000000e+00  0.0000000000000000e+00 0.0000000000000000e+00 0.0000000000000000e+00  0.0000000000000000e+00 0.0000000000000000e+00 0.0000000000000000e+00  0.0000000000000000e+00 0.0000000000000000e+00 0.0000000000000000e+00  0.0000000000000000e+00 0.0000000000000000e+00 0.0000000000000000e+00  0.0000000000000000e+00 0.0000000000000000e+00 0.0000000000000000e+00  0.0000000000000000e+00 0.0000000000000000e+00 0.0000000000000000e+00  -6.2692590064535658e-06 6.1633683105564115e-06 0.0000000000000000e+00  -1.3258708755082853e-05 1.3354313172112063e-05 0.0000000000000000e+00  -1.9396067501390767e-05 2.4805268348704122e-05 0.0000000000000000e+00  -2.5897768251213621e-05 4.0777608873679529e-05 0.0000000000000000e+00  -3.1276901725840017e-05 6.0406031177816463e-05 0.0000000000000000e+00  -3.7176782282852162e-05 8.4024813419417686e-05 0.0000000000000000e+00  -4.1881883607221403e-05 1.1050361421654608e-04 0.0000000000000000e+00  -4.6325421423752172e-05 1.4066980004607976e-04 0.0000000000000000e+00  -5.1253362403330244e-05 1.7355770508347998e-04 0.0000000000000000e+00  -5.4954203885435874e-05 2.0918277135389512e-04 0.0000000000000000e+00  -5.9262286041899561e-05 2.4746100541666422e-04 0.0000000000000000e+00  -6.2448332064803493e-05 2.8803840291631387e-04 0.0000000000000000e+00  -6.6011818872266451e-05 3.3080172947351543e-04 0.0000000000000000e+00  -6.8788209896196865e-05 3.7525368548977034e-04 0.0000000000000000e+00  -7.1354618865670808e-05 4.2170719256089633e-04 0.0000000000000000e+00  -7.4105635338073041e-05 4.6960324215932246e-04 0.0000000000000000e+00  -7.6139312646732611e-05 5.1888644434342748e-04 0.0000000000000000e+00  -7.8393382136088892e-05 5.6949339749607047e-04 0.0000000000000000e+00  -8.0035839421982582e-05 6.2114836123314666e-04 0.0000000000000000e+00  -8.1812605738684183e-05 6.7378856807866476e-04 0.0000000000000000e+00  -8.3175381538888539e-05 7.2725451351304338e-04 0.0000000000000000e+00  -8.4542795008154541e-05 7.8150011871787447e-04 0.0000000000000000e+00  -8.5614021200350012e-05 8.3626133800702204e-04 0.0000000000000000e+00  -8.6560963097581583e-05 8.9164684858349943e-04 0.0000000000000000e+00  -8.7511635048687596e-05 9.4742980940520330e-04 0.0000000000000000e+00  -8.8255250984875693e-05 1.0036213258406601e-03 0.0000000000000000e+00  -8.8933117503883533e-05 1.0601681668709040e-03 0.0000000000000000e+00  -8.9492827990745618e-05 1.1169418827951952e-03 0.0000000000000000e+00  -8.9990628131568349e-05 1.1739721533694997e-03 0.0000000000000000e+00  -9.0399094494187905e-05 1.2311451354765446e-03 0.0000000000000000e+00  -9.0753752116271840e-05 1.2884813233763456e-03 0.0000000000000000e+00  -9.1040306375435813e-05 1.3458893116603120e-03 0.0000000000000000e+00  -9.1283438659449937e-05 1.4033882223101835e-03 0.0000000000000000e+00  -9.1475540206550581e-05 1.4609079640707102e-03 0.0000000000000000e+00  -9.1631754465209834e-05 1.5184701964117663e-03 0.0000000000000000e+00  -9.1757976281926215e-05 1.5760272758357928e-03 0.0000000000000000e+00  -9.1860814266541161e-05 1.6335934049595815e-03 0.0000000000000000e+00  -9.1947119703488786e-05 1.6911445046267782e-03 0.0000000000000000e+00  -9.2018923398096145e-05 1.7486900608648802e-03 0.0000000000000000e+00  -9.2084906739902937e-05 1.8062226202189740e-03 0.0000000000000000e+00  -9.2145503203819345e-05 1.8637455573007630e-03 0.0000000000000000e+00  -9.2207456845002576e-05 1.9212631747235222e-03 0.0000000000000000e+00  -9.2266103159297714e-05 1.9787818117787113e-03 0.0000000000000000e+00  -9.2327454123050279e-05 2.0363037110866346e-03 0.0000000000000000e+00  -9.2390845113804568e-05 2.0938383114714678e-03 0.0000000000000000e+00  -9.2448871640884910e-05 2.1513816854012162e-03 0.0000000000000000e+00  -5.4000924056058733e-05 2.2089657355333302e-03 0.0000000000000000e+00  2.3071576812864911e-05 2.2090561204411111e-03 0.0000000000000000e+00  6.1693237847374331e-05 2.1515136521670299e-03 0.0000000000000000e+00  6.1735310437871973e-05 2.0939527025048200e-03 0.0000000000000000e+00  6.1785247798609613e-05 2.0364065696214413e-03 0.0000000000000000e+00  6.1837963048296164e-05 1.9788651227255457e-03 0.0000000000000000e+00  6.1896498252635349e-05 1.9213248283367662e-03 0.0000000000000000e+00  6.1967268454385103e-05 1.8637808365290439e-03 0.0000000000000000e+00  6.2045906096769006e-05 1.8062289295902247e-03 0.0000000000000000e+00  6.2132821724173332e-05 1.7486672432758554e-03 0.0000000000000000e+00  6.2227396377546778e-05 1.6910909247817721e-03 0.0000000000000000e+00  6.2326541798420526e-05 1.6334999722184352e-03 0.0000000000000000e+00  6.2426884544193779e-05 1.5758985459463349e-03 0.0000000000000000e+00  6.2531055326192319e-05 1.5182928543543809e-03 0.0000000000000000e+00  6.2622624094723462e-05 1.4606926609871847e-03 0.0000000000000000e+00  6.2716660336823159e-05 1.4031160205992970e-03 0.0000000000000000e+00  6.2774125125026177e-05 1.3455764705866406e-03 0.0000000000000000e+00  6.2838416278486830e-05 1.2881073885291951e-03 0.0000000000000000e+00  6.2835297701320874e-05 1.2307273709779110e-03 0.0000000000000000e+00  6.2849784937660911e-05 1.1734846251795713e-03 0.0000000000000000e+00  6.2758949438967968e-05 1.1164048524891312e-03 0.0000000000000000e+00  6.2702803828345815e-05 1.0595503080528825e-03 0.0000000000000000e+00  6.2489257432366119e-05 1.0029517324947903e-03 0.0000000000000000e+00  6.2332667224657793e-05 9.4668854187540533e-04 0.0000000000000000e+00  6.1967364226359317e-05 8.9080960259764409e-04 0.0000000000000000e+00  6.1645795933125910e-05 8.3534870704462215e-04 0.0000000000000000e+00  6.1252124877659038e-05 7.8051365991375389e-04 0.0000000000000000e+00  6.0609351238219514e-05 7.2616611543722454e-04 0.0000000000000000e+00  5.9960975681888793e-05 6.7263697378313377e-04 0.0000000000000000e+00  5.9072609113255825e-05 6.1987606793132755e-04 0.0000000000000000e+00  5.8137242592015374e-05 5.6814368689204011e-04 0.0000000000000000e+00  5.6922430836352178e-05 5.1744669780533366e-04 0.0000000000000000e+00  5.5653471164745386e-05 4.6800376255366093e-04 0.0000000000000000e+00  5.3881886357171878e-05 4.2010767282722598e-04 0.0000000000000000e+00  5.2300036747517692e-05 3.7353066116816894e-04 0.0000000000000000e+00  5.0542407887818971e-05 3.2901141090730534e-04 0.0000000000000000e+00  4.8131341148418675e-05 2.8600493558806624e-04 0.0000000000000000e+00  4.5777598289495690e-05 2.4540031729732709e-04 0.0000000000000000e+00  4.2936286293728752e-05 2.0700317425940696e-04 0.0000000000000000e+00  4.0101964643409159e-05 1.7115482315353583e-04 0.0000000000000000e+00  3.6429996240131941e-05 1.3832832272645277e-04 0.0000000000000000e+00  3.3209539609152337e-05 1.0800945484262113e-04 0.0000000000000000e+00  2.9780126872054373e-05 8.1438248853331539e-05 0.0000000000000000e+00  2.5263185680835577e-05 5.7614463715168363e-05 0.0000000000000000e+00  2.1068717411960254e-05 3.7810527989625483e-05 0.0000000000000000e+00  1.5865949208242681e-05 2.1963450515606794e-05 0.0000000000000000e+00  1.1133675853468927e-05 1.0432033486558268e-05 0.0000000000000000e+00  5.2905653223586600e-06 3.3524745081860537e-06 0.0000000000000000e+00  -6.0409552188778764e-07 5.1498617922167904e-06 0.0000000000000000e+00  -1.6365223451869980e-05 2.1225350843794089e-03 0.0000000000000000e+00  -1.6843722334666454e-05 2.0125646381665314e-03 0.0000000000000000e+00  -1.5934075591752632e-05 1.8329427692593584e-03 0.0000000000000000e+00  -2.0079719737590618e-06 2.8144753497624711e-05 0.0000000000000000e+00  -1.4916606594483195e-05 1.7199033523778626e-03 0.0000000000000000e+00  -2.9149859753452393e-06 6.6046471520224650e-05 0.0000000000000000e+00  -1.4729033407568620e-05 1.6047530482173685e-03 0.0000000000000000e+00  -4.6445673981859501e-06 1.5500772706484594e-04 0.0000000000000000e+00  -6.3630005050135037e-06 2.2537636433718315e-04 0.0000000000000000e+00  -1.4497918626587471e-05 1.4895721503785815e-03 0.0000000000000000e+00  -8.1159149461141024e-06 4.4567728462467887e-04 0.0000000000000000e+00  -1.3873367434934046e-05 1.2595178539258436e-03 0.0000000000000000e+00  -6.6758712142762741e-06 3.0333298422216207e-04 0.0000000000000000e+00  -9.8646388596558822e-06 5.4256952966798906e-04 0.0000000000000000e+00  -1.3469335232386043e-05 1.1450416905666302e-03 0.0000000000000000e+00  -1.4214603321329056e-05 1.3744413210192933e-03 0.0000000000000000e+00  -1.0703342419418790e-05 6.4613839648885996e-04 0.0000000000000000e+00  -1.2993106606539876e-05 1.0313349994182858e-03 0.0000000000000000e+00  -1.0488167459194024e-05 7.4889609905947415e-04 0.0000000000000000e+00  -1.3407197960800275e-05 9.2111254953261123e-04 0.0000000000000000e+00  -1.1920550934148247e-05 8.3101248172934663e-04 0.0000000000000000e+00  -8.2859539811720864e-06 3.6956146581509257e-04 0.0000000000000000e+00  -1.5036226094033115e-05 1.9263304854327018e-03 0.0000000000000000e+00  -4.2134119524817732e-06 1.0538400511100455e-04 0.0000000000000000e+00  1.0457011150160830e-05 2.0671687584382574e-03 0.0000000000000000e+00  4.0692112153479481e-06 1.4224235353261820e-05 0.0000000000000000e+00  7.5945850985474891e-06 1.6623242090081623e-03 0.0000000000000000e+00  7.4197326172683455e-06 1.7774562395428254e-03 0.0000000000000000e+00  -1.1747464593748533e-05 4.6870958772298110e-05 0.0000000000000000e+00  -1.9575054909779023e-05 1.8875065306491780e-04 0.0000000000000000e+00  8.2976387079407833e-06 1.3169002139268914e-03 0.0000000000000000e+00  7.8007749593119134e-06 1.5471425904337998e-03 0.0000000000000000e+00  -2.8529711742693368e-05 4.9279196116403911e-04 0.0000000000000000e+00  8.5711785475863412e-06 1.2021552121114271e-03 0.0000000000000000e+00  -2.2523099695986124e-05 2.6548106848867515e-04 0.0000000000000000e+00  -3.0311125740310689e-05 5.9413405382382405e-04 0.0000000000000000e+00  8.8496679444190805e-06 1.0880088956748970e-03 0.0000000000000000e+00  8.0375861168571422e-06 1.4319619608278843e-03 0.0000000000000000e+00  -3.6379332463303197e-05 6.9901791812121124e-04 0.0000000000000000e+00  9.1275659119617900e-06 9.7482080520150697e-04 0.0000000000000000e+00  -1.1111888557787157e-06 1.4890792272400379e-06 0.0000000000000000e+00  8.0362386096363663e-07 7.4040049965402129e-07 0.0000000000000000e+00  -3.4162593738665725e-05 2.1677885348895488e-03 0.0000000000000000e+00  -7.2853815225190248e-06 1.5400928945449180e-05 0.0000000000000000e+00  1.4418986371140615e-05 8.7545948118566844e-04 0.0000000000000000e