<?xml version="1.0"?>
<VTKFile type="UnstructuredGrid"  version="0.1"  >
<UnstructuredGrid>
<Piece  NumberOfPoints="1419" NumberOfCells="2698">
<Points>
<DataArray  type="Float64"  NumberOfComponents="3"  format="ascii">0 0 0  0 0.41 0  2.5 0 0  2.5 0.41 0  0.6 0.19 0  0.6 0.21 0  0.25 0.2 0  0.15 0.2 0  0.2489897948556636 0.21 0  0.2489897948556636 0.19 0  0.6 0.2 0  0 0.3807142857143437 0  0 0.3514285714286952 0  0 0.3221428571430699 0  0 0.29285714285744 0  0 0.2635714285718054 0  0 0.2342857142861561 0  0 0.2050000000005308 0  0 0.175714285714732 0  0 0.1464285714289574 0  0 0.1171428571431897 0  0 0.08785714285737878 0  0 0.05857142857161107 0  0 0.02928571428580012 0  0.03015443760436003 0 0  0.06140001986583606 0 0  0.09377624077125973 0 0  0.1273239957535082 0 0  0.1620856860351972 0 0  0.1981052433264291 0 0  0.235428184091502 0 0  0.2741016576309132 0 0  0.3141745521465447 0 0  0.3556974926295285 0 0  0.3987229542472677 0 0  0.4433053055141081 0 0  0.4895008759286886 0 0  0.5373680609405097 0 0  0.5869673343216626 0 0  0.6383613676634521 0 0  0.6916151138468254 0 0  0.7467958595648856 0 0  0.8039733463919316 0 0  0.8632198139502143 0 0  0.9246101326867038 0 0  0.9882218810934433 0 0  1.054135445558498 0 0  1.122434100542598 0 0  1.193204177141305 0 0  1.266535089879536 0 0  1.342519516046404 0 0  1.421253448503939 0 0  1.502836389106271 0 0  1.587371439758838 0 0  1.674965418777374 0 0  1.765729001825544 0 0  1.859776908880082 0 0  1.957227977487062 0 0  2.058205329869943 0 0  2.162836591189951 0 0  2.271253957290865 0 0  2.383594446803425 0 0  2.5 0.1024999999997612 0  2.5 0.2049999999994743 0  2.5 0.3074999999997183 0  2.383594446803656 0.41 0  2.271253957291315 0.41 0  2.162836591190598 0.41 0  2.058205329870775 0.41 0  1.957227977488067 0.41 0  1.859776908881246 0.41 0  1.765729001826854 0.41 0  1.674965418778818 0.41 0  1.58737143976041 0.41 0  1.502836389107956 0.41 0  1.421253448505726 0.41 0  1.342519516048286 0.41 0  1.266535089881505 0.41 0  1.193204177143353 0.41 0  1.122434100544716 0.41 0  1.05413544556068 0.41 0  0.9882218810956305 0.41 0  0.9246101326886647 0.41 0  0.8632198139519631 0.41 0  0.8039733463934788 0.41 0  0.7467958595662458 0.41 0  0.6916151138480078 0.41 0  0.6383613676644679 0.41 0  0.5869673343225223 0.41 0  0.5373680609412221 0.41 0  0.4895008759292634 0.41 0  0.4433053055145528 0.41 0  0.3987229542475914 0.41 0  0.3556974926297398 0.41 0  0.3141745521466497 0.41 0  0.2741016576310038 0.41 0  0.2354281840915826 0.41 0  0.1981052433265003 0.41 0  0.1620856860352591 0.41 0  0.1273239957535623 0.41 0  0.09377624077128965 0.41 0  0.06140001986584975 0.41 0  0.03015443760436654 0.41 0  0.2497468076502589 0.2050254481002335 0  0.2497468076502614 0.1949745518997913 0  0.2469965252529372 0.1829317073451959 0  0.2439893735792749 0.1762316384219906 0  0.2400332147834255 0.1700443375285386 0  0.2352133972704371 0.1645032867342007 0  0.2296339016332438 0.1597280261969788 0  0.2234150974217223 0.1558215752574715 0  0.2166911463437691 0.1528682099456123 0  0.2096071079204251 0.1509316448471593 0  0.2023158100364996 0.1500536585536553 0  0.194974551899914 0.1502531923497262 0  0.1877417105387872 0.1515259415822739 0  0.1807733240461124 0.153844448527136 0  0.1742197252835808 0.15715869474974 0  0.1682222986673531 0.1613971801805478 0  0.162910430003803 0.1664684656256651 0  0.1583987151779087 0.1722631454351573 0  0.1547844879126891 0.178656207771761 0  0.1521457199348551 0.1855097315605723 0  0.1505393388476355 0.1926758619366523 0  0.1505393388476328 0.2073241380633295 0  0.1521457199348437 0.2144902684393899 0  0.1547844879126531 0.221343792228163 0  0.1583987151778488 0.2277368545647528 0  0.1629104300036858 0.2335315343742052 0  0.1682222986671726 0.2386028198193036 0  0.1742197252833576 0.2428413052501257 0  0.1807733240458683 0.2461555514727623 0  0.1877417105384929 0.2484740584176516 0  0.1949745518995776 0.2497468076502398 0  0.202315810036185 0.2499463414463592 0  0.2096071079201568 0.2490683551528932 0  0.2166911463435495 0.2471317900544655 0  0.2234150974215506 0.2441784247426195 0  0.2296339016331197 0.2402719738031125 0  0.2352133972703547 0.2354967132658811 0  0.2400332147833751 0.2299556624715287 0  0.2439893735792577 0.2237683615780412 0  0.246996525252926 0.2170682926548348 0  0.25645809709277 0.21 0  0.2639263993298655 0.21 0  0.271394701566961 0.21 0  0.2788630038040554 0.21 0  0.2863313060411479 0.21 0  0.2937996082782405 0.21 0  0.301267910515333 0.21 0  0.3087362127524279 0.21 0  0.3162045149895234 0.21 0  0.3236728172265972 0.21 0  0.3311411194636928 0.21 0  0.3386094217007701 0.21 0  0.3460777239378666 0.21 0  0.3535460261749672 0.21 0  0.3610143284120516 0.21 0  0.3684826306491596 0.21 0  0.3759509328862226 0.21 0  0.383419235123329 0.21 0  0.3908875373604028 0.21 0  0.3983558395975142 0.21 0  0.4058241418345938 0.21 0  0.4132924440716992 0.21 0  0.4207607463087888 0.21 0  0.4282290485459029 0.21 0  0.4356973507830418 0.21 0  0.4431656530201649 0.21 0  0.4506339552573136 0.21 0  0.4581022574944306 0.21 0  0.4655705597315852 0.21 0  0.4730388619686996 0.21 0  0.480507164205851 0.21 0  0.4879754664429498 0.21 0  0.4954437686800938 0.21 0  0.502912070917267 0.21 0  0.5103803731544119 0.21 0  0.5178486753915261 0.21 0  0.5253169776286404 0.21 0  0.5327852798657868 0.21 0  0.5402535821029386 0.21 0  0.54772188434007 0.21 0  0.5551901865771842 0.21 0  0.5626584888143201 0.21 0  0.5701267910514778 0.21 0  0.5775950932886138 0.21 0  0.5850633955257281 0.21 0  0.5925316977628483 0.21 0  0.6 0.2050000000000054 0  0.6 0.1950000000000217 0  0.5925316977628897 0.19 0  0.5850633955257988 0.19 0  0.5775950932887378 0.19 0  0.5701267910515998 0.19 0  0.5626584888145268 0.19 0  0.5551901865773963 0.19 0  0.547721884340339 0.19 0  0.5402535821032429 0.19 0  0.5327852798661811 0.19 0  0.5253169776290537 0.19 0  0.5178486753919799 0.19 0  0.5103803731549078 0.19 0  0.502912070917822 0.19 0  0.4954437686807294 0.19 0  0.4879754664436223 0.19 0  0.4805071642065402 0.19 0  0.4730388619694271 0.19 0  0.4655705597323621 0.19 0  0.4581022574952563 0.19 0  0.4506339552581777 0.19 0  0.4431656530210671 0.19 0  0.4356973507839815 0.19 0  0.4282290485468779 0.19 0  0.4207607463097617 0.19 0  0.4132924440726327 0.19 0  0.4058241418354857 0.19 0  0.3983558395983636 0.19 0  0.3908875373612097 0.19 0  0.3834192351240934 0.19 0  0.3759509328869369 0.19 0  0.3684826306498175 0.19 0  0.361014328412667 0.19 0  0.3535460261755617 0.19 0  0.3460777239384295 0.19 0  0.3386094217012945 0.19 0  0.3311411194641595 0.19 0  0.3236728172270245 0.19 0  0.3162045149898895 0.19 0  0.3087362127527544 0.19 0  0.3012679105156187 0.19 0  0.2937996082784807 0.19 0  0.2863313060413428 0.19 0  0.2788630038042048 0.19 0  0.2713947015670686 0.19 0  0.2639263993299336 0.19 0  0.2564580970927985 0.19 0  0.2607803159922026 0.2000727136295815 0  0.5887803774232762 0.2001272386983733 0  0.5745072403740523 0.2002044435018727 0  0.5511891430099709 0.2001122610077113 0  0.2751288526855082 0.20000000000002 0  0.5365194309847112 0.1999999999999436 0  0.2894621222999649 0.1998691686390484 0  0.5215828265105155 0.1999999999999228 0  0.3127789816668748 0.1998657885438805 0  0.3274069683451451 0.2000000000000796 0  0.5066462220363641 0.199999999999908 0  0.3650630746574081 0.199866017807523 0  0.476773013087985 0.1999999999998713 0  0.3417402379596385 0.1998691686391011 0  0.3796850840047755 0.200000000000134 0  0.4618364086138087 0.1999999999998546 0  0.4917096175621762 0.1999999999998808 0  0.3946216884789568 0.2000000000001512 0  0.446899804139621 0.1999999999998389 0  0.4089549580935208 0.1998691686391595 0  0.4322718174608562 0.200127451265745 0  0.4201487168029707 0.1999966199048527 0  0.3528922713220932 0.2000185703532356 0  0.5633122436674589 0.1999814296467508 0  0.3006558810093873 0.1999966199048318 0  0.5815926498168407 0.1966545283159175 0  0.2677053789419034 0.1964246479135325 0  0.5290511287476175 0.1970915826863981 0  0.5439877332217911 0.197091582686394 0  0.2825131256993216 0.2035478995978015 0  0.3199386661080599 0.202908417313604 0  0.4842413153250809 0.1970915826863873 0  0.5141145242734466 0.1970915826863843 0  0.3722167817676917 0.2029084173136195 0  0.4693047108508938 0.1970915826863783 0  0.3348752705822316 0.202908417313609 0  0.3871533862418661 0.2029084173136212 0  0.4543681063767183 0.1970915826863795 0  0.4991779197992749 0.1970915826863902 0  0.4020059614928624 0.203547899597858 0  0.4394315019025246 0.1970915826863714 0  0.2550657455369551 0.2034088125358657 0  0.2548908499171161 0.1966940311614271 0  0.5946539510196798 0.2024302972968126 0  0.267698176732111 0.2039977513680092 0  0.4261685417851465 0.196409292431739 0  0.3590076176283495 0.196411355804271 0  0.5571672426447437 0.2036011176410121 0  0.3066757059912147 0.1964092924317024 0  0.594380730180568 0.1966558399668133 0  0.4842413153245942 0.2040749161535287 0  0.4693047108503577 0.2040749161535231 0  0.3871533862424271 0.1959250838464788 0  0.372246743208829 0.1959123236376545 0  0.5141145242731028 0.2040749161535395 0  0.4543681063761134 0.2040749161535186 0  0.4019979587101454 0.1959834479682427 0  0.4394608940728603 0.2040870543693135 0  0.5439623148931173 0.2040856076781014 0  0.5290511287473298 0.2040749161535501 0  0.4991779197988497 0.2040749161535382 0  0.3347912413592433 0.1959225448935183 0  0.3199680582793816 0.1959123018030061 0  0.2825051229162361 0.1959834479681729 0  0.3590471196690275 0.2036304442587945 0  0.5571594006495384 0.1963685282145804 0  0.3067669986803285 0.203627750582736 0  0.4262598344738712 0.2036568242185335 0  0.5814408164431408 0.2041285596160068 0  0.5688286748170428 0.1961819304477386 0  0.4145905603063645 0.2038180695522843 0  0.3473758401724931 0.2038180695522752 0  0.2950977245128307 0.2038180695522663 0  0.5688286748170693 0.203818069552238 0  0.2950977245127906 0.1961819304477774 0  0.3473758401723931 0.1961819304478349 0  0.4145905603061963 0.1961819304479011 0  0.2601812407614425 0.2056861609747042
[...]
<PointData  Vectors="f_40-1"> 
<DataArray  type="Float64"  Name="f_40-1"  NumberOfComponents="3" format="ascii">0.0000000000000000e+00 0.0000000000000000e+00 0.0000000000000000e+00  0.0000000000000000e+00 0.0000000000000000e+00 0.0000000000000000e+00  0.0000000000000000e+00 0.0000000000000000e+00 0.0000000000000000e+00  0.0000000000000000e+00 0.0000000000000000e+00 0.0000000000000000e+00  6.1675580357135187e-05 2.2091936975031251e-03 0.0000000000000000e+00  -9.2493243185593567e-05 2.2090036510377456e-03 0.0000000000000000e+00  0.0000000000000000e+00 0.0000000000000000e+00 0.0000000000000000e+00  0.0000000000000000e+00 0.0000000000000000e+00 0.0000000000000000e+00  0.0000000000000000e+00 0.0000000000000000e+00 0.0000000000000000e+00  0.0000000000000000e+00 0.0000000000000000e+00 0.0000000000000000e+00  -1.5480308013300759e-05 2.2090910898014773e-03 0.0000000000000000e+00  0.0000000000000000e+00 0.0000000000000000e+00 0.0000000000000000e+00  0.0000000000000000e+00 0.0000000000000000e+00 0.0000000000000000e+00  0.0000000000000000e+00 0.0000000000000000e+00 0.0000000000000000e+00  0.0000000000000000e+00 0.0000000000000000e+00 0.0000000000000000e+00  0.0000000000000000e+00 0.0000000000000000e+00 0.0000000000000000e+00  0.0000000000000000e+00 0.0000000000000000e+00 0.0000000000000000e+00  0.0000000000000000e+00 0.0000000000000000e+00 0.0000000000000000e+00  0.0000000000000000e+00 0.0000000000000000e+00 0.0000000000000000e+00  0.0000000000000000e+00 0.0000000000000000e+00 0.0000000000000000e+00  0.0000000000000000e+00 0.0000000000000000e+00 0.0000000000000000e+00  0.0000000000000000e+00 0.0000000000000000e+00 0.0000000000000000e+00  0.0000000000000000e+00 0.0000000000000000e+00 0.0000000000000000e+00  0.0000000000000000e+00 0.0000000000000000e+00 0.0000000000000000e+00  0.0000000000000000e+00 0.0000000000000000e+00 0.0000000000000000e+00  0.0000000000000000e+00 0.0000000000000000e+00 0.0000000000000000e+00  0.0000000000000000e+00 0.0000000000000000e+00 0.0000000000000000e+00  0.0000000000000000e+00 0.0000000000000000e+00 0.0000000000000000e+00  0.0000000000000000e+00 0.0000000000000000e+00 0.0000000000000000e+00  0.0000000000000000e+00 0.0000000000000000e+00 0.0000000000000000e+00  0.0000000000000000e+00 0.0000000000000000e+00 0.0000000000000000e+00  0.0000000000000000e+00 0.0000000000000000e+00 0.0000000000000000e+00  0.0000000000000000e+00 0.0000000000000000e+00 0.0000000000000000e+00  0.0000000000000000e+00 0.0000000000000000e+00 0.0000000000000000e+00  0.0000000000000000e+00 0.0000000000000000e+00 0.0000000000000000e+00  0.0000000000000000e+00 0.0000000000000000e+00 0.0000000000000000e+00  0.0000000000000000e+00 0.0000000000000000e+00 0.0000000000000000e+00  0.0000000000000000e+00 0.0000000000000000e+00 0.0000000000000000e+00  0.0000000000000000e+00 0.0000000000000000e+00 0.0000000000000000e+00  0.0000000000000000e+00 0.0000000000000000e+00 0.0000000000000000e+00  0.0000000000000000e+00 0.0000000000000000e+00 0.0000000000000000e+00  0.0000000000000000e+00 0.0000000000000000e+00 0.0000000000000000e+00  0.0000000000000000e+00 0.0000000000000000e+00 0.0000000000000000e+00  0.0000000000000000e+00 0.0000000000000000e+00 0.0000000000000000e+00  0.0000000000000000e+00 0.0000000000000000e+00 0.0000000000000000e+00  0.0000000000000000e+00 0.0000000000000000e+00 0.0000000000000000e+00  0.0000000000000000e+00 0.0000000000000000e+00 0.0000000000000000e+00  0.0000000000000000e+00 0.0000000000000000e+00 0.0000000000000000e+00  0.0000000000000000e+00 0.0000000000000000e+00 0.0000000000000000e+00  0.0000000000000000e+00 0.0000000000000000e+00 0.0000000000000000e+00  0.0000000000000000e+00 0.0000000000000000e+00 0.0000000000000000e+00  0.0000000000000000e+00 0.0000000000000000e+00 0.0000000000000000e+00  0.0000000000000000e+00 0.0000000000000000e+00 0.0000000000000000e+00  0.0000000000000000e+00 0.0000000000000000e+00 0.0000000000000000e+00  0.0000000000000000e+00 0.0000000000000000e+00 0.0000000000000000e+00  0.0000000000000000e+00 0.0000000000000000e+00 0.0000000000000000e+00  0.0000000000000000e+00 0.0000000000000000e+00 0.0000000000000000e+00  0.0000000000000000e+00 0.0000000000000000e+00 0.0000000000000000e+00  0.0000000000000000e+00 0.0000000000000000e+00 0.0000000000000000e+00  0.0000000000000000e+00 0.0000000000000000e+00 0.0000000000000000e+00  0.0000000000000000e+00 0.0000000000000000e+00 0.0000000000000000e+00  0.0000000000000000e+00 0.0000000000000000e+00 0.0000000000000000e+00  0.0000000000000000e+00 0.0000000000000000e+00 0.0000000000000000e+00  0.0000000000000000e+00 0.0000000000000000e+00 0.0000000000000000e+00  0.0000000000000000e+00 0.0000000000000000e+00 0.0000000000000000e+00  0.0000000000000000e+00 0.0000000000000000e+00 0.0000000000000000e+00  0.0000000000000000e+00 0.0000000000000000e+00 0.0000000000000000e+00  0.0000000000000000e+00 0.0000000000000000e+00 0.0000000000000000e+00  0.0000000000000000e+00 0.0000000000000000e+00 0.0000000000000000e+00  0.0000000000000000e+00 0.0000000000000000e+00 0.0000000000000000e+00  0.0000000000000000e+00 0.0000000000000000e+00 0.0000000000000000e+00  0.0000000000000000e+00 0.0000000000000000e+00 0.0000000000000000e+00  0.0000000000000000e+00 0.0000000000000000e+00 0.0000000000000000e+00  0.0000000000000000e+00 0.0000000000000000e+00 0.0000000000000000e+00  0.0000000000000000e+00 0.0000000000000000e+00 0.0000000000000000e+00  0.0000000000000000e+00 0.0000000000000000e+00 0.0000000000000000e+00  0.0000000000000000e+00 0.0000000000000000e+00 0.0000000000000000e+00  0.0000000000000000e+00 0.0000000000000000e+00 0.0000000000000000e+00  0.0000000000000000e+00 0.0000000000000000e+00 0.0000000000000000e+00  0.0000000000000000e+00 0.0000000000000000e+00 0.0000000000000000e+00  0.0000000000000000e+00 0.0000000000000000e+00 0.0000000000000000e+00  0.0000000000000000e+00 0.0000000000000000e+00 0.0000000000000000e+00  0.0000000000000000e+00 0.0000000000000000e+00 0.0000000000000000e+00  0.0000000000000000e+00 0.0000000000000000e+00 0.0000000000000000e+00  0.0000000000000000e+00 0.0000000000000000e+00 0.0000000000000000e+00  0.0000000000000000e+00 0.0000000000000000e+00 0.0000000000000000e+00  0.0000000000000000e+00 0.0000000000000000e+00 0.0000000000000000e+00  0.0000000000000000e+00 0.0000000000000000e+00 0.0000000000000000e+00  0.0000000000000000e+00 0.0000000000000000e+00 0.0000000000000000e+00  0.0000000000000000e+00 0.0000000000000000e+00 0.0000000000000000e+00  0.0000000000000000e+00 0.0000000000000000e+00 0.0000000000000000e+00  0.0000000000000000e+00 0.0000000000000000e+00 0.0000000000000000e+00  0.0000000000000000e+00 0.0000000000000000e+00 0.0000000000000000e+00  0.0000000000000000e+00 0.0000000000000000e+00 0.0000000000000000e+00  0.0000000000000000e+00 0.0000000000000000e+00 0.0000000000000000e+00  0.0000000000000000e+00 0.0000000000000000e+00 0.0000000000000000e+00  0.0000000000000000e+00 0.0000000000000000e+00 0.0000000000000000e+00  0.0000000000000000e+00 0.0000000000000000e+00 0.0000000000000000e+00  0.0000000000000000e+00 0.0000000000000000e+00 0.0000000000000000e+00  0.0000000000000000e+00 0.0000000000000000e+00 0.0000000000000000e+00  0.0000000000000000e+00 0.0000000000000000e+00 0.0000000000000000e+00  0.0000000000000000e+00 0.0000000000000000e+00 0.0000000000000000e+00  0.0000000000000000e+00 0.0000000000000000e+00 0.0000000000000000e+00  0.0000000000000000e+00 0.0000000000000000e+00 0.0000000000000000e+00  0.0000000000000000e+00 0.0000000000000000e+00 0.0000000000000000e+00  0.0000000000000000e+00 0.0000000000000000e+00 0.0000000000000000e+00  0.0000000000000000e+00 0.0000000000000000e+00 0.0000000000000000e+00  0.0000000000000000e+00 0.0000000000000000e+00 0.0000000000000000e+00  0.0000000000000000e+00 0.0000000000000000e+00 0.0000000000000000e+00  0.0000000000000000e+00 0.0000000000000000e+00 0.0000000000000000e+00  0.0000000000000000e+00 0.0000000000000000e+00 0.0000000000000000e+00  0.0000000000000000e+00 0.0000000000000000e+00 0.0000000000000000e+00  0.0000000000000000e+00 0.0000000000000000e+00 0.0000000000000000e+00  0.0000000000000000e+00 0.0000000000000000e+00 0.0000000000000000e+00  0.0000000000000000e+00 0.0000000000000000e+00 0.0000000000000000e+00  0.0000000000000000e+00 0.0000000000000000e+00 0.0000000000000000e+00  0.0000000000000000e+00 0.0000000000000000e+00 0.0000000000000000e+00  0.0000000000000000e+00 0.0000000000000000e+00 0.0000000000000000e+00  0.0000000000000000e+00 0.0000000000000000e+00 0.0000000000000000e+00  0.0000000000000000e+00 0.0000000000000000e+00 0.0000000000000000e+00  0.0000000000000000e+00 0.0000000000000000e+00 0.0000000000000000e+00  0.0000000000000000e+00 0.0000000000000000e+00 0.0000000000000000e+00  0.0000000000000000e+00 0.0000000000000000e+00 0.0000000000000000e+00  0.0000000000000000e+00 0.0000000000000000e+00 0.0000000000000000e+00  0.0000000000000000e+00 0.0000000000000000e+00 0.0000000000000000e+00  0.0000000000000000e+00 0.0000000000000000e+00 0.0000000000000000e+00  0.0000000000000000e+00 0.0000000000000000e+00 0.0000000000000000e+00  0.0000000000000000e+00 0.0000000000000000e+00 0.0000000000000000e+00  0.0000000000000000e+00 0.0000000000000000e+00 0.0000000000000000e+00  0.0000000000000000e+00 0.0000000000000000e+00 0.0000000000000000e+00  0.0000000000000000e+00 0.0000000000000000e+00 0.0000000000000000e+00  0.0000000000000000e+00 0.0000000000000000e+00 0.0000000000000000e+00  0.0000000000000000e+00 0.0000000000000000e+00 0.0000000000000000e+00  0.0000000000000000e+00 0.0000000000000000e+00 0.0000000000000000e+00  0.0000000000000000e+00 0.0000000000000000e+00 0.0000000000000000e+00  0.0000000000000000e+00 0.0000000000000000e+00 0.0000000000000000e+00  0.0000000000000000e+00 0.0000000000000000e+00 0.0000000000000000e+00  0.0000000000000000e+00 0.0000000000000000e+00 0.0000000000000000e+00  0.0000000000000000e+00 0.0000000000000000e+00 0.0000000000000000e+00  0.0000000000000000e+00 0.0000000000000000e+00 0.0000000000000000e+00  0.0000000000000000e+00 0.0000000000000000e+00 0.0000000000000000e+00  0.0000000000000000e+00 0.0000000000000000e+00 0.0000000000000000e+00  0.0000000000000000e+00 0.0000000000000000e+00 0.0000000000000000e+00  -6.2694720982886071e-06 6.1635065911463785e-06 0.0000000000000000e+00  -1.3259158522209339e-05 1.3354687985104029e-05 0.0000000000000000e+00  -1.9396723056018639e-05 2.4806028717786127e-05 0.0000000000000000e+00  -2.5898642196199080e-05 4.0778910727490528e-05 0.0000000000000000e+00  -3.1277956885179551e-05 6.0408000711108664e-05 0.0000000000000000e+00  -3.7178039560939562e-05 8.4027587492652644e-05 0.0000000000000000e+00  -4.1883303519519704e-05 1.1050729258795705e-04 0.0000000000000000e+00  -4.6326997792446137e-05 1.4067451202685798e-04 0.0000000000000000e+00  -5.1255114932668637e-05 1.7356354665575599e-04 0.0000000000000000e+00  -5.4956091877132645e-05 2.0918984106384092e-04 0.0000000000000000e+00  -5.9264334679772679e-05 2.4746939827242068e-04 0.0000000000000000e+00  -6.2450503372342086e-05 2.8804820450365116e-04 0.0000000000000000e+00  -6.6014130592257787e-05 3.3081302087721121e-04 0.0000000000000000e+00  -6.8790635079012948e-05 3.7526653118482867e-04 0.0000000000000000e+00  -7.1357153088098894e-05 4.2172167057949456e-04 0.0000000000000000e+00  -7.4108289141804049e-05 4.6961940962098991e-04 0.0000000000000000e+00  -7.6142060672281425e-05 5.1890435914964084e-04 0.0000000000000000e+00  -7.8396237306150343e-05 5.6951311448901257e-04 0.0000000000000000e+00  -8.0038778790817190e-05 6.2116992805203461e-04 0.0000000000000000e+00  -8.1815638795569164e-05 6.7381202833015027e-04 0.0000000000000000e+00  -8.3178492550532501e-05 7.2727990789463594e-04 0.0000000000000000e+00  -8.4545987946940508e-05 7.8152748509556036e-04 0.0000000000000000e+00  -8.5617283601014679e-05 8.3629070325640402e-04 0.0000000000000000e+00  -8.6564291782136287e-05 8.9167824630969131e-04 0.0000000000000000e+00  -8.7515032611613935e-05 9.4746326125196652e-04 0.0000000000000000e+00  -8.8258708956486326e-05 1.0036568564514377e-03 0.0000000000000000e+00  -8.8936634678109063e-05 1.0602057965983748e-03 0.0000000000000000e+00  -8.9496399551515014e-05 1.1169816276707699e-03 0.0000000000000000e+00  -8.9994252747947347e-05 1.1740140295241075e-03 0.0000000000000000e+00  -9.0402768340511419e-05 1.2311891546307231e-03 0.0000000000000000e+00  -9.0757473928598269e-05 1.2885274974610401e-03 0.0000000000000000e+00  -9.1044073138845923e-05 1.3459376489447471e-03 0.0000000000000000e+00  -9.1287249249490888e-05 1.4034387312465268e-03 0.0000000000000000e+00  -9.1479392321427728e-05 1.4609606502192999e-03 0.0000000000000000e+00  -9.1635647153482467e-05 1.5185250654846977e-03 0.0000000000000000e+00  -9.1761907860143051e-05 1.5760843313339294e-03 0.0000000000000000e+00  -9.1864783970737354e-05 1.6336526504985951e-03 0.0000000000000000e+00  -9.1951126359370803e-05 1.6912059422225234e-03 0.0000000000000000e+00  -9.2022966437945941e-05 1.7487536926271135e-03 0.0000000000000000e+00  -9.2088985409164047e-05 1.8062884471654066e-03 0.0000000000000000e+00  -9.2149617148919657e-05 1.8638135805724954e-03 0.0000000000000000e+00  -9.2211605582063366e-05 1.9213333946875343e-03 0.0000000000000000e+00  -9.2270286427672388e-05 1.9788542289078917e-03 0.0000000000000000e+00  -9.2331671841971549e-05 2.0363783255357391e-03 0.0000000000000000e+00  -9.2395097095809893e-05 2.0939151233965469e-03 0.0000000000000000e+00  -9.2453157818653075e-05 2.1514606948946635e-03 0.0000000000000000e+00  -5.4003773091130444e-05 2.2090469654571887e-03 0.0000000000000000e+00  2.3071670295497929e-05 2.2091373960910661e-03 0.0000000000000000e+00  6.1694836691282510e-05 2.1515927530281380e-03 0.0000000000000000e+00  6.1736943228248606e-05 2.0940296058076691e-03 0.0000000000000000e+00  6.1786914473583061e-05 2.0364812754683067e-03 0.0000000000000000e+00  6.1839663386230919e-05 1.9789376312521704e-03 0.0000000000000000e+00  6.1898232157227357e-05 1.9213951397038195e-03 0.0000000000000000e+00  6.1969035649294418e-05 1.8638489511840783e-03 0.0000000000000000e+00  6.2047706021590513e-05 1.8062948479980190e-03 0.0000000000000000e+00  6.2134654214577055e-05 1.7487309664251855e-03 0.0000000000000000e+00  6.2229260268769092e-05 1.6911524537831643e-03 0.0000000000000000e+00  6.2328437030270456e-05 1.6335593090728248e-03 0.0000000000000000e+00  6.2428809217725454e-05 1.5759556927634193e-03 0.0000000000000000e+00  6.2533009513409923e-05 1.5183478145909433e-03 0.0000000000000000e+00  6.2624604925257403e-05 1.4607454382686551e-03 0.0000000000000000e+00  6.2718668149258527e-05 1.4031666204166557e-03 0.0000000000000000e+00  6.2776155808583913e-05 1.3456248986572611e-03 0.0000000000000000e+00  6.2840470596051780e-05 1.2881536530296661e-03 0.0000000000000000e+00  6.2837370007470350e-05 1.2307714803698822e-03 0.0000000000000000e+00  6.2851876608682790e-05 1.1735265910462708e-03 0.0000000000000000e+00  6.2761052971297153e-05 1.1164446867653554e-03 0.0000000000000000e+00  6.2704921433866478e-05 1.0595880264663838e-03 0.0000000000000000e+00  6.2491379213744616e-05 1.0029873513666542e-03 0.0000000000000000e+00  6.2334796415903078e-05 9.4672208209817710e-04 0.0000000000000000e+00  6.1969488886088340e-05 8.9084108642161516e-04 0.0000000000000000e+00  6.1647918669411323e-05 8.3537815801927270e-04 0.0000000000000000e+00  6.1254241526140986e-05 7.8054111146807982e-04 0.0000000000000000e+00  6.0611449690092150e-05 7.2619159284284876e-04 0.0000000000000000e+00  5.9963056113063911e-05 6.7266051759948774e-04 0.0000000000000000e+00  5.9074660902228212e-05 6.1989771469709036e-04 0.0000000000000000e+00  5.8139264323154856e-05 5.6816348357364229e-04 0.0000000000000000e+00  5.6924411177049629e-05 5.1746469006460835e-04 0.0000000000000000e+00  5.5655408587904228e-05 4.6802000372919993e-04 0.0000000000000000e+00  5.3883761398913874e-05 4.2012222620178065e-04 0.0000000000000000e+00  5.2301857767377498e-05 3.7354357959759507e-04 0.0000000000000000e+00  5.0544168203619648e-05 3.2902277432353362e-04 0.0000000000000000e+00  4.8133016505279987e-05 2.8601480175928702e-04 0.0000000000000000e+00  4.5779191263442445e-05 2.4540877600420200e-04 0.0000000000000000e+00  4.2937779202553635e-05 2.0701030658902019e-04 0.0000000000000000e+00  4.0103357838771146e-05 1.7116072153331276e-04 0.0000000000000000e+00  3.6431259867993420e-05 1.3833309510361116e-04 0.0000000000000000e+00  3.3210689719497575e-05 1.0801318999385899e-04 0.0000000000000000e+00  2.9781155590342244e-05 8.1441078178752502e-05 0.0000000000000000e+00  2.5264055251071809e-05 5.7616482727668560e-05 0.0000000000000000e+00  2.1069438693008109e-05 3.7811876286131122e-05 0.0000000000000000e+00  1.5866488436000755e-05 2.1964263764309681e-05 0.0000000000000000e+00  1.1134050809522153e-05 1.0432456626299570e-05 0.0000000000000000e+00  5.2907419178329353e-06 3.3526546237139737e-06 0.0000000000000000e+00  -6.0413076810241240e-07 5.1500326695275318e-06 0.0000000000000000e+00  -1.6366587461992669e-05 2.1226130350653050e-03 0.0000000000000000e+00  -1.6845043927062236e-05 2.0126383886524247e-03 0.0000000000000000e+00  -1.5935263733247706e-05 1.8330096603352921e-03 0.0000000000000000e+00  -2.0080369324409296e-06 2.8145700081742793e-05 0.0000000000000000e+00  -1.4917694914432946e-05 1.7199659313865880e-03 0.0000000000000000e+00  -2.9150746720198001e-06 6.6048704487370812e-05 0.0000000000000000e+00  -1.4730053718956993e-05 1.6048112420247729e-03 0.0000000000000000e+00  -4.6447141377494621e-06 1.5501299960008462e-04 0.0000000000000000e+00  -6.3632128226731232e-06 2.2538405897932725e-04 0.0000000000000000e+00  -1.4498871017120464e-05 1.4896259697830064e-03 0.0000000000000000e+00  -8.1162285102897714e-06 4.4569266842103394e-04 0.0000000000000000e+00  -1.3874184565548896e-05 1.2595629876183646e-03 0.0000000000000000e+00  -6.6761055265463026e-06 3.0334338241363318e-04 0.0000000000000000e+00  -9.8650390784579019e-06 5.4258834536666212e-04 0.0000000000000000e+00  -1.3470085302028609e-05 1.1450825347616594e-03 0.0000000000000000e+00  -1.4215487947022841e-05 1.3744907838785468e-03 0.0000000000000000e+00  -1.0703802554652618e-05 6.4616091775720878e-04 0.0000000000000000e+00  -1.2993790144928042e-05 1.0313716091642582e-03 0.0000000000000000e+00  -1.0488652594461094e-05 7.4892233457847426e-04 0.0000000000000000e+00  -1.3407852332984592e-05 9.2114508306425855e-04 0.0000000000000000e+00  -1.1921117173793556e-05 8.3104171037543342e-04 0.0000000000000000e+00  -8.2862571684102937e-06 3.6957417542879991e-04 0.0000000000000000e+00  -1.5037431028865601e-05 1.9264009432389917e-03 0.0000000000000000e+00  -4.2135432143812485e-06 1.0538757821777402e-04 0.0000000000000000e+00  1.0456701719976547e-05 2.0672446099988164e-03 0.0000000000000000e+00  4.0693451434572353e-06 1.4224739994576244e-05 0.0000000000000000e+00  7.5943840045718477e-06 1.6623846079427329e-03 0.0000000000000000e+00  7.4194648652163845e-06 1.7775210270219734e-03 0.0000000000000000e+00  -1.1747856677004149e-05 4.6872513985948950e-05 0.0000000000000000e+00  -1.9575719196482402e-05 1.8875706480822073e-04 0.0000000000000000e+00  8.2976291892954153e-06 1.3169475220878787e-03 0.0000000000000000e+00  7.8006394475472485e-06 1.5471986089534828e-03 0.0000000000000000e+00  -2.8530760873312157e-05 4.9280899113104449e-04 0.0000000000000000e+00  8.5712281968238111e-06 1.2021982094476971e-03 0.0000000000000000e+00  -2.2523878504388621e-05 2.6549013175283879e-04 0.0000000000000000e+00  -3.0312272380683106e-05 5.9415469207133205e-04 0.0000000000000000e+00  8.8497732361326677e-06 1.0880476291387170e-03 0.0000000000000000e+00  8.0375146528863742e-06 1.4320136130051802e-03 0.0000000000000000e+00  -3.6380737045176797e-05 6.9904232481912741e-04 0.0000000000000000e+00  9.1277228154003181e-06 9.7485533876333320e-04 0.0000000000000000e+00  -1.1112415758053750e-06 1.4891118909856908e-06 0.0000000000000000e+00  8.0363609886202437e-07 7.4043923984872847e-07 0.0000000000000000e+00  -3.4164662235363240e-05 2.1678682034212819e-03 0.0000000000000000e+00  -7.2856319427463243e-06 1.5401414508181492e-05 0.0000000000000000e+00  1.4419370303166083e-05 8.7549035919612850e-04 0.0000000000000000e