<?xml version="1.0"?>
<VTKFile type="UnstructuredGrid"  version="0.1"  >
<UnstructuredGrid>
<Piece  NumberOfPoints="1419" NumberOfCells="2698">
<Points>
<DataArray  type="Float64"  NumberOfComponents="3"  format="ascii">0 0 0  0 0.41 0  2.5 0 0  2.5 0.41 0  0.6 0.19 0  0.6 0.21 0  0.25 0.2 0  0.15 0.2 0  0.2489897948556636 0.21 0  0.2489897948556636 0.19 0  0.6 0.2 0  0 0.3807142857143437 0  0 0.3514285714286952 0  0 0.3221428571430699 0  0 0.29285714285744 0  0 0.2635714285718054 0  0 0.2342857142861561 0  0 0.2050000000005308 0  0 0.175714285714732 0  0 0.1464285714289574 0  0 0.1171428571431897 0  0 0.08785714285737878 0  0 0.05857142857161107 0  0 0.02928571428580012 0  0.03015443760436003 0 0  0.06140001986583606 0 0  0.09377624077125973 0 0  0.1273239957535082 0 0  0.1620856860351972 0 0  0.1981052433264291 0 0  0.235428184091502 0 0  0.2741016576309132 0 0  0.3141745521465447 0 0  0.3556974926295285 0 0  0.3987229542472677 0 0  0.4433053055141081 0 0  0.4895008759286886 0 0  0.5373680609405097 0 0  0.5869673343216626 0 0  0.6383613676634521 0 0  0.6916151138468254 0 0  0.7467958595648856 0 0  0.8039733463919316 0 0  0.8632198139502143 0 0  0.9246101326867038 0 0  0.9882218810934433 0 0  1.054135445558498 0 0  1.122434100542598 0 0  1.193204177141305 0 0  1.266535089879536 0 0  1.342519516046404 0 0  1.421253448503939 0 0  1.502836389106271 0 0  1.587371439758838 0 0  1.674965418777374 0 0  1.765729001825544 0 0  1.859776908880082 0 0  1.957227977487062 0 0  2.058205329869943 0 0  2.162836591189951 0 0  2.271253957290865 0 0  2.383594446803425 0 0  2.5 0.1024999999997612 0  2.5 0.2049999999994743 0  2.5 0.3074999999997183 0  2.383594446803656 0.41 0  2.271253957291315 0.41 0  2.162836591190598 0.41 0  2.058205329870775 0.41 0  1.957227977488067 0.41 0  1.859776908881246 0.41 0  1.765729001826854 0.41 0  1.674965418778818 0.41 0  1.58737143976041 0.41 0  1.502836389107956 0.41 0  1.421253448505726 0.41 0  1.342519516048286 0.41 0  1.266535089881505 0.41 0  1.193204177143353 0.41 0  1.122434100544716 0.41 0  1.05413544556068 0.41 0  0.9882218810956305 0.41 0  0.9246101326886647 0.41 0  0.8632198139519631 0.41 0  0.8039733463934788 0.41 0  0.7467958595662458 0.41 0  0.6916151138480078 0.41 0  0.6383613676644679 0.41 0  0.5869673343225223 0.41 0  0.5373680609412221 0.41 0  0.4895008759292634 0.41 0  0.4433053055145528 0.41 0  0.3987229542475914 0.41 0  0.3556974926297398 0.41 0  0.3141745521466497 0.41 0  0.2741016576310038 0.41 0  0.2354281840915826 0.41 0  0.1981052433265003 0.41 0  0.1620856860352591 0.41 0  0.1273239957535623 0.41 0  0.09377624077128965 0.41 0  0.06140001986584975 0.41 0  0.03015443760436654 0.41 0  0.2497468076502589 0.2050254481002335 0  0.2497468076502614 0.1949745518997913 0  0.2469965252529372 0.1829317073451959 0  0.2439893735792749 0.1762316384219906 0  0.2400332147834255 0.1700443375285386 0  0.2352133972704371 0.1645032867342007 0  0.2296339016332438 0.1597280261969788 0  0.2234150974217223 0.1558215752574715 0  0.2166911463437691 0.1528682099456123 0  0.2096071079204251 0.1509316448471593 0  0.2023158100364996 0.1500536585536553 0  0.194974551899914 0.1502531923497262 0  0.1877417105387872 0.1515259415822739 0  0.1807733240461124 0.153844448527136 0  0.1742197252835808 0.15715869474974 0  0.1682222986673531 0.1613971801805478 0  0.162910430003803 0.1664684656256651 0  0.1583987151779087 0.1722631454351573 0  0.1547844879126891 0.178656207771761 0  0.1521457199348551 0.1855097315605723 0  0.1505393388476355 0.1926758619366523 0  0.1505393388476328 0.2073241380633295 0  0.1521457199348437 0.2144902684393899 0  0.1547844879126531 0.221343792228163 0  0.1583987151778488 0.2277368545647528 0  0.1629104300036858 0.2335315343742052 0  0.1682222986671726 0.2386028198193036 0  0.1742197252833576 0.2428413052501257 0  0.1807733240458683 0.2461555514727623 0  0.1877417105384929 0.2484740584176516 0  0.1949745518995776 0.2497468076502398 0  0.202315810036185 0.2499463414463592 0  0.2096071079201568 0.2490683551528932 0  0.2166911463435495 0.2471317900544655 0  0.2234150974215506 0.2441784247426195 0  0.2296339016331197 0.2402719738031125 0  0.2352133972703547 0.2354967132658811 0  0.2400332147833751 0.2299556624715287 0  0.2439893735792577 0.2237683615780412 0  0.246996525252926 0.2170682926548348 0  0.25645809709277 0.21 0  0.2639263993298655 0.21 0  0.271394701566961 0.21 0  0.2788630038040554 0.21 0  0.2863313060411479 0.21 0  0.2937996082782405 0.21 0  0.301267910515333 0.21 0  0.3087362127524279 0.21 0  0.3162045149895234 0.21 0  0.3236728172265972 0.21 0  0.3311411194636928 0.21 0  0.3386094217007701 0.21 0  0.3460777239378666 0.21 0  0.3535460261749672 0.21 0  0.3610143284120516 0.21 0  0.3684826306491596 0.21 0  0.3759509328862226 0.21 0  0.383419235123329 0.21 0  0.3908875373604028 0.21 0  0.3983558395975142 0.21 0  0.4058241418345938 0.21 0  0.4132924440716992 0.21 0  0.4207607463087888 0.21 0  0.4282290485459029 0.21 0  0.4356973507830418 0.21 0  0.4431656530201649 0.21 0  0.4506339552573136 0.21 0  0.4581022574944306 0.21 0  0.4655705597315852 0.21 0  0.4730388619686996 0.21 0  0.480507164205851 0.21 0  0.4879754664429498 0.21 0  0.4954437686800938 0.21 0  0.502912070917267 0.21 0  0.5103803731544119 0.21 0  0.5178486753915261 0.21 0  0.5253169776286404 0.21 0  0.5327852798657868 0.21 0  0.5402535821029386 0.21 0  0.54772188434007 0.21 0  0.5551901865771842 0.21 0  0.5626584888143201 0.21 0  0.5701267910514778 0.21 0  0.5775950932886138 0.21 0  0.5850633955257281 0.21 0  0.5925316977628483 0.21 0  0.6 0.2050000000000054 0  0.6 0.1950000000000217 0  0.5925316977628897 0.19 0  0.5850633955257988 0.19 0  0.5775950932887378 0.19 0  0.5701267910515998 0.19 0  0.5626584888145268 0.19 0  0.5551901865773963 0.19 0  0.547721884340339 0.19 0  0.5402535821032429 0.19 0  0.5327852798661811 0.19 0  0.5253169776290537 0.19 0  0.5178486753919799 0.19 0  0.5103803731549078 0.19 0  0.502912070917822 0.19 0  0.4954437686807294 0.19 0  0.4879754664436223 0.19 0  0.4805071642065402 0.19 0  0.4730388619694271 0.19 0  0.4655705597323621 0.19 0  0.4581022574952563 0.19 0  0.4506339552581777 0.19 0  0.4431656530210671 0.19 0  0.4356973507839815 0.19 0  0.4282290485468779 0.19 0  0.4207607463097617 0.19 0  0.4132924440726327 0.19 0  0.4058241418354857 0.19 0  0.3983558395983636 0.19 0  0.3908875373612097 0.19 0  0.3834192351240934 0.19 0  0.3759509328869369 0.19 0  0.3684826306498175 0.19 0  0.361014328412667 0.19 0  0.3535460261755617 0.19 0  0.3460777239384295 0.19 0  0.3386094217012945 0.19 0  0.3311411194641595 0.19 0  0.3236728172270245 0.19 0  0.3162045149898895 0.19 0  0.3087362127527544 0.19 0  0.3012679105156187 0.19 0  0.2937996082784807 0.19 0  0.2863313060413428 0.19 0  0.2788630038042048 0.19 0  0.2713947015670686 0.19 0  0.2639263993299336 0.19 0  0.2564580970927985 0.19 0  0.2607803159922026 0.2000727136295815 0  0.5887803774232762 0.2001272386983733 0  0.5745072403740523 0.2002044435018727 0  0.5511891430099709 0.2001122610077113 0  0.2751288526855082 0.20000000000002 0  0.5365194309847112 0.1999999999999436 0  0.2894621222999649 0.1998691686390484 0  0.5215828265105155 0.1999999999999228 0  0.3127789816668748 0.1998657885438805 0  0.3274069683451451 0.2000000000000796 0  0.5066462220363641 0.199999999999908 0  0.3650630746574081 0.199866017807523 0  0.476773013087985 0.1999999999998713 0  0.3417402379596385 0.1998691686391011 0  0.3796850840047755 0.200000000000134 0  0.4618364086138087 0.1999999999998546 0  0.4917096175621762 0.1999999999998808 0  0.3946216884789568 0.2000000000001512 0  0.446899804139621 0.1999999999998389 0  0.4089549580935208 0.1998691686391595 0  0.4322718174608562 0.200127451265745 0  0.4201487168029707 0.1999966199048527 0  0.3528922713220932 0.2000185703532356 0  0.5633122436674589 0.1999814296467508 0  0.3006558810093873 0.1999966199048318 0  0.5815926498168407 0.1966545283159175 0  0.2677053789419034 0.1964246479135325 0  0.5290511287476175 0.1970915826863981 0  0.5439877332217911 0.197091582686394 0  0.2825131256993216 0.2035478995978015 0  0.3199386661080599 0.202908417313604 0  0.4842413153250809 0.1970915826863873 0  0.5141145242734466 0.1970915826863843 0  0.3722167817676917 0.2029084173136195 0  0.4693047108508938 0.1970915826863783 0  0.3348752705822316 0.202908417313609 0  0.3871533862418661 0.2029084173136212 0  0.4543681063767183 0.1970915826863795 0  0.4991779197992749 0.1970915826863902 0  0.4020059614928624 0.203547899597858 0  0.4394315019025246 0.1970915826863714 0  0.2550657455369551 0.2034088125358657 0  0.2548908499171161 0.1966940311614271 0  0.5946539510196798 0.2024302972968126 0  0.267698176732111 0.2039977513680092 0  0.4261685417851465 0.196409292431739 0  0.3590076176283495 0.196411355804271 0  0.5571672426447437 0.2036011176410121 0  0.3066757059912147 0.1964092924317024 0  0.594380730180568 0.1966558399668133 0  0.4842413153245942 0.2040749161535287 0  0.4693047108503577 0.2040749161535231 0  0.3871533862424271 0.1959250838464788 0  0.372246743208829 0.1959123236376545 0  0.5141145242731028 0.2040749161535395 0  0.4543681063761134 0.2040749161535186 0  0.4019979587101454 0.1959834479682427 0  0.4394608940728603 0.2040870543693135 0  0.5439623148931173 0.2040856076781014 0  0.5290511287473298 0.2040749161535501 0  0.4991779197988497 0.2040749161535382 0  0.3347912413592433 0.1959225448935183 0  0.3199680582793816 0.1959123018030061 0  0.2825051229162361 0.1959834479681729 0  0.3590471196690275 0.2036304442587945 0  0.5571594006495384 0.1963685282145804 0  0.3067669986803285 0.203627750582736 0  0.4262598344738712 0.2036568242185335 0  0.5814408164431408 0.2041285596160068 0  0.5688286748170428 0.1961819304477386 0  0.4145905603063645 0.2038180695522843 0  0.3473758401724931 0.2038180695522752 0  0.2950977245128307 0.2038180695522663 0  0.5688286748170693 0.203818069552238 0  0.2950977245127906 0.1961819304477774 0  0.3473758401723931 0.1961819304478349 0  0.4145905603061963 0.1961819304479011 0  0.2601812407614425 0.2056861609747042
[...]
<PointData  Vectors="f_40-1"> 
<DataArray  type="Float64"  Name="f_40-1"  NumberOfComponents="3" format="ascii">0.0000000000000000e+00 0.0000000000000000e+00 0.0000000000000000e+00  0.0000000000000000e+00 0.0000000000000000e+00 0.0000000000000000e+00  0.0000000000000000e+00 0.0000000000000000e+00 0.0000000000000000e+00  0.0000000000000000e+00 0.0000000000000000e+00 0.0000000000000000e+00  6.1674607154957501e-05 2.2092066394153267e-03 0.0000000000000000e+00  -9.2495191046623523e-05 2.2090165071500692e-03 0.0000000000000000e+00  0.0000000000000000e+00 0.0000000000000000e+00 0.0000000000000000e+00  0.0000000000000000e+00 0.0000000000000000e+00 0.0000000000000000e+00  0.0000000000000000e+00 0.0000000000000000e+00 0.0000000000000000e+00  0.0000000000000000e+00 0.0000000000000000e+00 0.0000000000000000e+00  -1.5481768665640930e-05 2.2091039887306512e-03 0.0000000000000000e+00  0.0000000000000000e+00 0.0000000000000000e+00 0.0000000000000000e+00  0.0000000000000000e+00 0.0000000000000000e+00 0.0000000000000000e+00  0.0000000000000000e+00 0.0000000000000000e+00 0.0000000000000000e+00  0.0000000000000000e+00 0.0000000000000000e+00 0.0000000000000000e+00  0.0000000000000000e+00 0.0000000000000000e+00 0.0000000000000000e+00  0.0000000000000000e+00 0.0000000000000000e+00 0.0000000000000000e+00  0.0000000000000000e+00 0.0000000000000000e+00 0.0000000000000000e+00  0.0000000000000000e+00 0.0000000000000000e+00 0.0000000000000000e+00  0.0000000000000000e+00 0.0000000000000000e+00 0.0000000000000000e+00  0.0000000000000000e+00 0.0000000000000000e+00 0.0000000000000000e+00  0.0000000000000000e+00 0.0000000000000000e+00 0.0000000000000000e+00  0.0000000000000000e+00 0.0000000000000000e+00 0.0000000000000000e+00  0.0000000000000000e+00 0.0000000000000000e+00 0.0000000000000000e+00  0.0000000000000000e+00 0.0000000000000000e+00 0.0000000000000000e+00  0.0000000000000000e+00 0.0000000000000000e+00 0.0000000000000000e+00  0.0000000000000000e+00 0.0000000000000000e+00 0.0000000000000000e+00  0.0000000000000000e+00 0.0000000000000000e+00 0.0000000000000000e+00  0.0000000000000000e+00 0.0000000000000000e+00 0.0000000000000000e+00  0.0000000000000000e+00 0.0000000000000000e+00 0.0000000000000000e+00  0.0000000000000000e+00 0.0000000000000000e+00 0.0000000000000000e+00  0.0000000000000000e+00 0.0000000000000000e+00 0.0000000000000000e+00  0.0000000000000000e+00 0.0000000000000000e+00 0.0000000000000000e+00  0.0000000000000000e+00 0.0000000000000000e+00 0.0000000000000000e+00  0.0000000000000000e+00 0.0000000000000000e+00 0.0000000000000000e+00  0.0000000000000000e+00 0.0000000000000000e+00 0.0000000000000000e+00  0.0000000000000000e+00 0.0000000000000000e+00 0.0000000000000000e+00  0.0000000000000000e+00 0.0000000000000000e+00 0.0000000000000000e+00  0.0000000000000000e+00 0.0000000000000000e+00 0.0000000000000000e+00  0.0000000000000000e+00 0.0000000000000000e+00 0.0000000000000000e+00  0.0000000000000000e+00 0.0000000000000000e+00 0.0000000000000000e+00  0.0000000000000000e+00 0.0000000000000000e+00 0.0000000000000000e+00  0.0000000000000000e+00 0.0000000000000000e+00 0.0000000000000000e+00  0.0000000000000000e+00 0.0000000000000000e+00 0.0000000000000000e+00  0.0000000000000000e+00 0.0000000000000000e+00 0.0000000000000000e+00  0.0000000000000000e+00 0.0000000000000000e+00 0.0000000000000000e+00  0.0000000000000000e+00 0.0000000000000000e+00 0.0000000000000000e+00  0.0000000000000000e+00 0.0000000000000000e+00 0.0000000000000000e+00  0.0000000000000000e+00 0.0000000000000000e+00 0.0000000000000000e+00  0.0000000000000000e+00 0.0000000000000000e+00 0.0000000000000000e+00  0.0000000000000000e+00 0.0000000000000000e+00 0.0000000000000000e+00  0.0000000000000000e+00 0.0000000000000000e+00 0.0000000000000000e+00  0.0000000000000000e+00 0.0000000000000000e+00 0.0000000000000000e+00  0.0000000000000000e+00 0.0000000000000000e+00 0.0000000000000000e+00  0.0000000000000000e+00 0.0000000000000000e+00 0.0000000000000000e+00  0.0000000000000000e+00 0.0000000000000000e+00 0.0000000000000000e+00  0.0000000000000000e+00 0.0000000000000000e+00 0.0000000000000000e+00  0.0000000000000000e+00 0.0000000000000000e+00 0.0000000000000000e+00  0.0000000000000000e+00 0.0000000000000000e+00 0.0000000000000000e+00  0.0000000000000000e+00 0.0000000000000000e+00 0.0000000000000000e+00  0.0000000000000000e+00 0.0000000000000000e+00 0.0000000000000000e+00  0.0000000000000000e+00 0.0000000000000000e+00 0.0000000000000000e+00  0.0000000000000000e+00 0.0000000000000000e+00 0.0000000000000000e+00  0.0000000000000000e+00 0.0000000000000000e+00 0.0000000000000000e+00  0.0000000000000000e+00 0.0000000000000000e+00 0.0000000000000000e+00  0.0000000000000000e+00 0.0000000000000000e+00 0.0000000000000000e+00  0.0000000000000000e+00 0.0000000000000000e+00 0.0000000000000000e+00  0.0000000000000000e+00 0.0000000000000000e+00 0.0000000000000000e+00  0.0000000000000000e+00 0.0000000000000000e+00 0.0000000000000000e+00  0.0000000000000000e+00 0.0000000000000000e+00 0.0000000000000000e+00  0.0000000000000000e+00 0.0000000000000000e+00 0.0000000000000000e+00  0.0000000000000000e+00 0.0000000000000000e+00 0.0000000000000000e+00  0.0000000000000000e+00 0.0000000000000000e+00 0.0000000000000000e+00  0.0000000000000000e+00 0.0000000000000000e+00 0.0000000000000000e+00  0.0000000000000000e+00 0.0000000000000000e+00 0.0000000000000000e+00  0.0000000000000000e+00 0.0000000000000000e+00 0.0000000000000000e+00  0.0000000000000000e+00 0.0000000000000000e+00 0.0000000000000000e+00  0.0000000000000000e+00 0.0000000000000000e+00 0.0000000000000000e+00  0.0000000000000000e+00 0.0000000000000000e+00 0.0000000000000000e+00  0.0000000000000000e+00 0.0000000000000000e+00 0.0000000000000000e+00  0.0000000000000000e+00 0.0000000000000000e+00 0.0000000000000000e+00  0.0000000000000000e+00 0.0000000000000000e+00 0.0000000000000000e+00  0.0000000000000000e+00 0.0000000000000000e+00 0.0000000000000000e+00  0.0000000000000000e+00 0.0000000000000000e+00 0.0000000000000000e+00  0.0000000000000000e+00 0.0000000000000000e+00 0.0000000000000000e+00  0.0000000000000000e+00 0.0000000000000000e+00 0.0000000000000000e+00  0.0000000000000000e+00 0.0000000000000000e+00 0.0000000000000000e+00  0.0000000000000000e+00 0.0000000000000000e+00 0.0000000000000000e+00  0.0000000000000000e+00 0.0000000000000000e+00 0.0000000000000000e+00  0.0000000000000000e+00 0.0000000000000000e+00 0.0000000000000000e+00  0.0000000000000000e+00 0.0000000000000000e+00 0.0000000000000000e+00  0.0000000000000000e+00 0.0000000000000000e+00 0.0000000000000000e+00  0.0000000000000000e+00 0.0000000000000000e+00 0.0000000000000000e+00  0.0000000000000000e+00 0.0000000000000000e+00 0.0000000000000000e+00  0.0000000000000000e+00 0.0000000000000000e+00 0.0000000000000000e+00  0.0000000000000000e+00 0.0000000000000000e+00 0.0000000000000000e+00  0.0000000000000000e+00 0.0000000000000000e+00 0.0000000000000000e+00  0.0000000000000000e+00 0.0000000000000000e+00 0.0000000000000000e+00  0.0000000000000000e+00 0.0000000000000000e+00 0.0000000000000000e+00  0.0000000000000000e+00 0.0000000000000000e+00 0.0000000000000000e+00  0.0000000000000000e+00 0.0000000000000000e+00 0.0000000000000000e+00  0.0000000000000000e+00 0.0000000000000000e+00 0.0000000000000000e+00  0.0000000000000000e+00 0.0000000000000000e+00 0.0000000000000000e+00  0.0000000000000000e+00 0.0000000000000000e+00 0.0000000000000000e+00  0.0000000000000000e+00 0.0000000000000000e+00 0.0000000000000000e+00  0.0000000000000000e+00 0.0000000000000000e+00 0.0000000000000000e+00  0.0000000000000000e+00 0.0000000000000000e+00 0.0000000000000000e+00  0.0000000000000000e+00 0.0000000000000000e+00 0.0000000000000000e+00  0.0000000000000000e+00 0.0000000000000000e+00 0.0000000000000000e+00  0.0000000000000000e+00 0.0000000000000000e+00 0.0000000000000000e+00  0.0000000000000000e+00 0.0000000000000000e+00 0.0000000000000000e+00  0.0000000000000000e+00 0.0000000000000000e+00 0.0000000000000000e+00  0.0000000000000000e+00 0.0000000000000000e+00 0.0000000000000000e+00  0.0000000000000000e+00 0.0000000000000000e+00 0.0000000000000000e+00  0.0000000000000000e+00 0.0000000000000000e+00 0.0000000000000000e+00  0.0000000000000000e+00 0.0000000000000000e+00 0.0000000000000000e+00  0.0000000000000000e+00 0.0000000000000000e+00 0.0000000000000000e+00  0.0000000000000000e+00 0.0000000000000000e+00 0.0000000000000000e+00  0.0000000000000000e+00 0.0000000000000000e+00 0.0000000000000000e+00  0.0000000000000000e+00 0.0000000000000000e+00 0.0000000000000000e+00  0.0000000000000000e+00 0.0000000000000000e+00 0.0000000000000000e+00  0.0000000000000000e+00 0.0000000000000000e+00 0.0000000000000000e+00  0.0000000000000000e+00 0.0000000000000000e+00 0.0000000000000000e+00  0.0000000000000000e+00 0.0000000000000000e+00 0.0000000000000000e+00  0.0000000000000000e+00 0.0000000000000000e+00 0.0000000000000000e+00  0.0000000000000000e+00 0.0000000000000000e+00 0.0000000000000000e+00  0.0000000000000000e+00 0.0000000000000000e+00 0.0000000000000000e+00  0.0000000000000000e+00 0.0000000000000000e+00 0.0000000000000000e+00  0.0000000000000000e+00 0.0000000000000000e+00 0.0000000000000000e+00  0.0000000000000000e+00 0.0000000000000000e+00 0.0000000000000000e+00  0.0000000000000000e+00 0.0000000000000000e+00 0.0000000000000000e+00  0.0000000000000000e+00 0.0000000000000000e+00 0.0000000000000000e+00  0.0000000000000000e+00 0.0000000000000000e+00 0.0000000000000000e+00  0.0000000000000000e+00 0.0000000000000000e+00 0.0000000000000000e+00  0.0000000000000000e+00 0.0000000000000000e+00 0.0000000000000000e+00  0.0000000000000000e+00 0.0000000000000000e+00 0.0000000000000000e+00  0.0000000000000000e+00 0.0000000000000000e+00 0.0000000000000000e+00  0.0000000000000000e+00 0.0000000000000000e+00 0.0000000000000000e+00  0.0000000000000000e+00 0.0000000000000000e+00 0.0000000000000000e+00  0.0000000000000000e+00 0.0000000000000000e+00 0.0000000000000000e+00  0.0000000000000000e+00 0.0000000000000000e+00 0.0000000000000000e+00  0.0000000000000000e+00 0.0000000000000000e+00 0.0000000000000000e+00  0.0000000000000000e+00 0.0000000000000000e+00 0.0000000000000000e+00  -6.2695272888409180e-06 6.1634888414066792e-06 0.0000000000000000e+00  -1.3259273261926883e-05 1.3354695532606283e-05 0.0000000000000000e+00  -1.9396892988487048e-05 2.4806082877696957e-05 0.0000000000000000e+00  -2.5898869039435939e-05 4.0779033649950390e-05 0.0000000000000000e+00  -3.1278235877620456e-05 6.0408210290144342e-05 0.0000000000000000e+00  -3.7178374687089923e-05 8.4027903229362723e-05 0.0000000000000000e+00  -4.1883689556672110e-05 1.1050772951506678e-04 0.0000000000000000e+00  -4.6327434460110797e-05 1.4067509010789924e-04 0.0000000000000000e+00  -5.1255606000085185e-05 1.7356428119181012e-04 0.0000000000000000e+00  -5.4956631377615263e-05 2.0919074832309435e-04 0.0000000000000000e+00  -5.9264927431146624e-05 2.4747049420178026e-04 0.0000000000000000e+00  -6.2451143356271951e-05 2.8804950413454305e-04 0.0000000000000000e+00  -6.6014821481117758e-05 3.3081453866012884e-04 0.0000000000000000e+00  -6.8791372373383714e-05 3.7526827898659918e-04 0.0000000000000000e+00  -7.1357936334178731e-05 4.2172366307007095e-04 0.0000000000000000e+00  -7.4109120712775745e-05 4.6962165782207029e-04 0.0000000000000000e+00  -7.6142935964177964e-05 5.1890687452440555e-04 0.0000000000000000e+00  -7.8397159190935622e-05 5.6951590804254278e-04 0.0000000000000000e+00  -8.0039742841654072e-05 6.2117300967804952e-04 0.0000000000000000e+00  -8.1816647194958057e-05 6.7381540713389607e-04 0.0000000000000000e+00  -8.3179542154722142e-05 7.2728359263211982e-04 0.0000000000000000e+00  -8.4547079769059145e-05 7.8153148397102159e-04 0.0000000000000000e+00  -8.5618415013993704e-05 8.3629502221543417e-04 0.0000000000000000e+00  -8.6565462160382239e-05 8.9168289282271754e-04 0.0000000000000000e+00  -8.7516242583444726e-05 9.4746824018975592e-04 0.0000000000000000e+00  -8.8259956664574947e-05 1.0036621733711694e-03 0.0000000000000000e+00  -8.8937919858417198e-05 1.0602114561052674e-03 0.0000000000000000e+00  -8.9497721110616966e-05 1.1169876333874402e-03 0.0000000000000000e+00  -8.9995610364329332e-05 1.1740203850895714e-03 0.0000000000000000e+00  -9.0404161126373105e-05 1.2311958626486121e-03 0.0000000000000000e+00  -9.0758901566831703e-05 1.2885345605773266e-03 0.0000000000000000e+00  -9.1045534924262051e-05 1.3459450689311254e-03 0.0000000000000000e+00  -9.1288744893140738e-05 1.4034465099197161e-03 0.0000000000000000e+00  -9.1480921291836289e-05 1.4609687887121199e-03 0.0000000000000000e+00  -9.1637209212888188e-05 1.5185335649655989e-03 0.0000000000000000e+00  -9.1763502637843465e-05 1.5760931924502551e-03 0.0000000000000000e+00  -9.1866411284726549e-05 1.6336618739131155e-03 0.0000000000000000e+00  -9.1952785967903990e-05 1.6912155282556942e-03 0.0000000000000000e+00  -9.2024658228628231e-05 1.7487636416130183e-03 0.0000000000000000e+00  -9.2090709256539250e-05 1.8062987592320186e-03 0.0000000000000000e+00  -9.2151373017265790e-05 1.8638242558666992e-03 0.0000000000000000e+00  -9.2213393416355177e-05 1.9213444332427643e-03 0.0000000000000000e+00  -9.2272106226442925e-05 1.9788656308059351e-03 0.0000000000000000e+00  -9.2333523640270425e-05 2.0363900908150477e-03 0.0000000000000000e+00  -9.2396980901405309e-05 2.0939272521735340e-03 0.0000000000000000e+00  -9.2455073658691392e-05 2.1514731872822493e-03 0.0000000000000000e+00  -5.4005477328835687e-05 2.2090598429615792e-03 0.0000000000000000e+00  2.3070453264472258e-05 2.2091503164804564e-03 0.0000000000000000e+00  6.1693895141012536e-05 2.1516053310371287e-03 0.0000000000000000e+00  6.1736033387600037e-05 2.0940418202318126e-03 0.0000000000000000e+00  6.1786036369383831e-05 2.0364931264450969e-03 0.0000000000000000e+00  6.1838816980832757e-05 1.9789491188727613e-03 0.0000000000000000e+00  6.1897417472519479e-05 1.9214062640104928e-03 0.0000000000000000e+00  6.1968252655257908e-05 1.8638597122514462e-03 0.0000000000000000e+00  6.2046954635991712e-05 1.8063052458718338e-03 0.0000000000000000e+00  6.2133934410446692e-05 1.7487410012323290e-03 0.0000000000000000e+00  6.2228571832184009e-05 1.6911621256550154e-03 0.0000000000000000e+00  6.2327779924109184e-05 1.6335686183239241e-03 0.0000000000000000e+00  6.2428183058241193e-05 1.5759646397232457e-03 0.0000000000000000e+00  6.2532414272915713e-05 1.5183563998946042e-03 0.0000000000000000e+00  6.2624039987032784e-05 1.4607536625869787e-03 0.0000000000000000e+00  6.2718133537312371e-05 1.4031744848625903e-03 0.0000000000000000e+00  6.2775650610946758e-05 1.3456324043977050e-03 0.0000000000000000e+00  6.2839994934186144e-05 1.2881608018174592e-03 0.0000000000000000e+00  6.2836922604451149e-05 1.2307782740272608e-03 0.0000000000000000e+00  6.2851457735377446e-05 1.1735330321404483e-03 0.0000000000000000e+00  6.2760660922289108e-05 1.1164507779539219e-03 0.0000000000000000e+00  6.2704556689179375e-05 1.0595937712994147e-03 0.0000000000000000e+00  6.2491039540247130e-05 1.0029927535355619e-03 0.0000000000000000e+00  6.2334482556688445e-05 9.4672714633283188e-04 0.0000000000000000e+00  6.1969198206618655e-05 8.9084581774934591e-04 0.0000000000000000e+00  6.1647651814142999e-05 8.3538256173549532e-04 0.0000000000000000e+00  6.1253997667573884e-05 7.8054519500730024e-04 0.0000000000000000e+00  6.0611226286057112e-05 7.2619536181162863e-04 0.0000000000000000e+00  5.9962853385716164e-05 6.7266398077511845e-04 0.0000000000000000e+00  5.9074476792549626e-05 6.1990087997874520e-04 0.0000000000000000e+00  5.8139098781285161e-05 5.6816636074717545e-04 0.0000000000000000e+00  5.6924262165435275e-05 5.1746728866232036e-04 0.0000000000000000e+00  5.5655276113299693e-05 4.6802233444058006e-04 0.0000000000000000e+00  5.3883642083534737e-05 4.2012430156577644e-04 0.0000000000000000e+00  5.2301753562301439e-05 3.7354540979400594e-04 0.0000000000000000e+00  5.0544078276606736e-05 3.2902437438120575e-04 0.0000000000000000e+00  4.8132936821929059e-05 2.8601618237550477e-04 0.0000000000000000e+00  4.5779122884802313e-05 2.4540995315297683e-04 0.0000000000000000e+00  4.2937719623738561e-05 2.0701129458353560e-04 0.0000000000000000e+00  4.0103307718126593e-05 1.7116153585971960e-04 0.0000000000000000e+00  3.6431215105071448e-05 1.3833375359557343e-04 0.0000000000000000e+00  3.3210653467127708e-05 1.0801370675739283e-04 0.0000000000000000e+00  2.9781127319259388e-05 8.1441473531459197e-05 0.0000000000000000e+00  2.5264029981485716e-05 5.7616771097284290e-05 0.0000000000000000e+00  2.1069418878069452e-05 3.7812078068924978e-05 0.0000000000000000e+00  1.5866470684589744e-05 2.1964398279460514e-05 0.0000000000000000e+00  1.1134039239981355e-05 1.0432541881710586e-05 0.0000000000000000e+00  5.2907342856343055e-06 3.3527084045807492e-06 0.0000000000000000e+00  -6.0418727722859109e-07 5.1500506581187671e-06 0.0000000000000000e+00  -1.6368006386183076e-05 2.1226253870043009e-03 0.0000000000000000e+00  -1.6846405674517651e-05 2.0126500455749361e-03 0.0000000000000000e+00  -1.5936521585406628e-05 1.8330201833243471e-03 0.0000000000000000e+00  -2.0081453937816192e-06 2.8145813412931414e-05 0.0000000000000000e+00  -1.4918884833286485e-05 1.7199757415813247e-03 0.0000000000000000e+00  -2.9152374381857650e-06 6.6048983993454346e-05 0.0000000000000000e+00  -1.4731180059817817e-05 1.6048203267706820e-03 0.0000000000000000e+00  -4.6449678848825266e-06 1.5501368995748471e-04 0.0000000000000000e+00  -6.3635278035163745e-06 2.2538508933570079e-04 0.0000000000000000e+00  -1.4499933814421268e-05 1.4896343309212543e-03 0.0000000000000000e+00  -8.1166916308103014e-06 4.4569483214929604e-04 0.0000000000000000e+00  -1.3875120414062332e-05 1.2595699142305128e-03 0.0000000000000000e+00  -6.6764744920575802e-06 3.0334480360216700e-04 0.0000000000000000e+00  -9.8655670026832282e-06 5.4259103354915470e-04 0.0000000000000000e+00  -1.3470957792583817e-05 1.1450887556635639e-03 0.0000000000000000e+00  -1.4216487242538529e-05 1.3744984248843229e-03 0.0000000000000000e+00  -1.0704392403411698e-05 6.4616418301171523e-04 0.0000000000000000e+00  -1.2994599388261417e-05 1.0313771367169993e-03 0.0000000000000000e+00  -1.0489296747456095e-05 7.4892618768298625e-04 0.0000000000000000e+00  -1.3408605509622647e-05 9.2114994721497877e-04 0.0000000000000000e+00  -1.1921813585720653e-05 8.3104604205079850e-04 0.0000000000000000e+00  -8.2866757521734867e-06 3.6957593746920949e-04 0.0000000000000000e+00  -1.5038734187386104e-05 1.9264120564874872e-03 0.0000000000000000e+00  -4.2137516504108185e-06 1.0538803605216030e-04 0.0000000000000000e+00  1.0455482594942831e-05 2.0672566269345242e-03 0.0000000000000000e+00  4.0692877527904772e-06 1.4224812264496600e-05 0.0000000000000000e+00  7.5933670212222942e-06 1.6623940677879413e-03 0.0000000000000000e+00  7.4183845166712255e-06 1.7775312127926524e-03 0.0000000000000000e+00  -1.1748034366422409e-05 4.6872692175522222e-05 0.0000000000000000e+00  -1.9576071464519470e-05 1.8875790335958720e-04 0.0000000000000000e+00  8.2968003502434480e-06 1.3169548176589720e-03 0.0000000000000000e+00  7.7996855833060575e-06 1.5472073441369304e-03 0.0000000000000000e+00  -2.8531361732199883e-05 4.9281139476728983e-04 0.0000000000000000e+00  8.5704609759496009e-06 1.2022047946093049e-03 0.0000000000000000e+00  -2.2524301993417147e-05 2.6549134828908347e-04 0.0000000000000000e+00  -3.0312942782781474e-05 5.9415765271546739e-04 0.0000000000000000e+00  8.8490668199915831e-06 1.0880535143220757e-03 0.0000000000000000e+00  8.0366235477477296e-06 1.4320216261144809e-03 0.0000000000000000e+00  -3.6381502073372741e-05 6.9904587484268487e-04 0.0000000000000000e+00  9.1270762945320316e-06 9.7486053842778687e-04 0.0000000000000000e+00  -1.1112770347743399e-06 1.4891068840676945e-06 0.0000000000000000e+00  8.0360958678065454e-07 7.4044955149991609e-07 0.0000000000000000e+00  -3.4166218443268551e-05 2.1678808315315746e-03 0.0000000000000000e+00  -7.2857380240747509e-06 1.5401455496275660e-05 0.0000000000000000e+00  1.4418805918727044e-05 8.7549496909473750e-04 0.0000000000000000e