<?xml version="1.0"?>
<VTKFile type="UnstructuredGrid"  version="0.1"  >
<UnstructuredGrid>
<Piece  NumberOfPoints="1419" NumberOfCells="2698">
<Points>
<DataArray  type="Float64"  NumberOfComponents="3"  format="ascii">0 0 0  0 0.41 0  2.5 0 0  2.5 0.41 0  0.6 0.19 0  0.6 0.21 0  0.25 0.2 0  0.15 0.2 0  0.2489897948556636 0.21 0  0.2489897948556636 0.19 0  0.6 0.2 0  0 0.3807142857143437 0  0 0.3514285714286952 0  0 0.3221428571430699 0  0 0.29285714285744 0  0 0.2635714285718054 0  0 0.2342857142861561 0  0 0.2050000000005308 0  0 0.175714285714732 0  0 0.1464285714289574 0  0 0.1171428571431897 0  0 0.08785714285737878 0  0 0.05857142857161107 0  0 0.02928571428580012 0  0.03015443760436003 0 0  0.06140001986583606 0 0  0.09377624077125973 0 0  0.1273239957535082 0 0  0.1620856860351972 0 0  0.1981052433264291 0 0  0.235428184091502 0 0  0.2741016576309132 0 0  0.3141745521465447 0 0  0.3556974926295285 0 0  0.3987229542472677 0 0  0.4433053055141081 0 0  0.4895008759286886 0 0  0.5373680609405097 0 0  0.5869673343216626 0 0  0.6383613676634521 0 0  0.6916151138468254 0 0  0.7467958595648856 0 0  0.8039733463919316 0 0  0.8632198139502143 0 0  0.9246101326867038 0 0  0.9882218810934433 0 0  1.054135445558498 0 0  1.122434100542598 0 0  1.193204177141305 0 0  1.266535089879536 0 0  1.342519516046404 0 0  1.421253448503939 0 0  1.502836389106271 0 0  1.587371439758838 0 0  1.674965418777374 0 0  1.765729001825544 0 0  1.859776908880082 0 0  1.957227977487062 0 0  2.058205329869943 0 0  2.162836591189951 0 0  2.271253957290865 0 0  2.383594446803425 0 0  2.5 0.1024999999997612 0  2.5 0.2049999999994743 0  2.5 0.3074999999997183 0  2.383594446803656 0.41 0  2.271253957291315 0.41 0  2.162836591190598 0.41 0  2.058205329870775 0.41 0  1.957227977488067 0.41 0  1.859776908881246 0.41 0  1.765729001826854 0.41 0  1.674965418778818 0.41 0  1.58737143976041 0.41 0  1.502836389107956 0.41 0  1.421253448505726 0.41 0  1.342519516048286 0.41 0  1.266535089881505 0.41 0  1.193204177143353 0.41 0  1.122434100544716 0.41 0  1.05413544556068 0.41 0  0.9882218810956305 0.41 0  0.9246101326886647 0.41 0  0.8632198139519631 0.41 0  0.8039733463934788 0.41 0  0.7467958595662458 0.41 0  0.6916151138480078 0.41 0  0.6383613676644679 0.41 0  0.5869673343225223 0.41 0  0.5373680609412221 0.41 0  0.4895008759292634 0.41 0  0.4433053055145528 0.41 0  0.3987229542475914 0.41 0  0.3556974926297398 0.41 0  0.3141745521466497 0.41 0  0.2741016576310038 0.41 0  0.2354281840915826 0.41 0  0.1981052433265003 0.41 0  0.1620856860352591 0.41 0  0.1273239957535623 0.41 0  0.09377624077128965 0.41 0  0.06140001986584975 0.41 0  0.03015443760436654 0.41 0  0.2497468076502589 0.2050254481002335 0  0.2497468076502614 0.1949745518997913 0  0.2469965252529372 0.1829317073451959 0  0.2439893735792749 0.1762316384219906 0  0.2400332147834255 0.1700443375285386 0  0.2352133972704371 0.1645032867342007 0  0.2296339016332438 0.1597280261969788 0  0.2234150974217223 0.1558215752574715 0  0.2166911463437691 0.1528682099456123 0  0.2096071079204251 0.1509316448471593 0  0.2023158100364996 0.1500536585536553 0  0.194974551899914 0.1502531923497262 0  0.1877417105387872 0.1515259415822739 0  0.1807733240461124 0.153844448527136 0  0.1742197252835808 0.15715869474974 0  0.1682222986673531 0.1613971801805478 0  0.162910430003803 0.1664684656256651 0  0.1583987151779087 0.1722631454351573 0  0.1547844879126891 0.178656207771761 0  0.1521457199348551 0.1855097315605723 0  0.1505393388476355 0.1926758619366523 0  0.1505393388476328 0.2073241380633295 0  0.1521457199348437 0.2144902684393899 0  0.1547844879126531 0.221343792228163 0  0.1583987151778488 0.2277368545647528 0  0.1629104300036858 0.2335315343742052 0  0.1682222986671726 0.2386028198193036 0  0.1742197252833576 0.2428413052501257 0  0.1807733240458683 0.2461555514727623 0  0.1877417105384929 0.2484740584176516 0  0.1949745518995776 0.2497468076502398 0  0.202315810036185 0.2499463414463592 0  0.2096071079201568 0.2490683551528932 0  0.2166911463435495 0.2471317900544655 0  0.2234150974215506 0.2441784247426195 0  0.2296339016331197 0.2402719738031125 0  0.2352133972703547 0.2354967132658811 0  0.2400332147833751 0.2299556624715287 0  0.2439893735792577 0.2237683615780412 0  0.246996525252926 0.2170682926548348 0  0.25645809709277 0.21 0  0.2639263993298655 0.21 0  0.271394701566961 0.21 0  0.2788630038040554 0.21 0  0.2863313060411479 0.21 0  0.2937996082782405 0.21 0  0.301267910515333 0.21 0  0.3087362127524279 0.21 0  0.3162045149895234 0.21 0  0.3236728172265972 0.21 0  0.3311411194636928 0.21 0  0.3386094217007701 0.21 0  0.3460777239378666 0.21 0  0.3535460261749672 0.21 0  0.3610143284120516 0.21 0  0.3684826306491596 0.21 0  0.3759509328862226 0.21 0  0.383419235123329 0.21 0  0.3908875373604028 0.21 0  0.3983558395975142 0.21 0  0.4058241418345938 0.21 0  0.4132924440716992 0.21 0  0.4207607463087888 0.21 0  0.4282290485459029 0.21 0  0.4356973507830418 0.21 0  0.4431656530201649 0.21 0  0.4506339552573136 0.21 0  0.4581022574944306 0.21 0  0.4655705597315852 0.21 0  0.4730388619686996 0.21 0  0.480507164205851 0.21 0  0.4879754664429498 0.21 0  0.4954437686800938 0.21 0  0.502912070917267 0.21 0  0.5103803731544119 0.21 0  0.5178486753915261 0.21 0  0.5253169776286404 0.21 0  0.5327852798657868 0.21 0  0.5402535821029386 0.21 0  0.54772188434007 0.21 0  0.5551901865771842 0.21 0  0.5626584888143201 0.21 0  0.5701267910514778 0.21 0  0.5775950932886138 0.21 0  0.5850633955257281 0.21 0  0.5925316977628483 0.21 0  0.6 0.2050000000000054 0  0.6 0.1950000000000217 0  0.5925316977628897 0.19 0  0.5850633955257988 0.19 0  0.5775950932887378 0.19 0  0.5701267910515998 0.19 0  0.5626584888145268 0.19 0  0.5551901865773963 0.19 0  0.547721884340339 0.19 0  0.5402535821032429 0.19 0  0.5327852798661811 0.19 0  0.5253169776290537 0.19 0  0.5178486753919799 0.19 0  0.5103803731549078 0.19 0  0.502912070917822 0.19 0  0.4954437686807294 0.19 0  0.4879754664436223 0.19 0  0.4805071642065402 0.19 0  0.4730388619694271 0.19 0  0.4655705597323621 0.19 0  0.4581022574952563 0.19 0  0.4506339552581777 0.19 0  0.4431656530210671 0.19 0  0.4356973507839815 0.19 0  0.4282290485468779 0.19 0  0.4207607463097617 0.19 0  0.4132924440726327 0.19 0  0.4058241418354857 0.19 0  0.3983558395983636 0.19 0  0.3908875373612097 0.19 0  0.3834192351240934 0.19 0  0.3759509328869369 0.19 0  0.3684826306498175 0.19 0  0.361014328412667 0.19 0  0.3535460261755617 0.19 0  0.3460777239384295 0.19 0  0.3386094217012945 0.19 0  0.3311411194641595 0.19 0  0.3236728172270245 0.19 0  0.3162045149898895 0.19 0  0.3087362127527544 0.19 0  0.3012679105156187 0.19 0  0.2937996082784807 0.19 0  0.2863313060413428 0.19 0  0.2788630038042048 0.19 0  0.2713947015670686 0.19 0  0.2639263993299336 0.19 0  0.2564580970927985 0.19 0  0.2607803159922026 0.2000727136295815 0  0.5887803774232762 0.2001272386983733 0  0.5745072403740523 0.2002044435018727 0  0.5511891430099709 0.2001122610077113 0  0.2751288526855082 0.20000000000002 0  0.5365194309847112 0.1999999999999436 0  0.2894621222999649 0.1998691686390484 0  0.5215828265105155 0.1999999999999228 0  0.3127789816668748 0.1998657885438805 0  0.3274069683451451 0.2000000000000796 0  0.5066462220363641 0.199999999999908 0  0.3650630746574081 0.199866017807523 0  0.476773013087985 0.1999999999998713 0  0.3417402379596385 0.1998691686391011 0  0.3796850840047755 0.200000000000134 0  0.4618364086138087 0.1999999999998546 0  0.4917096175621762 0.1999999999998808 0  0.3946216884789568 0.2000000000001512 0  0.446899804139621 0.1999999999998389 0  0.4089549580935208 0.1998691686391595 0  0.4322718174608562 0.200127451265745 0  0.4201487168029707 0.1999966199048527 0  0.3528922713220932 0.2000185703532356 0  0.5633122436674589 0.1999814296467508 0  0.3006558810093873 0.1999966199048318 0  0.5815926498168407 0.1966545283159175 0  0.2677053789419034 0.1964246479135325 0  0.5290511287476175 0.1970915826863981 0  0.5439877332217911 0.197091582686394 0  0.2825131256993216 0.2035478995978015 0  0.3199386661080599 0.202908417313604 0  0.4842413153250809 0.1970915826863873 0  0.5141145242734466 0.1970915826863843 0  0.3722167817676917 0.2029084173136195 0  0.4693047108508938 0.1970915826863783 0  0.3348752705822316 0.202908417313609 0  0.3871533862418661 0.2029084173136212 0  0.4543681063767183 0.1970915826863795 0  0.4991779197992749 0.1970915826863902 0  0.4020059614928624 0.203547899597858 0  0.4394315019025246 0.1970915826863714 0  0.2550657455369551 0.2034088125358657 0  0.2548908499171161 0.1966940311614271 0  0.5946539510196798 0.2024302972968126 0  0.267698176732111 0.2039977513680092 0  0.4261685417851465 0.196409292431739 0  0.3590076176283495 0.196411355804271 0  0.5571672426447437 0.2036011176410121 0  0.3066757059912147 0.1964092924317024 0  0.594380730180568 0.1966558399668133 0  0.4842413153245942 0.2040749161535287 0  0.4693047108503577 0.2040749161535231 0  0.3871533862424271 0.1959250838464788 0  0.372246743208829 0.1959123236376545 0  0.5141145242731028 0.2040749161535395 0  0.4543681063761134 0.2040749161535186 0  0.4019979587101454 0.1959834479682427 0  0.4394608940728603 0.2040870543693135 0  0.5439623148931173 0.2040856076781014 0  0.5290511287473298 0.2040749161535501 0  0.4991779197988497 0.2040749161535382 0  0.3347912413592433 0.1959225448935183 0  0.3199680582793816 0.1959123018030061 0  0.2825051229162361 0.1959834479681729 0  0.3590471196690275 0.2036304442587945 0  0.5571594006495384 0.1963685282145804 0  0.3067669986803285 0.203627750582736 0  0.4262598344738712 0.2036568242185335 0  0.5814408164431408 0.2041285596160068 0  0.5688286748170428 0.1961819304477386 0  0.4145905603063645 0.2038180695522843 0  0.3473758401724931 0.2038180695522752 0  0.2950977245128307 0.2038180695522663 0  0.5688286748170693 0.203818069552238 0  0.2950977245127906 0.1961819304477774 0  0.3473758401723931 0.1961819304478349 0  0.4145905603061963 0.1961819304479011 0  0.2601812407614425 0.2056861609747042
[...]
<PointData  Vectors="f_40-1"> 
<DataArray  type="Float64"  Name="f_40-1"  NumberOfComponents="3" format="ascii">0.0000000000000000e+00 0.0000000000000000e+00 0.0000000000000000e+00  0.0000000000000000e+00 0.0000000000000000e+00 0.0000000000000000e+00  0.0000000000000000e+00 0.0000000000000000e+00 0.0000000000000000e+00  0.0000000000000000e+00 0.0000000000000000e+00 0.0000000000000000e+00  6.1674572824719901e-05 2.2092064398578646e-03 0.0000000000000000e+00  -9.2495210261544274e-05 2.2090163060972446e-03 0.0000000000000000e+00  0.0000000000000000e+00 0.0000000000000000e+00 0.0000000000000000e+00  0.0000000000000000e+00 0.0000000000000000e+00 0.0000000000000000e+00  0.0000000000000000e+00 0.0000000000000000e+00 0.0000000000000000e+00  0.0000000000000000e+00 0.0000000000000000e+00 0.0000000000000000e+00  -1.5481795440918817e-05 2.2091037884255211e-03 0.0000000000000000e+00  0.0000000000000000e+00 0.0000000000000000e+00 0.0000000000000000e+00  0.0000000000000000e+00 0.0000000000000000e+00 0.0000000000000000e+00  0.0000000000000000e+00 0.0000000000000000e+00 0.0000000000000000e+00  0.0000000000000000e+00 0.0000000000000000e+00 0.0000000000000000e+00  0.0000000000000000e+00 0.0000000000000000e+00 0.0000000000000000e+00  0.0000000000000000e+00 0.0000000000000000e+00 0.0000000000000000e+00  0.0000000000000000e+00 0.0000000000000000e+00 0.0000000000000000e+00  0.0000000000000000e+00 0.0000000000000000e+00 0.0000000000000000e+00  0.0000000000000000e+00 0.0000000000000000e+00 0.0000000000000000e+00  0.0000000000000000e+00 0.0000000000000000e+00 0.0000000000000000e+00  0.0000000000000000e+00 0.0000000000000000e+00 0.0000000000000000e+00  0.0000000000000000e+00 0.0000000000000000e+00 0.0000000000000000e+00  0.0000000000000000e+00 0.0000000000000000e+00 0.0000000000000000e+00  0.0000000000000000e+00 0.0000000000000000e+00 0.0000000000000000e+00  0.0000000000000000e+00 0.0000000000000000e+00 0.0000000000000000e+00  0.0000000000000000e+00 0.0000000000000000e+00 0.0000000000000000e+00  0.0000000000000000e+00 0.0000000000000000e+00 0.0000000000000000e+00  0.0000000000000000e+00 0.0000000000000000e+00 0.0000000000000000e+00  0.0000000000000000e+00 0.0000000000000000e+00 0.0000000000000000e+00  0.0000000000000000e+00 0.0000000000000000e+00 0.0000000000000000e+00  0.0000000000000000e+00 0.0000000000000000e+00 0.0000000000000000e+00  0.0000000000000000e+00 0.0000000000000000e+00 0.0000000000000000e+00  0.0000000000000000e+00 0.0000000000000000e+00 0.0000000000000000e+00  0.0000000000000000e+00 0.0000000000000000e+00 0.0000000000000000e+00  0.0000000000000000e+00 0.0000000000000000e+00 0.0000000000000000e+00  0.0000000000000000e+00 0.0000000000000000e+00 0.0000000000000000e+00  0.0000000000000000e+00 0.0000000000000000e+00 0.0000000000000000e+00  0.0000000000000000e+00 0.0000000000000000e+00 0.0000000000000000e+00  0.0000000000000000e+00 0.0000000000000000e+00 0.0000000000000000e+00  0.0000000000000000e+00 0.0000000000000000e+00 0.0000000000000000e+00  0.0000000000000000e+00 0.0000000000000000e+00 0.0000000000000000e+00  0.0000000000000000e+00 0.0000000000000000e+00 0.0000000000000000e+00  0.0000000000000000e+00 0.0000000000000000e+00 0.0000000000000000e+00  0.0000000000000000e+00 0.0000000000000000e+00 0.0000000000000000e+00  0.0000000000000000e+00 0.0000000000000000e+00 0.0000000000000000e+00  0.0000000000000000e+00 0.0000000000000000e+00 0.0000000000000000e+00  0.0000000000000000e+00 0.0000000000000000e+00 0.0000000000000000e+00  0.0000000000000000e+00 0.0000000000000000e+00 0.0000000000000000e+00  0.0000000000000000e+00 0.0000000000000000e+00 0.0000000000000000e+00  0.0000000000000000e+00 0.0000000000000000e+00 0.0000000000000000e+00  0.0000000000000000e+00 0.0000000000000000e+00 0.0000000000000000e+00  0.0000000000000000e+00 0.0000000000000000e+00 0.0000000000000000e+00  0.0000000000000000e+00 0.0000000000000000e+00 0.0000000000000000e+00  0.0000000000000000e+00 0.0000000000000000e+00 0.0000000000000000e+00  0.0000000000000000e+00 0.0000000000000000e+00 0.0000000000000000e+00  0.0000000000000000e+00 0.0000000000000000e+00 0.0000000000000000e+00  0.0000000000000000e+00 0.0000000000000000e+00 0.0000000000000000e+00  0.0000000000000000e+00 0.0000000000000000e+00 0.0000000000000000e+00  0.0000000000000000e+00 0.0000000000000000e+00 0.0000000000000000e+00  0.0000000000000000e+00 0.0000000000000000e+00 0.0000000000000000e+00  0.0000000000000000e+00 0.0000000000000000e+00 0.0000000000000000e+00  0.0000000000000000e+00 0.0000000000000000e+00 0.0000000000000000e+00  0.0000000000000000e+00 0.0000000000000000e+00 0.0000000000000000e+00  0.0000000000000000e+00 0.0000000000000000e+00 0.0000000000000000e+00  0.0000000000000000e+00 0.0000000000000000e+00 0.0000000000000000e+00  0.0000000000000000e+00 0.0000000000000000e+00 0.0000000000000000e+00  0.0000000000000000e+00 0.0000000000000000e+00 0.0000000000000000e+00  0.0000000000000000e+00 0.0000000000000000e+00 0.0000000000000000e+00  0.0000000000000000e+00 0.0000000000000000e+00 0.0000000000000000e+00  0.0000000000000000e+00 0.0000000000000000e+00 0.0000000000000000e+00  0.0000000000000000e+00 0.0000000000000000e+00 0.0000000000000000e+00  0.0000000000000000e+00 0.0000000000000000e+00 0.0000000000000000e+00  0.0000000000000000e+00 0.0000000000000000e+00 0.0000000000000000e+00  0.0000000000000000e+00 0.0000000000000000e+00 0.0000000000000000e+00  0.0000000000000000e+00 0.0000000000000000e+00 0.0000000000000000e+00  0.0000000000000000e+00 0.0000000000000000e+00 0.0000000000000000e+00  0.0000000000000000e+00 0.0000000000000000e+00 0.0000000000000000e+00  0.0000000000000000e+00 0.0000000000000000e+00 0.0000000000000000e+00  0.0000000000000000e+00 0.0000000000000000e+00 0.0000000000000000e+00  0.0000000000000000e+00 0.0000000000000000e+00 0.0000000000000000e+00  0.0000000000000000e+00 0.0000000000000000e+00 0.0000000000000000e+00  0.0000000000000000e+00 0.0000000000000000e+00 0.0000000000000000e+00  0.0000000000000000e+00 0.0000000000000000e+00 0.0000000000000000e+00  0.0000000000000000e+00 0.0000000000000000e+00 0.0000000000000000e+00  0.0000000000000000e+00 0.0000000000000000e+00 0.0000000000000000e+00  0.0000000000000000e+00 0.0000000000000000e+00 0.0000000000000000e+00  0.0000000000000000e+00 0.0000000000000000e+00 0.0000000000000000e+00  0.0000000000000000e+00 0.0000000000000000e+00 0.0000000000000000e+00  0.0000000000000000e+00 0.0000000000000000e+00 0.0000000000000000e+00  0.0000000000000000e+00 0.0000000000000000e+00 0.0000000000000000e+00  0.0000000000000000e+00 0.0000000000000000e+00 0.0000000000000000e+00  0.0000000000000000e+00 0.0000000000000000e+00 0.0000000000000000e+00  0.0000000000000000e+00 0.0000000000000000e+00 0.0000000000000000e+00  0.0000000000000000e+00 0.0000000000000000e+00 0.0000000000000000e+00  0.0000000000000000e+00 0.0000000000000000e+00 0.0000000000000000e+00  0.0000000000000000e+00 0.0000000000000000e+00 0.0000000000000000e+00  0.0000000000000000e+00 0.0000000000000000e+00 0.0000000000000000e+00  0.0000000000000000e+00 0.0000000000000000e+00 0.0000000000000000e+00  0.0000000000000000e+00 0.0000000000000000e+00 0.0000000000000000e+00  0.0000000000000000e+00 0.0000000000000000e+00 0.0000000000000000e+00  0.0000000000000000e+00 0.0000000000000000e+00 0.0000000000000000e+00  0.0000000000000000e+00 0.0000000000000000e+00 0.0000000000000000e+00  0.0000000000000000e+00 0.0000000000000000e+00 0.0000000000000000e+00  0.0000000000000000e+00 0.0000000000000000e+00 0.0000000000000000e+00  0.0000000000000000e+00 0.0000000000000000e+00 0.0000000000000000e+00  0.0000000000000000e+00 0.0000000000000000e+00 0.0000000000000000e+00  0.0000000000000000e+00 0.0000000000000000e+00 0.0000000000000000e+00  0.0000000000000000e+00 0.0000000000000000e+00 0.0000000000000000e+00  0.0000000000000000e+00 0.0000000000000000e+00 0.0000000000000000e+00  0.0000000000000000e+00 0.0000000000000000e+00 0.0000000000000000e+00  0.0000000000000000e+00 0.0000000000000000e+00 0.0000000000000000e+00  0.0000000000000000e+00 0.0000000000000000e+00 0.0000000000000000e+00  0.0000000000000000e+00 0.0000000000000000e+00 0.0000000000000000e+00  0.0000000000000000e+00 0.0000000000000000e+00 0.0000000000000000e+00  0.0000000000000000e+00 0.0000000000000000e+00 0.0000000000000000e+00  0.0000000000000000e+00 0.0000000000000000e+00 0.0000000000000000e+00  0.0000000000000000e+00 0.0000000000000000e+00 0.0000000000000000e+00  0.0000000000000000e+00 0.0000000000000000e+00 0.0000000000000000e+00  0.0000000000000000e+00 0.0000000000000000e+00 0.0000000000000000e+00  0.0000000000000000e+00 0.0000000000000000e+00 0.0000000000000000e+00  0.0000000000000000e+00 0.0000000000000000e+00 0.0000000000000000e+00  0.0000000000000000e+00 0.0000000000000000e+00 0.0000000000000000e+00  0.0000000000000000e+00 0.0000000000000000e+00 0.0000000000000000e+00  0.0000000000000000e+00 0.0000000000000000e+00 0.0000000000000000e+00  0.0000000000000000e+00 0.0000000000000000e+00 0.0000000000000000e+00  0.0000000000000000e+00 0.0000000000000000e+00 0.0000000000000000e+00  0.0000000000000000e+00 0.0000000000000000e+00 0.0000000000000000e+00  0.0000000000000000e+00 0.0000000000000000e+00 0.0000000000000000e+00  0.0000000000000000e+00 0.0000000000000000e+00 0.0000000000000000e+00  0.0000000000000000e+00 0.0000000000000000e+00 0.0000000000000000e+00  0.0000000000000000e+00 0.0000000000000000e+00 0.0000000000000000e+00  0.0000000000000000e+00 0.0000000000000000e+00 0.0000000000000000e+00  0.0000000000000000e+00 0.0000000000000000e+00 0.0000000000000000e+00  0.0000000000000000e+00 0.0000000000000000e+00 0.0000000000000000e+00  0.0000000000000000e+00 0.0000000000000000e+00 0.0000000000000000e+00  0.0000000000000000e+00 0.0000000000000000e+00 0.0000000000000000e+00  0.0000000000000000e+00 0.0000000000000000e+00 0.0000000000000000e+00  0.0000000000000000e+00 0.0000000000000000e+00 0.0000000000000000e+00  0.0000000000000000e+00 0.0000000000000000e+00 0.0000000000000000e+00  0.0000000000000000e+00 0.0000000000000000e+00 0.0000000000000000e+00  0.0000000000000000e+00 0.0000000000000000e+00 0.0000000000000000e+00  0.0000000000000000e+00 0.0000000000000000e+00 0.0000000000000000e+00  -6.2695274799976499e-06 6.1634877293709007e-06 0.0000000000000000e+00  -1.3259273599190956e-05 1.3354693806386242e-05 0.0000000000000000e+00  -1.9396893512479776e-05 2.4806080227946159e-05 0.0000000000000000e+00  -2.5898869698622128e-05 4.0779029745562625e-05 0.0000000000000000e+00  -3.1278236748570151e-05 6.0408204833939092e-05 0.0000000000000000e+00  -3.7178375721512579e-05 8.4027895896651787e-05 0.0000000000000000e+00  -4.1883690845979787e-05 1.1050772007205658e-04 0.0000000000000000e+00  -4.6327436017733900e-05 1.4067507825096828e-04 0.0000000000000000e+00  -5.1255607778470506e-05 1.7356426669481811e-04 0.0000000000000000e+00  -5.4956633471158376e-05 2.0919073095226141e-04 0.0000000000000000e+00  -5.9264929778137722e-05 2.4747047373111972e-04 0.0000000000000000e+00  -6.2451146045459460e-05 2.8804948035790880e-04 0.0000000000000000e+00  -6.6014824467167533e-05 3.3081451138126223e-04 0.0000000000000000e+00  -6.8791375719720187e-05 3.7526824804757478e-04 0.0000000000000000e+00  -7.1357940049195795e-05 4.2172362827788923e-04 0.0000000000000000e+00  -7.4109124767510537e-05 4.6962161903369001e-04 0.0000000000000000e+00  -7.6142940419620205e-05 5.1890683159213833e-04 0.0000000000000000e+00  -7.8397164010597775e-05 5.6951586082541717e-04 0.0000000000000000e+00  -8.0039748082297332e-05 6.2117295804939938e-04 0.0000000000000000e+00  -8.1816652827622043e-05 6.7381535097730194e-04 0.0000000000000000e+00  -8.3179548218732886e-05 7.2728353183402572e-04 0.0000000000000000e+00  -8.4547086248679167e-05 7.8153141842403286e-04 0.0000000000000000e+00  -8.5618421942065223e-05 8.3629495183996168e-04 0.0000000000000000e+00  -8.6565469542520325e-05 8.9168281751628208e-04 0.0000000000000000e+00  -8.7516250407639523e-05 9.4746815988375091e-04 0.0000000000000000e+00  -8.8259964953314284e-05 1.0036620879829109e-03 0.0000000000000000e+00  -8.8937928611557352e-05 1.0602113655647032e-03 0.0000000000000000e+00  -8.9497730341148710e-05 1.1169875376332539e-03 0.0000000000000000e+00  -8.9995620073079777e-05 1.1740202840603647e-03 0.0000000000000000e+00  -9.0404171324711549e-05 1.2311957562936506e-03 0.0000000000000000e+00  -9.0758912256302794e-05 1.2885344488453507e-03 0.0000000000000000e+00  -9.1045546114915056e-05 1.3459449517810097e-03 0.0000000000000000e+00  -9.1288756586955925e-05 1.4034463873099927e-03 0.0000000000000000e+00  -9.1480933497567140e-05 1.4609686606108009e-03 0.0000000000000000e+00  -9.1637221932951946e-05 1.5185334313403617e-03 0.0000000000000000e+00  -9.1763515879870677e-05 1.5760930532770997e-03 0.0000000000000000e+00  -9.1866425051261391e-05 1.6336617291674369e-03 0.0000000000000000e+00  -9.1952800265221091e-05 1.6912153779205566e-03 0.0000000000000000e+00  -9.2024673059384158e-05 1.7487634856710361e-03 0.0000000000000000e+00  -9.2090724625941114e-05 1.8062985976722919e-03 0.0000000000000000e+00  -9.2151388927614431e-05 1.8638240886771364e-03 0.0000000000000000e+00  -9.2213409872276222e-05 1.9213442604177806e-03 0.0000000000000000e+00  -9.2272123230879602e-05 1.9788654523391520e-03 0.0000000000000000e+00  -9.2333541194397468e-05 2.0363899067035989e-03 0.0000000000000000e+00  -9.2396999008182779e-05 2.0939270624157832e-03 0.0000000000000000e+00  -9.2455092319410426e-05 2.1514729918773955e-03 0.0000000000000000e+00  -5.4005500324725723e-05 2.2090596422826791e-03 0.0000000000000000e+00  2.3070422710728123e-05 2.2091501165489823e-03 0.0000000000000000e+00  6.1693861363943124e-05 2.1516051371237525e-03 0.0000000000000000e+00  6.1736000165638844e-05 2.0940416319657549e-03 0.0000000000000000e+00  6.1786003703842715e-05 2.0364929438262177e-03 0.0000000000000000e+00  6.1838784874264743e-05 1.9789489418993184e-03 0.0000000000000000e+00  6.1897385925961714e-05 1.9214060926795655e-03 0.0000000000000000e+00  6.1968221671143315e-05 1.8638595465567780e-03 0.0000000000000000e+00  6.2046924219264158e-05 1.8063050858068543e-03 0.0000000000000000e+00  6.2133904561249753e-05 1.7487408467863827e-03 0.0000000000000000e+00  6.2228542558801314e-05 1.6911619768162328e-03 0.0000000000000000e+00  6.2327751224961660e-05 1.6335684750754824e-03 0.0000000000000000e+00  6.2428154944636568e-05 1.5759645020475309e-03 0.0000000000000000e+00  6.2532386741790628e-05 1.5183562677678463e-03 0.0000000000000000e+00  6.2624013052984680e-05 1.4607535359845649e-03 0.0000000000000000e+00  6.2718107195391484e-05 1.4031743637528083e-03 0.0000000000000000e+00  6.2775624879388408e-05 1.3456322887479739e-03 0.0000000000000000e+00  6.2839969805753742e-05 1.2881606915871070e-03 0.0000000000000000e+00  6.2836898101184817e-05 1.2307781691747253e-03 0.0000000000000000e+00  6.2851433847362751e-05 1.1735329326153674e-03 0.0000000000000000e+00  6.2760637675639562e-05 1.1164506837050994e-03 0.0000000000000000e+00  6.2704534071012852e-05 1.0595936822663872e-03 0.0000000000000000e+00  6.2491017581721718e-05 1.0029926696564187e-03 0.0000000000000000e+00  6.2334461242033326e-05 9.4672706753543164e-04 0.0000000000000000e+00  6.1969177569999926e-05 8.9084574395871714e-04 0.0000000000000000e+00  6.1647631842951591e-05 8.3538249287679837e-04 0.0000000000000000e+00  6.1253978370156393e-05 7.8054513097857716e-04 0.0000000000000000e+00  6.0611207694147192e-05 7.2619530253780114e-04 0.0000000000000000e+00  5.9962835493882750e-05 6.7266392614126339e-04 0.0000000000000000e+00  5.9074459626158250e-05 6.1990082988232296e-04 0.0000000000000000e+00  5.8139082340291798e-05 5.6816631506290550e-04 0.0000000000000000e+00  5.6924246476083459e-05 5.1746724726826269e-04 0.0000000000000000e+00  5.5655261176333356e-05 4.6802229719972540e-04 0.0000000000000000e+00  5.3883627944625557e-05 4.2012426831667250e-04 0.0000000000000000e+00  5.2301740198175708e-05 3.7354538040439996e-04 0.0000000000000000e+00  5.0544065701241251e-05 3.2902434865340278e-04 0.0000000000000000e+00  4.8132925092459944e-05 2.8601616016767084e-04 0.0000000000000000e+00  4.5779111992320789e-05 2.4540993424796283e-04 0.0000000000000000e+00  4.2937709608533323e-05 2.0701127878585269e-04 0.0000000000000000e+00  4.0103298577544801e-05 1.7116152294958175e-04 0.0000000000000000e+00  3.6431206907693152e-05 1.3833374331698590e-04 0.0000000000000000e+00  3.3210646174123529e-05 1.0801369890109319e-04 0.0000000000000000e+00  2.9781120947852548e-05 8.1441467789104743e-05 0.0000000000000000e+00  2.5264024619112566e-05 5.7616767245005876e-05 0.0000000000000000e+00  2.1069414497351682e-05 3.7812075786541630e-05 0.0000000000000000e+00  1.5866467373888916e-05 2.1964397251326901e-05 0.0000000000000000e+00  1.1134036977451661e-05 1.0432541739603079e-05 0.0000000000000000e+00  5.2907331801398075e-06 3.3527087649859164e-06 0.0000000000000000e+00  -6.0418843033851294e-07 5.1500502498639460e-06 0.0000000000000000e+00  -1.6368032231393722e-05 2.1226251951727950e-03 0.0000000000000000e+00  -1.6846430400978696e-05 2.0126498645309551e-03 0.0000000000000000e+00  -1.5936544651649236e-05 1.8330200198973139e-03 0.0000000000000000e+00  -2.0081476220585190e-06 2.8145811200674940e-05 0.0000000000000000e+00  -1.4918906896254315e-05 1.7199755892022674e-03 0.0000000000000000e+00  -2.9152408306407861e-06 6.6048978793603041e-05 0.0000000000000000e+00  -1.4731201015528834e-05 1.6048201855763658e-03 0.0000000000000000e+00  -4.6449731295219839e-06 1.5501367766335633e-04 0.0000000000000000e+00  -6.3635341414959355e-06 2.2538507136366813e-04 0.0000000000000000e+00  -1.4499953662591052e-05 1.4896342008295740e-03 0.0000000000000000e+00  -8.1167009410534500e-06 4.4569479609420272e-04 0.0000000000000000e+00  -1.3875138044466156e-05 1.2595698059740012e-03 0.0000000000000000e+00  -6.6764820003743634e-06 3.0334477929914923e-04 0.0000000000000000e+00  -9.8655773542764341e-06 5.4259098934497912e-04 0.0000000000000000e+00  -1.3470974311677422e-05 1.1450886580679682e-03 0.0000000000000000e+00  -1.4216505982480926e-05 1.3744983057832690e-03 0.0000000000000000e+00  -1.0704403886085583e-05 6.4616412997292236e-04 0.0000000000000000e+00  -1.2994614794184126e-05 1.0313770495586066e-03 0.0000000000000000e+00  -1.0489309393595049e-05 7.4892612574549802e-04 0.0000000000000000e+00  -1.3408619736978220e-05 9.2114987001057033e-04 0.0000000000000000e+00  -1.1921826991817910e-05 8.3104597287678562e-04 0.0000000000000000e+00  -8.2866840491067921e-06 3.6957590771327648e-04 0.0000000000000000e+00  -1.5038758251554483e-05 1.9264118839199542e-03 0.0000000000000000e+00  -4.2137558978971856e-06 1.0538802771521309e-04 0.0000000000000000e+00  1.0455454659915942e-05 2.0672564407973873e-03 0.0000000000000000e+00  4.0692856732476345e-06 1.4224811406872730e-05 0.0000000000000000e+00  7.5933433376256861e-06 1.6623939212257962e-03 0.0000000000000000e+00  7.4183597143728726e-06 1.7775310550150879e-03 0.0000000000000000e+00  -1.1748036459033895e-05 4.6872688239334638e-05 0.0000000000000000e+00  -1.9576076107361980e-05 1.8875788814021942e-04 0.0000000000000000e+00  8.2967800583789678e-06 1.3169547042152178e-03 0.0000000000000000e+00  7.7996630235748273e-06 1.5472072087215191e-03 0.0000000000000000e+00  -2.8531369906766657e-05 4.9281135455117857e-04 0.0000000000000000e+00  8.5704418305422735e-06 1.2022046919225845e-03 0.0000000000000000e+00  -2.2524307637669736e-05 2.6549132685838961e-04 0.0000000000000000e+00  -3.0312951990209286e-05 5.9415760392092607e-04 0.0000000000000000e+00  8.8490488307700120e-06 1.0880534221892006e-03 0.0000000000000000e+00  8.0366021181707395e-06 1.4320215017491734e-03 0.0000000000000000e+00  -3.6381511918698339e-05 6.9904581698084325e-04 0.0000000000000000e+00  9.1270594711822776e-06 9.7486045660406155e-04 0.0000000000000000e+00  -1.1112775961291538e-06 1.4891066243191637e-06 0.0000000000000000e+00  8.0360889345815672e-07 7.4044962119213793e-07 0.0000000000000000e+00  -3.4166242984449562e-05 2.1678806350868417e-03 0.0000000000000000e+00  -7.2857392033717894e-06 1.5401453998902529e-05 0.0000000000000000e+00  1.4418789690363949e-05 8.7549489623312644e-04 0.0000000000000000e