<?xml version="1.0"?>
<VTKFile type="UnstructuredGrid"  version="0.1"  >
<UnstructuredGrid>
<Piece  NumberOfPoints="1419" NumberOfCells="2698">
<Points>
<DataArray  type="Float64"  NumberOfComponents="3"  format="ascii">0 0 0  0 0.41 0  2.5 0 0  2.5 0.41 0  0.6 0.19 0  0.6 0.21 0  0.25 0.2 0  0.15 0.2 0  0.2489897948556636 0.21 0  0.2489897948556636 0.19 0  0.6 0.2 0  0 0.3807142857143437 0  0 0.3514285714286952 0  0 0.3221428571430699 0  0 0.29285714285744 0  0 0.2635714285718054 0  0 0.2342857142861561 0  0 0.2050000000005308 0  0 0.175714285714732 0  0 0.1464285714289574 0  0 0.1171428571431897 0  0 0.08785714285737878 0  0 0.05857142857161107 0  0 0.02928571428580012 0  0.03015443760436003 0 0  0.06140001986583606 0 0  0.09377624077125973 0 0  0.1273239957535082 0 0  0.1620856860351972 0 0  0.1981052433264291 0 0  0.235428184091502 0 0  0.2741016576309132 0 0  0.3141745521465447 0 0  0.3556974926295285 0 0  0.3987229542472677 0 0  0.4433053055141081 0 0  0.4895008759286886 0 0  0.5373680609405097 0 0  0.5869673343216626 0 0  0.6383613676634521 0 0  0.6916151138468254 0 0  0.7467958595648856 0 0  0.8039733463919316 0 0  0.8632198139502143 0 0  0.9246101326867038 0 0  0.9882218810934433 0 0  1.054135445558498 0 0  1.122434100542598 0 0  1.193204177141305 0 0  1.266535089879536 0 0  1.342519516046404 0 0  1.421253448503939 0 0  1.502836389106271 0 0  1.587371439758838 0 0  1.674965418777374 0 0  1.765729001825544 0 0  1.859776908880082 0 0  1.957227977487062 0 0  2.058205329869943 0 0  2.162836591189951 0 0  2.271253957290865 0 0  2.383594446803425 0 0  2.5 0.1024999999997612 0  2.5 0.2049999999994743 0  2.5 0.3074999999997183 0  2.383594446803656 0.41 0  2.271253957291315 0.41 0  2.162836591190598 0.41 0  2.058205329870775 0.41 0  1.957227977488067 0.41 0  1.859776908881246 0.41 0  1.765729001826854 0.41 0  1.674965418778818 0.41 0  1.58737143976041 0.41 0  1.502836389107956 0.41 0  1.421253448505726 0.41 0  1.342519516048286 0.41 0  1.266535089881505 0.41 0  1.193204177143353 0.41 0  1.122434100544716 0.41 0  1.05413544556068 0.41 0  0.9882218810956305 0.41 0  0.9246101326886647 0.41 0  0.8632198139519631 0.41 0  0.8039733463934788 0.41 0  0.7467958595662458 0.41 0  0.6916151138480078 0.41 0  0.6383613676644679 0.41 0  0.5869673343225223 0.41 0  0.5373680609412221 0.41 0  0.4895008759292634 0.41 0  0.4433053055145528 0.41 0  0.3987229542475914 0.41 0  0.3556974926297398 0.41 0  0.3141745521466497 0.41 0  0.2741016576310038 0.41 0  0.2354281840915826 0.41 0  0.1981052433265003 0.41 0  0.1620856860352591 0.41 0  0.1273239957535623 0.41 0  0.09377624077128965 0.41 0  0.06140001986584975 0.41 0  0.03015443760436654 0.41 0  0.2497468076502589 0.2050254481002335 0  0.2497468076502614 0.1949745518997913 0  0.2469965252529372 0.1829317073451959 0  0.2439893735792749 0.1762316384219906 0  0.2400332147834255 0.1700443375285386 0  0.2352133972704371 0.1645032867342007 0  0.2296339016332438 0.1597280261969788 0  0.2234150974217223 0.1558215752574715 0  0.2166911463437691 0.1528682099456123 0  0.2096071079204251 0.1509316448471593 0  0.2023158100364996 0.1500536585536553 0  0.194974551899914 0.1502531923497262 0  0.1877417105387872 0.1515259415822739 0  0.1807733240461124 0.153844448527136 0  0.1742197252835808 0.15715869474974 0  0.1682222986673531 0.1613971801805478 0  0.162910430003803 0.1664684656256651 0  0.1583987151779087 0.1722631454351573 0  0.1547844879126891 0.178656207771761 0  0.1521457199348551 0.1855097315605723 0  0.1505393388476355 0.1926758619366523 0  0.1505393388476328 0.2073241380633295 0  0.1521457199348437 0.2144902684393899 0  0.1547844879126531 0.221343792228163 0  0.1583987151778488 0.2277368545647528 0  0.1629104300036858 0.2335315343742052 0  0.1682222986671726 0.2386028198193036 0  0.1742197252833576 0.2428413052501257 0  0.1807733240458683 0.2461555514727623 0  0.1877417105384929 0.2484740584176516 0  0.1949745518995776 0.2497468076502398 0  0.202315810036185 0.2499463414463592 0  0.2096071079201568 0.2490683551528932 0  0.2166911463435495 0.2471317900544655 0  0.2234150974215506 0.2441784247426195 0  0.2296339016331197 0.2402719738031125 0  0.2352133972703547 0.2354967132658811 0  0.2400332147833751 0.2299556624715287 0  0.2439893735792577 0.2237683615780412 0  0.246996525252926 0.2170682926548348 0  0.25645809709277 0.21 0  0.2639263993298655 0.21 0  0.271394701566961 0.21 0  0.2788630038040554 0.21 0  0.2863313060411479 0.21 0  0.2937996082782405 0.21 0  0.301267910515333 0.21 0  0.3087362127524279 0.21 0  0.3162045149895234 0.21 0  0.3236728172265972 0.21 0  0.3311411194636928 0.21 0  0.3386094217007701 0.21 0  0.3460777239378666 0.21 0  0.3535460261749672 0.21 0  0.3610143284120516 0.21 0  0.3684826306491596 0.21 0  0.3759509328862226 0.21 0  0.383419235123329 0.21 0  0.3908875373604028 0.21 0  0.3983558395975142 0.21 0  0.4058241418345938 0.21 0  0.4132924440716992 0.21 0  0.4207607463087888 0.21 0  0.4282290485459029 0.21 0  0.4356973507830418 0.21 0  0.4431656530201649 0.21 0  0.4506339552573136 0.21 0  0.4581022574944306 0.21 0  0.4655705597315852 0.21 0  0.4730388619686996 0.21 0  0.480507164205851 0.21 0  0.4879754664429498 0.21 0  0.4954437686800938 0.21 0  0.502912070917267 0.21 0  0.5103803731544119 0.21 0  0.5178486753915261 0.21 0  0.5253169776286404 0.21 0  0.5327852798657868 0.21 0  0.5402535821029386 0.21 0  0.54772188434007 0.21 0  0.5551901865771842 0.21 0  0.5626584888143201 0.21 0  0.5701267910514778 0.21 0  0.5775950932886138 0.21 0  0.5850633955257281 0.21 0  0.5925316977628483 0.21 0  0.6 0.2050000000000054 0  0.6 0.1950000000000217 0  0.5925316977628897 0.19 0  0.5850633955257988 0.19 0  0.5775950932887378 0.19 0  0.5701267910515998 0.19 0  0.5626584888145268 0.19 0  0.5551901865773963 0.19 0  0.547721884340339 0.19 0  0.5402535821032429 0.19 0  0.5327852798661811 0.19 0  0.5253169776290537 0.19 0  0.5178486753919799 0.19 0  0.5103803731549078 0.19 0  0.502912070917822 0.19 0  0.4954437686807294 0.19 0  0.4879754664436223 0.19 0  0.4805071642065402 0.19 0  0.4730388619694271 0.19 0  0.4655705597323621 0.19 0  0.4581022574952563 0.19 0  0.4506339552581777 0.19 0  0.4431656530210671 0.19 0  0.4356973507839815 0.19 0  0.4282290485468779 0.19 0  0.4207607463097617 0.19 0  0.4132924440726327 0.19 0  0.4058241418354857 0.19 0  0.3983558395983636 0.19 0  0.3908875373612097 0.19 0  0.3834192351240934 0.19 0  0.3759509328869369 0.19 0  0.3684826306498175 0.19 0  0.361014328412667 0.19 0  0.3535460261755617 0.19 0  0.3460777239384295 0.19 0  0.3386094217012945 0.19 0  0.3311411194641595 0.19 0  0.3236728172270245 0.19 0  0.3162045149898895 0.19 0  0.3087362127527544 0.19 0  0.3012679105156187 0.19 0  0.2937996082784807 0.19 0  0.2863313060413428 0.19 0  0.2788630038042048 0.19 0  0.2713947015670686 0.19 0  0.2639263993299336 0.19 0  0.2564580970927985 0.19 0  0.2607803159922026 0.2000727136295815 0  0.5887803774232762 0.2001272386983733 0  0.5745072403740523 0.2002044435018727 0  0.5511891430099709 0.2001122610077113 0  0.2751288526855082 0.20000000000002 0  0.5365194309847112 0.1999999999999436 0  0.2894621222999649 0.1998691686390484 0  0.5215828265105155 0.1999999999999228 0  0.3127789816668748 0.1998657885438805 0  0.3274069683451451 0.2000000000000796 0  0.5066462220363641 0.199999999999908 0  0.3650630746574081 0.199866017807523 0  0.476773013087985 0.1999999999998713 0  0.3417402379596385 0.1998691686391011 0  0.3796850840047755 0.200000000000134 0  0.4618364086138087 0.1999999999998546 0  0.4917096175621762 0.1999999999998808 0  0.3946216884789568 0.2000000000001512 0  0.446899804139621 0.1999999999998389 0  0.4089549580935208 0.1998691686391595 0  0.4322718174608562 0.200127451265745 0  0.4201487168029707 0.1999966199048527 0  0.3528922713220932 0.2000185703532356 0  0.5633122436674589 0.1999814296467508 0  0.3006558810093873 0.1999966199048318 0  0.5815926498168407 0.1966545283159175 0  0.2677053789419034 0.1964246479135325 0  0.5290511287476175 0.1970915826863981 0  0.5439877332217911 0.197091582686394 0  0.2825131256993216 0.2035478995978015 0  0.3199386661080599 0.202908417313604 0  0.4842413153250809 0.1970915826863873 0  0.5141145242734466 0.1970915826863843 0  0.3722167817676917 0.2029084173136195 0  0.4693047108508938 0.1970915826863783 0  0.3348752705822316 0.202908417313609 0  0.3871533862418661 0.2029084173136212 0  0.4543681063767183 0.1970915826863795 0  0.4991779197992749 0.1970915826863902 0  0.4020059614928624 0.203547899597858 0  0.4394315019025246 0.1970915826863714 0  0.2550657455369551 0.2034088125358657 0  0.2548908499171161 0.1966940311614271 0  0.5946539510196798 0.2024302972968126 0  0.267698176732111 0.2039977513680092 0  0.4261685417851465 0.196409292431739 0  0.3590076176283495 0.196411355804271 0  0.5571672426447437 0.2036011176410121 0  0.3066757059912147 0.1964092924317024 0  0.594380730180568 0.1966558399668133 0  0.4842413153245942 0.2040749161535287 0  0.4693047108503577 0.2040749161535231 0  0.3871533862424271 0.1959250838464788 0  0.372246743208829 0.1959123236376545 0  0.5141145242731028 0.2040749161535395 0  0.4543681063761134 0.2040749161535186 0  0.4019979587101454 0.1959834479682427 0  0.4394608940728603 0.2040870543693135 0  0.5439623148931173 0.2040856076781014 0  0.5290511287473298 0.2040749161535501 0  0.4991779197988497 0.2040749161535382 0  0.3347912413592433 0.1959225448935183 0  0.3199680582793816 0.1959123018030061 0  0.2825051229162361 0.1959834479681729 0  0.3590471196690275 0.2036304442587945 0  0.5571594006495384 0.1963685282145804 0  0.3067669986803285 0.203627750582736 0  0.4262598344738712 0.2036568242185335 0  0.5814408164431408 0.2041285596160068 0  0.5688286748170428 0.1961819304477386 0  0.4145905603063645 0.2038180695522843 0  0.3473758401724931 0.2038180695522752 0  0.2950977245128307 0.2038180695522663 0  0.5688286748170693 0.203818069552238 0  0.2950977245127906 0.1961819304477774 0  0.3473758401723931 0.1961819304478349 0  0.4145905603061963 0.1961819304479011 0  0.2601812407614425 0.2056861609747042
[...]
<PointData  Vectors="f_40-1"> 
<DataArray  type="Float64"  Name="f_40-1"  NumberOfComponents="3" format="ascii">0.0000000000000000e+00 0.0000000000000000e+00 0.0000000000000000e+00  0.0000000000000000e+00 0.0000000000000000e+00 0.0000000000000000e+00  0.0000000000000000e+00 0.0000000000000000e+00 0.0000000000000000e+00  0.0000000000000000e+00 0.0000000000000000e+00 0.0000000000000000e+00  6.1674575113147460e-05 2.2092064555087956e-03 0.0000000000000000e+00  -9.2495209174722276e-05 2.2090163218417783e-03 0.0000000000000000e+00  0.0000000000000000e+00 0.0000000000000000e+00 0.0000000000000000e+00  0.0000000000000000e+00 0.0000000000000000e+00 0.0000000000000000e+00  0.0000000000000000e+00 0.0000000000000000e+00 0.0000000000000000e+00  0.0000000000000000e+00 0.0000000000000000e+00 0.0000000000000000e+00  -1.5481793753119215e-05 2.2091038041232264e-03 0.0000000000000000e+00  0.0000000000000000e+00 0.0000000000000000e+00 0.0000000000000000e+00  0.0000000000000000e+00 0.0000000000000000e+00 0.0000000000000000e+00  0.0000000000000000e+00 0.0000000000000000e+00 0.0000000000000000e+00  0.0000000000000000e+00 0.0000000000000000e+00 0.0000000000000000e+00  0.0000000000000000e+00 0.0000000000000000e+00 0.0000000000000000e+00  0.0000000000000000e+00 0.0000000000000000e+00 0.0000000000000000e+00  0.0000000000000000e+00 0.0000000000000000e+00 0.0000000000000000e+00  0.0000000000000000e+00 0.0000000000000000e+00 0.0000000000000000e+00  0.0000000000000000e+00 0.0000000000000000e+00 0.0000000000000000e+00  0.0000000000000000e+00 0.0000000000000000e+00 0.0000000000000000e+00  0.0000000000000000e+00 0.0000000000000000e+00 0.0000000000000000e+00  0.0000000000000000e+00 0.0000000000000000e+00 0.0000000000000000e+00  0.0000000000000000e+00 0.0000000000000000e+00 0.0000000000000000e+00  0.0000000000000000e+00 0.0000000000000000e+00 0.0000000000000000e+00  0.0000000000000000e+00 0.0000000000000000e+00 0.0000000000000000e+00  0.0000000000000000e+00 0.0000000000000000e+00 0.0000000000000000e+00  0.0000000000000000e+00 0.0000000000000000e+00 0.0000000000000000e+00  0.0000000000000000e+00 0.0000000000000000e+00 0.0000000000000000e+00  0.0000000000000000e+00 0.0000000000000000e+00 0.0000000000000000e+00  0.0000000000000000e+00 0.0000000000000000e+00 0.0000000000000000e+00  0.0000000000000000e+00 0.0000000000000000e+00 0.0000000000000000e+00  0.0000000000000000e+00 0.0000000000000000e+00 0.0000000000000000e+00  0.0000000000000000e+00 0.0000000000000000e+00 0.0000000000000000e+00  0.0000000000000000e+00 0.0000000000000000e+00 0.0000000000000000e+00  0.0000000000000000e+00 0.0000000000000000e+00 0.0000000000000000e+00  0.0000000000000000e+00 0.0000000000000000e+00 0.0000000000000000e+00  0.0000000000000000e+00 0.0000000000000000e+00 0.0000000000000000e+00  0.0000000000000000e+00 0.0000000000000000e+00 0.0000000000000000e+00  0.0000000000000000e+00 0.0000000000000000e+00 0.0000000000000000e+00  0.0000000000000000e+00 0.0000000000000000e+00 0.0000000000000000e+00  0.0000000000000000e+00 0.0000000000000000e+00 0.0000000000000000e+00  0.0000000000000000e+00 0.0000000000000000e+00 0.0000000000000000e+00  0.0000000000000000e+00 0.0000000000000000e+00 0.0000000000000000e+00  0.0000000000000000e+00 0.0000000000000000e+00 0.0000000000000000e+00  0.0000000000000000e+00 0.0000000000000000e+00 0.0000000000000000e+00  0.0000000000000000e+00 0.0000000000000000e+00 0.0000000000000000e+00  0.0000000000000000e+00 0.0000000000000000e+00 0.0000000000000000e+00  0.0000000000000000e+00 0.0000000000000000e+00 0.0000000000000000e+00  0.0000000000000000e+00 0.0000000000000000e+00 0.0000000000000000e+00  0.0000000000000000e+00 0.0000000000000000e+00 0.0000000000000000e+00  0.0000000000000000e+00 0.0000000000000000e+00 0.0000000000000000e+00  0.0000000000000000e+00 0.0000000000000000e+00 0.0000000000000000e+00  0.0000000000000000e+00 0.0000000000000000e+00 0.0000000000000000e+00  0.0000000000000000e+00 0.0000000000000000e+00 0.0000000000000000e+00  0.0000000000000000e+00 0.0000000000000000e+00 0.0000000000000000e+00  0.0000000000000000e+00 0.0000000000000000e+00 0.0000000000000000e+00  0.0000000000000000e+00 0.0000000000000000e+00 0.0000000000000000e+00  0.0000000000000000e+00 0.0000000000000000e+00 0.0000000000000000e+00  0.0000000000000000e+00 0.0000000000000000e+00 0.0000000000000000e+00  0.0000000000000000e+00 0.0000000000000000e+00 0.0000000000000000e+00  0.0000000000000000e+00 0.0000000000000000e+00 0.0000000000000000e+00  0.0000000000000000e+00 0.0000000000000000e+00 0.0000000000000000e+00  0.0000000000000000e+00 0.0000000000000000e+00 0.0000000000000000e+00  0.0000000000000000e+00 0.0000000000000000e+00 0.0000000000000000e+00  0.0000000000000000e+00 0.0000000000000000e+00 0.0000000000000000e+00  0.0000000000000000e+00 0.0000000000000000e+00 0.0000000000000000e+00  0.0000000000000000e+00 0.0000000000000000e+00 0.0000000000000000e+00  0.0000000000000000e+00 0.0000000000000000e+00 0.0000000000000000e+00  0.0000000000000000e+00 0.0000000000000000e+00 0.0000000000000000e+00  0.0000000000000000e+00 0.0000000000000000e+00 0.0000000000000000e+00  0.0000000000000000e+00 0.0000000000000000e+00 0.0000000000000000e+00  0.0000000000000000e+00 0.0000000000000000e+00 0.0000000000000000e+00  0.0000000000000000e+00 0.0000000000000000e+00 0.0000000000000000e+00  0.0000000000000000e+00 0.0000000000000000e+00 0.0000000000000000e+00  0.0000000000000000e+00 0.0000000000000000e+00 0.0000000000000000e+00  0.0000000000000000e+00 0.0000000000000000e+00 0.0000000000000000e+00  0.0000000000000000e+00 0.0000000000000000e+00 0.0000000000000000e+00  0.0000000000000000e+00 0.0000000000000000e+00 0.0000000000000000e+00  0.0000000000000000e+00 0.0000000000000000e+00 0.0000000000000000e+00  0.0000000000000000e+00 0.0000000000000000e+00 0.0000000000000000e+00  0.0000000000000000e+00 0.0000000000000000e+00 0.0000000000000000e+00  0.0000000000000000e+00 0.0000000000000000e+00 0.0000000000000000e+00  0.0000000000000000e+00 0.0000000000000000e+00 0.0000000000000000e+00  0.0000000000000000e+00 0.0000000000000000e+00 0.0000000000000000e+00  0.0000000000000000e+00 0.0000000000000000e+00 0.0000000000000000e+00  0.0000000000000000e+00 0.0000000000000000e+00 0.0000000000000000e+00  0.0000000000000000e+00 0.0000000000000000e+00 0.0000000000000000e+00  0.0000000000000000e+00 0.0000000000000000e+00 0.0000000000000000e+00  0.0000000000000000e+00 0.0000000000000000e+00 0.0000000000000000e+00  0.0000000000000000e+00 0.0000000000000000e+00 0.0000000000000000e+00  0.0000000000000000e+00 0.0000000000000000e+00 0.0000000000000000e+00  0.0000000000000000e+00 0.0000000000000000e+00 0.0000000000000000e+00  0.0000000000000000e+00 0.0000000000000000e+00 0.0000000000000000e+00  0.0000000000000000e+00 0.0000000000000000e+00 0.0000000000000000e+00  0.0000000000000000e+00 0.0000000000000000e+00 0.0000000000000000e+00  0.0000000000000000e+00 0.0000000000000000e+00 0.0000000000000000e+00  0.0000000000000000e+00 0.0000000000000000e+00 0.0000000000000000e+00  0.0000000000000000e+00 0.0000000000000000e+00 0.0000000000000000e+00  0.0000000000000000e+00 0.0000000000000000e+00 0.0000000000000000e+00  0.0000000000000000e+00 0.0000000000000000e+00 0.0000000000000000e+00  0.0000000000000000e+00 0.0000000000000000e+00 0.0000000000000000e+00  0.0000000000000000e+00 0.0000000000000000e+00 0.0000000000000000e+00  0.0000000000000000e+00 0.0000000000000000e+00 0.0000000000000000e+00  0.0000000000000000e+00 0.0000000000000000e+00 0.0000000000000000e+00  0.0000000000000000e+00 0.0000000000000000e+00 0.0000000000000000e+00  0.0000000000000000e+00 0.0000000000000000e+00 0.0000000000000000e+00  0.0000000000000000e+00 0.0000000000000000e+00 0.0000000000000000e+00  0.0000000000000000e+00 0.0000000000000000e+00 0.0000000000000000e+00  0.0000000000000000e+00 0.0000000000000000e+00 0.0000000000000000e+00  0.0000000000000000e+00 0.0000000000000000e+00 0.0000000000000000e+00  0.0000000000000000e+00 0.0000000000000000e+00 0.0000000000000000e+00  0.0000000000000000e+00 0.0000000000000000e+00 0.0000000000000000e+00  0.0000000000000000e+00 0.0000000000000000e+00 0.0000000000000000e+00  0.0000000000000000e+00 0.0000000000000000e+00 0.0000000000000000e+00  0.0000000000000000e+00 0.0000000000000000e+00 0.0000000000000000e+00  0.0000000000000000e+00 0.0000000000000000e+00 0.0000000000000000e+00  0.0000000000000000e+00 0.0000000000000000e+00 0.0000000000000000e+00  0.0000000000000000e+00 0.0000000000000000e+00 0.0000000000000000e+00  0.0000000000000000e+00 0.0000000000000000e+00 0.0000000000000000e+00  0.0000000000000000e+00 0.0000000000000000e+00 0.0000000000000000e+00  0.0000000000000000e+00 0.0000000000000000e+00 0.0000000000000000e+00  0.0000000000000000e+00 0.0000000000000000e+00 0.0000000000000000e+00  0.0000000000000000e+00 0.0000000000000000e+00 0.0000000000000000e+00  0.0000000000000000e+00 0.0000000000000000e+00 0.0000000000000000e+00  0.0000000000000000e+00 0.0000000000000000e+00 0.0000000000000000e+00  0.0000000000000000e+00 0.0000000000000000e+00 0.0000000000000000e+00  0.0000000000000000e+00 0.0000000000000000e+00 0.0000000000000000e+00  0.0000000000000000e+00 0.0000000000000000e+00 0.0000000000000000e+00  0.0000000000000000e+00 0.0000000000000000e+00 0.0000000000000000e+00  0.0000000000000000e+00 0.0000000000000000e+00 0.0000000000000000e+00  0.0000000000000000e+00 0.0000000000000000e+00 0.0000000000000000e+00  0.0000000000000000e+00 0.0000000000000000e+00 0.0000000000000000e+00  0.0000000000000000e+00 0.0000000000000000e+00 0.0000000000000000e+00  0.0000000000000000e+00 0.0000000000000000e+00 0.0000000000000000e+00  0.0000000000000000e+00 0.0000000000000000e+00 0.0000000000000000e+00  0.0000000000000000e+00 0.0000000000000000e+00 0.0000000000000000e+00  0.0000000000000000e+00 0.0000000000000000e+00 0.0000000000000000e+00  0.0000000000000000e+00 0.0000000000000000e+00 0.0000000000000000e+00  0.0000000000000000e+00 0.0000000000000000e+00 0.0000000000000000e+00  0.0000000000000000e+00 0.0000000000000000e+00 0.0000000000000000e+00  0.0000000000000000e+00 0.0000000000000000e+00 0.0000000000000000e+00  0.0000000000000000e+00 0.0000000000000000e+00 0.0000000000000000e+00  -6.2695274716468300e-06 6.1634878029760758e-06 0.0000000000000000e+00  -1.3259273586224393e-05 1.3354693923492499e-05 0.0000000000000000e+00  -1.9396893492001220e-05 2.4806080411769280e-05 0.0000000000000000e+00  -2.5898869674603516e-05 4.0779030020930658e-05 0.0000000000000000e+00  -3.1278236715481825e-05 6.0408205223284758e-05 0.0000000000000000e+00  -3.7178375683385465e-05 8.4027896424534470e-05 0.0000000000000000e+00  -4.1883690796065179e-05 1.1050772075645845e-04 0.0000000000000000e+00  -4.6327435955251105e-05 1.4067507911542961e-04 0.0000000000000000e+00  -5.1255607707389419e-05 1.7356426775705602e-04 0.0000000000000000e+00  -5.4956633384285335e-05 2.0919073223081002e-04 0.0000000000000000e+00  -5.9264929680621007e-05 2.4747047524399727e-04 0.0000000000000000e+00  -6.2451145930360382e-05 2.8804948212181092e-04 0.0000000000000000e+00  -6.6014824338370631e-05 3.3081451341216084e-04 0.0000000000000000e+00  -6.8791375572178337e-05 3.7526825035846665e-04 0.0000000000000000e+00  -7.1357939882353045e-05 4.2172363088477328e-04 0.0000000000000000e+00  -7.4109124583911484e-05 4.6962162194852798e-04 0.0000000000000000e+00  -7.6142940214269454e-05 5.1890683482738753e-04 0.0000000000000000e+00  -7.8397163786680495e-05 5.6951586439301716e-04 0.0000000000000000e+00  -8.0039747835064582e-05 6.2117296196019338e-04 0.0000000000000000e+00  -8.1816652559616522e-05 6.7381535524127100e-04 0.0000000000000000e+00  -8.3179547926624507e-05 7.2728353646098122e-04 0.0000000000000000e+00  -8.4547085933863624e-05 7.8153142342326652e-04 0.0000000000000000e+00  -8.5618421601715852e-05 8.3629495721838953e-04 0.0000000000000000e+00  -8.6565469176156539e-05 8.9168282328280367e-04 0.0000000000000000e+00  -8.7516250016300056e-05 9.4746816604433131e-04 0.0000000000000000e+00  -8.8259964535035144e-05 1.0036620945447180e-03 0.0000000000000000e+00  -8.8937928166332020e-05 1.0602113725338047e-03 0.0000000000000000e+00  -8.9497729867829966e-05 1.1169875450149243e-03 0.0000000000000000e+00  -8.9995619571567182e-05 1.1740202918598852e-03 0.0000000000000000e+00  -9.0404170794001416e-05 1.2311957645153404e-03 0.0000000000000000e+00  -9.0758911696234878e-05 1.2885344574935726e-03 0.0000000000000000e+00  -9.1045545524607536e-05 1.3459449608592157e-03 0.0000000000000000e+00  -9.1288755966213467e-05 1.4034463968216713e-03 0.0000000000000000e+00  -9.1480932845632525e-05 1.4609686705586032e-03 0.0000000000000000e+00  -9.1637221249602207e-05 1.5185334417269698e-03 0.0000000000000000e+00  -9.1763515164459630e-05 1.5760930641044711e-03 0.0000000000000000e+00  -9.1866424303563358e-05 1.6336617404375754e-03 0.0000000000000000e+00  -9.1952799484714898e-05 1.6912153896348212e-03 0.0000000000000000e+00  -9.2024672245848491e-05 1.7487634978308223e-03 0.0000000000000000e+00  -9.2090723778957890e-05 1.8062986102784625e-03 0.0000000000000000e+00  -9.2151388047006561e-05 1.8638241017306500e-03 0.0000000000000000e+00  -9.2213408957680687e-05 1.9213442739190773e-03 0.0000000000000000e+00  -9.2272122282075348e-05 1.9788654662887466e-03 0.0000000000000000e+00  -9.2333540211307082e-05 2.0363899211017270e-03 0.0000000000000000e+00  -9.2396997990581954e-05 2.0939270772626101e-03 0.0000000000000000e+00  -9.2455091267211069e-05 2.1514730071730218e-03 0.0000000000000000e+00  -5.4005498937345617e-05 2.2090596580037871e-03 0.0000000000000000e+00  2.3070424698885693e-05 2.2091501322233052e-03 0.0000000000000000e+00  6.1693863617703643e-05 2.1516051523260281e-03 0.0000000000000000e+00  6.1736002384600160e-05 2.0940416467192225e-03 0.0000000000000000e+00  6.1786005887913117e-05 2.0364929581309340e-03 0.0000000000000000e+00  6.1838787023238585e-05 1.9789489557554491e-03 0.0000000000000000e+00  6.1897388039768876e-05 1.9214061060873510e-03 0.0000000000000000e+00  6.1968223749593574e-05 1.8638595595167229e-03 0.0000000000000000e+00  6.2046926261962715e-05 1.8063050983194761e-03 0.0000000000000000e+00  6.2133906568185996e-05 1.7487408588525257e-03 0.0000000000000000e+00  6.2228544529298945e-05 1.6911619884368350e-03 0.0000000000000000e+00  6.2327753159139725e-05 1.6335684862518920e-03 0.0000000000000000e+00  6.2428156841558153e-05 1.5759645127811593e-03 0.0000000000000000e+00  6.2532388601688944e-05 1.5183562780606303e-03 0.0000000000000000e+00  6.2624014874634445e-05 1.4607535458385117e-03 0.0000000000000000e+00  6.2718108979178836e-05 1.4031743731705445e-03 0.0000000000000000e+00  6.2775626623764089e-05 1.3456322977322016e-03 0.0000000000000000e+00  6.2839971511299643e-05 1.2881607001412416e-03 0.0000000000000000e+00  6.2836899766006919e-05 1.2307781773022621e-03 0.0000000000000000e+00  6.2851435472274328e-05 1.1735329403205911e-03 0.0000000000000000e+00  6.2760639258378588e-05 1.1164506909923722e-03 0.0000000000000000e+00  6.2704535612658028e-05 1.0595936891409062e-03 0.0000000000000000e+00  6.2491019079560342e-05 1.0029926761235138e-03 0.0000000000000000e+00  6.2334462697407803e-05 9.4672707360135273e-04 0.0000000000000000e+00  6.1969178979939487e-05 8.9084574962996468e-04 0.0000000000000000e+00  6.1647633208548964e-05 8.3538249815987746e-04 0.0000000000000000e+00  6.1253979690698728e-05 7.8054513588234206e-04 0.0000000000000000e+00  6.0611208966905323e-05 7.2619530706878035e-04 0.0000000000000000e+00  5.9962836719369151e-05 6.7266393030939744e-04 0.0000000000000000e+00  5.9074460802245710e-05 6.1990083369648202e-04 0.0000000000000000e+00  5.8139083467060527e-05 5.6816631853382447e-04 0.0000000000000000e+00  5.6924247551390722e-05 5.1746725040639568e-04 0.0000000000000000e+00  5.5655262200222392e-05 4.6802230001667167e-04 0.0000000000000000e+00  5.3883628913413439e-05 4.2012427082605344e-04 0.0000000000000000e+00  5.2301741113932389e-05 3.7354538261726874e-04 0.0000000000000000e+00  5.0544066562967475e-05 3.2902435058614684e-04 0.0000000000000000e+00  4.8132925895614145e-05 2.8601616183198731e-04 0.0000000000000000e+00  4.5779112737855926e-05 2.4540993566151515e-04 0.0000000000000000e+00  4.2937710293417845e-05 2.0701127996449928e-04 0.0000000000000000e+00  4.0103299202219335e-05 1.7116152391083602e-04 0.0000000000000000e+00  3.6431207467042519e-05 1.3833374408114959e-04 0.0000000000000000e+00  3.3210646671418395e-05 1.0801369948454438e-04 0.0000000000000000e+00  2.9781121382025235e-05 8.1441468215759982e-05 0.0000000000000000e+00  2.5264024983713239e-05 5.7616767532096445e-05 0.0000000000000000e+00  2.1069414794805804e-05 3.7812075958425398e-05 0.0000000000000000e+00  1.5866467598014918e-05 2.1964397331843532e-05 0.0000000000000000e+00  1.1134037130409128e-05 1.0432541755710726e-05 0.0000000000000000e+00  5.2907332545559066e-06 3.3527087446479739e-06 0.0000000000000000e+00  -6.0418835679401480e-07 5.1500502783287592e-06 0.0000000000000000e+00  -1.6368030603419274e-05 2.1226252101968399e-03 0.0000000000000000e+00  -1.6846428843999334e-05 2.0126498786976542e-03 0.0000000000000000e+00  -1.5936543197390047e-05 1.8330200326643186e-03 0.0000000000000000e+00  -2.0081474798678440e-06 2.8145811359611383e-05 0.0000000000000000e+00  -1.4918905503364915e-05 1.7199756010915473e-03 0.0000000000000000e+00  -2.9152406139321825e-06 6.6048979171659839e-05 0.0000000000000000e+00  -1.4731199691948416e-05 1.6048201965769122e-03 0.0000000000000000e+00  -4.6449727946703459e-06 1.5501367856893559e-04 0.0000000000000000e+00  -6.3635337377158750e-06 2.2538507269642498e-04 0.0000000000000000e+00  -1.4499952408350952e-05 1.4896342109480185e-03 0.0000000000000000e+00  -8.1167003479688340e-06 4.4569479880843591e-04 0.0000000000000000e+00  -1.3875136929136282e-05 1.2595698143588469e-03 0.0000000000000000e+00  -6.6764815215730760e-06 3.0334478111251987e-04 0.0000000000000000e+00  -9.8655766964225985e-06 5.4259099268922782e-04 0.0000000000000000e+00  -1.3470973266006580e-05 1.1450886656076407e-03 0.0000000000000000e+00  -1.4216504797641309e-05 1.3744983150288184e-03 0.0000000000000000e+00  -1.0704403156904153e-05 6.4616413400445203e-04 0.0000000000000000e+00  -1.2994613818328940e-05 1.0313770562722577e-03 0.0000000000000000e+00  -1.0489308589868904e-05 7.4892613047304287e-04 0.0000000000000000e+00  -1.3408618836484487e-05 9.2114987593815611e-04 0.0000000000000000e+00  -1.1921826141545054e-05 8.3104597817236601e-04 0.0000000000000000e+00  -8.2866835212490747e-06 3.6957590994335544e-04 0.0000000000000000e+00  -1.5038756733177313e-05 1.9264118974134093e-03 0.0000000000000000e+00  -4.2137556270123856e-06 1.0538802832552181e-04 0.0000000000000000e+00  1.0455456463016335e-05 2.0672564553732777e-03 0.0000000000000000e+00  4.0692858098644596e-06 1.4224811470234952e-05 0.0000000000000000e+00  7.5933448686213515e-06 1.6623939326565367e-03 0.0000000000000000e+00  7.4183613155949987e-06 1.7775310673370040e-03 0.0000000000000000e+00  -1.1748036332640445e-05 4.6872688521669266e-05 0.0000000000000000e+00  -1.9576075824461158e-05 1.8875788926273841e-04 0.0000000000000000e+00  8.2967813756237870e-06 1.3169547130153364e-03 0.0000000000000000e+00  7.7996644839030659e-06 1.5472072192665859e-03 0.0000000000000000e+00  -2.8531369409221388e-05 4.9281135758345016e-04 0.0000000000000000e+00  8.5704430751460876e-06 1.2022046998693796e-03 0.0000000000000000e+00  -2.2524307293829756e-05 2.6549132845040877e-04 0.0000000000000000e+00  -3.0312951429678840e-05 5.9415760761859357e-04 0.0000000000000000e+00  8.8490500018711360e-06 1.0880534292999667e-03 0.0000000000000000e+00  8.0366035072874597e-06 1.4320215114164401e-03 0.0000000000000000e+00  -3.6381511325982460e-05 6.9904582138509170e-04 0.0000000000000000e+00  9.1270605679196144e-06 9.7486046289985183e-04 0.0000000000000000e+00  -1.1112775610186367e-06 1.4891066411594075e-06 0.0000000000000000e+00  8.0360893832505434e-07 7.4044961696804815e-07 0.0000000000000000e+00  -3.4166241467512988e-05 2.1678806504746395e-03 0.0000000000000000e+00  -7.2857391324704925e-06 1.5401454103062557e-05 0.0000000000000000e+00  1.4418790755625086e-05 8.7549490182312094e-04 0.0000000000000000e