<?xml version="1.0"?>
<VTKFile type="UnstructuredGrid"  version="0.1"  >
<UnstructuredGrid>
<Piece  NumberOfPoints="1419" NumberOfCells="2698">
<Points>
<DataArray  type="Float64"  NumberOfComponents="3"  format="ascii">0 0 0  0 0.41 0  2.5 0 0  2.5 0.41 0  0.6 0.19 0  0.6 0.21 0  0.25 0.2 0  0.15 0.2 0  0.2489897948556636 0.21 0  0.2489897948556636 0.19 0  0.6 0.2 0  0 0.3807142857143437 0  0 0.3514285714286952 0  0 0.3221428571430699 0  0 0.29285714285744 0  0 0.2635714285718054 0  0 0.2342857142861561 0  0 0.2050000000005308 0  0 0.175714285714732 0  0 0.1464285714289574 0  0 0.1171428571431897 0  0 0.08785714285737878 0  0 0.05857142857161107 0  0 0.02928571428580012 0  0.03015443760436003 0 0  0.06140001986583606 0 0  0.09377624077125973 0 0  0.1273239957535082 0 0  0.1620856860351972 0 0  0.1981052433264291 0 0  0.235428184091502 0 0  0.2741016576309132 0 0  0.3141745521465447 0 0  0.3556974926295285 0 0  0.3987229542472677 0 0  0.4433053055141081 0 0  0.4895008759286886 0 0  0.5373680609405097 0 0  0.5869673343216626 0 0  0.6383613676634521 0 0  0.6916151138468254 0 0  0.7467958595648856 0 0  0.8039733463919316 0 0  0.8632198139502143 0 0  0.9246101326867038 0 0  0.9882218810934433 0 0  1.054135445558498 0 0  1.122434100542598 0 0  1.193204177141305 0 0  1.266535089879536 0 0  1.342519516046404 0 0  1.421253448503939 0 0  1.502836389106271 0 0  1.587371439758838 0 0  1.674965418777374 0 0  1.765729001825544 0 0  1.859776908880082 0 0  1.957227977487062 0 0  2.058205329869943 0 0  2.162836591189951 0 0  2.271253957290865 0 0  2.383594446803425 0 0  2.5 0.1024999999997612 0  2.5 0.2049999999994743 0  2.5 0.3074999999997183 0  2.383594446803656 0.41 0  2.271253957291315 0.41 0  2.162836591190598 0.41 0  2.058205329870775 0.41 0  1.957227977488067 0.41 0  1.859776908881246 0.41 0  1.765729001826854 0.41 0  1.674965418778818 0.41 0  1.58737143976041 0.41 0  1.502836389107956 0.41 0  1.421253448505726 0.41 0  1.342519516048286 0.41 0  1.266535089881505 0.41 0  1.193204177143353 0.41 0  1.122434100544716 0.41 0  1.05413544556068 0.41 0  0.9882218810956305 0.41 0  0.9246101326886647 0.41 0  0.8632198139519631 0.41 0  0.8039733463934788 0.41 0  0.7467958595662458 0.41 0  0.6916151138480078 0.41 0  0.6383613676644679 0.41 0  0.5869673343225223 0.41 0  0.5373680609412221 0.41 0  0.4895008759292634 0.41 0  0.4433053055145528 0.41 0  0.3987229542475914 0.41 0  0.3556974926297398 0.41 0  0.3141745521466497 0.41 0  0.2741016576310038 0.41 0  0.2354281840915826 0.41 0  0.1981052433265003 0.41 0  0.1620856860352591 0.41 0  0.1273239957535623 0.41 0  0.09377624077128965 0.41 0  0.06140001986584975 0.41 0  0.03015443760436654 0.41 0  0.2497468076502589 0.2050254481002335 0  0.2497468076502614 0.1949745518997913 0  0.2469965252529372 0.1829317073451959 0  0.2439893735792749 0.1762316384219906 0  0.2400332147834255 0.1700443375285386 0  0.2352133972704371 0.1645032867342007 0  0.2296339016332438 0.1597280261969788 0  0.2234150974217223 0.1558215752574715 0  0.2166911463437691 0.1528682099456123 0  0.2096071079204251 0.1509316448471593 0  0.2023158100364996 0.1500536585536553 0  0.194974551899914 0.1502531923497262 0  0.1877417105387872 0.1515259415822739 0  0.1807733240461124 0.153844448527136 0  0.1742197252835808 0.15715869474974 0  0.1682222986673531 0.1613971801805478 0  0.162910430003803 0.1664684656256651 0  0.1583987151779087 0.1722631454351573 0  0.1547844879126891 0.178656207771761 0  0.1521457199348551 0.1855097315605723 0  0.1505393388476355 0.1926758619366523 0  0.1505393388476328 0.2073241380633295 0  0.1521457199348437 0.2144902684393899 0  0.1547844879126531 0.221343792228163 0  0.1583987151778488 0.2277368545647528 0  0.1629104300036858 0.2335315343742052 0  0.1682222986671726 0.2386028198193036 0  0.1742197252833576 0.2428413052501257 0  0.1807733240458683 0.2461555514727623 0  0.1877417105384929 0.2484740584176516 0  0.1949745518995776 0.2497468076502398 0  0.202315810036185 0.2499463414463592 0  0.2096071079201568 0.2490683551528932 0  0.2166911463435495 0.2471317900544655 0  0.2234150974215506 0.2441784247426195 0  0.2296339016331197 0.2402719738031125 0  0.2352133972703547 0.2354967132658811 0  0.2400332147833751 0.2299556624715287 0  0.2439893735792577 0.2237683615780412 0  0.246996525252926 0.2170682926548348 0  0.25645809709277 0.21 0  0.2639263993298655 0.21 0  0.271394701566961 0.21 0  0.2788630038040554 0.21 0  0.2863313060411479 0.21 0  0.2937996082782405 0.21 0  0.301267910515333 0.21 0  0.3087362127524279 0.21 0  0.3162045149895234 0.21 0  0.3236728172265972 0.21 0  0.3311411194636928 0.21 0  0.3386094217007701 0.21 0  0.3460777239378666 0.21 0  0.3535460261749672 0.21 0  0.3610143284120516 0.21 0  0.3684826306491596 0.21 0  0.3759509328862226 0.21 0  0.383419235123329 0.21 0  0.3908875373604028 0.21 0  0.3983558395975142 0.21 0  0.4058241418345938 0.21 0  0.4132924440716992 0.21 0  0.4207607463087888 0.21 0  0.4282290485459029 0.21 0  0.4356973507830418 0.21 0  0.4431656530201649 0.21 0  0.4506339552573136 0.21 0  0.4581022574944306 0.21 0  0.4655705597315852 0.21 0  0.4730388619686996 0.21 0  0.480507164205851 0.21 0  0.4879754664429498 0.21 0  0.4954437686800938 0.21 0  0.502912070917267 0.21 0  0.5103803731544119 0.21 0  0.5178486753915261 0.21 0  0.5253169776286404 0.21 0  0.5327852798657868 0.21 0  0.5402535821029386 0.21 0  0.54772188434007 0.21 0  0.5551901865771842 0.21 0  0.5626584888143201 0.21 0  0.5701267910514778 0.21 0  0.5775950932886138 0.21 0  0.5850633955257281 0.21 0  0.5925316977628483 0.21 0  0.6 0.2050000000000054 0  0.6 0.1950000000000217 0  0.5925316977628897 0.19 0  0.5850633955257988 0.19 0  0.5775950932887378 0.19 0  0.5701267910515998 0.19 0  0.5626584888145268 0.19 0  0.5551901865773963 0.19 0  0.547721884340339 0.19 0  0.5402535821032429 0.19 0  0.5327852798661811 0.19 0  0.5253169776290537 0.19 0  0.5178486753919799 0.19 0  0.5103803731549078 0.19 0  0.502912070917822 0.19 0  0.4954437686807294 0.19 0  0.4879754664436223 0.19 0  0.4805071642065402 0.19 0  0.4730388619694271 0.19 0  0.4655705597323621 0.19 0  0.4581022574952563 0.19 0  0.4506339552581777 0.19 0  0.4431656530210671 0.19 0  0.4356973507839815 0.19 0  0.4282290485468779 0.19 0  0.4207607463097617 0.19 0  0.4132924440726327 0.19 0  0.4058241418354857 0.19 0  0.3983558395983636 0.19 0  0.3908875373612097 0.19 0  0.3834192351240934 0.19 0  0.3759509328869369 0.19 0  0.3684826306498175 0.19 0  0.361014328412667 0.19 0  0.3535460261755617 0.19 0  0.3460777239384295 0.19 0  0.3386094217012945 0.19 0  0.3311411194641595 0.19 0  0.3236728172270245 0.19 0  0.3162045149898895 0.19 0  0.3087362127527544 0.19 0  0.3012679105156187 0.19 0  0.2937996082784807 0.19 0  0.2863313060413428 0.19 0  0.2788630038042048 0.19 0  0.2713947015670686 0.19 0  0.2639263993299336 0.19 0  0.2564580970927985 0.19 0  0.2607803159922026 0.2000727136295815 0  0.5887803774232762 0.2001272386983733 0  0.5745072403740523 0.2002044435018727 0  0.5511891430099709 0.2001122610077113 0  0.2751288526855082 0.20000000000002 0  0.5365194309847112 0.1999999999999436 0  0.2894621222999649 0.1998691686390484 0  0.5215828265105155 0.1999999999999228 0  0.3127789816668748 0.1998657885438805 0  0.3274069683451451 0.2000000000000796 0  0.5066462220363641 0.199999999999908 0  0.3650630746574081 0.199866017807523 0  0.476773013087985 0.1999999999998713 0  0.3417402379596385 0.1998691686391011 0  0.3796850840047755 0.200000000000134 0  0.4618364086138087 0.1999999999998546 0  0.4917096175621762 0.1999999999998808 0  0.3946216884789568 0.2000000000001512 0  0.446899804139621 0.1999999999998389 0  0.4089549580935208 0.1998691686391595 0  0.4322718174608562 0.200127451265745 0  0.4201487168029707 0.1999966199048527 0  0.3528922713220932 0.2000185703532356 0  0.5633122436674589 0.1999814296467508 0  0.3006558810093873 0.1999966199048318 0  0.5815926498168407 0.1966545283159175 0  0.2677053789419034 0.1964246479135325 0  0.5290511287476175 0.1970915826863981 0  0.5439877332217911 0.197091582686394 0  0.2825131256993216 0.2035478995978015 0  0.3199386661080599 0.202908417313604 0  0.4842413153250809 0.1970915826863873 0  0.5141145242734466 0.1970915826863843 0  0.3722167817676917 0.2029084173136195 0  0.4693047108508938 0.1970915826863783 0  0.3348752705822316 0.202908417313609 0  0.3871533862418661 0.2029084173136212 0  0.4543681063767183 0.1970915826863795 0  0.4991779197992749 0.1970915826863902 0  0.4020059614928624 0.203547899597858 0  0.4394315019025246 0.1970915826863714 0  0.2550657455369551 0.2034088125358657 0  0.2548908499171161 0.1966940311614271 0  0.5946539510196798 0.2024302972968126 0  0.267698176732111 0.2039977513680092 0  0.4261685417851465 0.196409292431739 0  0.3590076176283495 0.196411355804271 0  0.5571672426447437 0.2036011176410121 0  0.3066757059912147 0.1964092924317024 0  0.594380730180568 0.1966558399668133 0  0.4842413153245942 0.2040749161535287 0  0.4693047108503577 0.2040749161535231 0  0.3871533862424271 0.1959250838464788 0  0.372246743208829 0.1959123236376545 0  0.5141145242731028 0.2040749161535395 0  0.4543681063761134 0.2040749161535186 0  0.4019979587101454 0.1959834479682427 0  0.4394608940728603 0.2040870543693135 0  0.5439623148931173 0.2040856076781014 0  0.5290511287473298 0.2040749161535501 0  0.4991779197988497 0.2040749161535382 0  0.3347912413592433 0.1959225448935183 0  0.3199680582793816 0.1959123018030061 0  0.2825051229162361 0.1959834479681729 0  0.3590471196690275 0.2036304442587945 0  0.5571594006495384 0.1963685282145804 0  0.3067669986803285 0.203627750582736 0  0.4262598344738712 0.2036568242185335 0  0.5814408164431408 0.2041285596160068 0  0.5688286748170428 0.1961819304477386 0  0.4145905603063645 0.2038180695522843 0  0.3473758401724931 0.2038180695522752 0  0.2950977245128307 0.2038180695522663 0  0.5688286748170693 0.203818069552238 0  0.2950977245127906 0.1961819304477774 0  0.3473758401723931 0.1961819304478349 0  0.4145905603061963 0.1961819304479011 0  0.2601812407614425 0.2056861609747042
[...]
<PointData  Vectors="f_40-1"> 
<DataArray  type="Float64"  Name="f_40-1"  NumberOfComponents="3" format="ascii">0.0000000000000000e+00 0.0000000000000000e+00 0.0000000000000000e+00  0.0000000000000000e+00 0.0000000000000000e+00 0.0000000000000000e+00  0.0000000000000000e+00 0.0000000000000000e+00 0.0000000000000000e+00  0.0000000000000000e+00 0.0000000000000000e+00 0.0000000000000000e+00  7.3321377822411457e-05 2.5727757347187136e-03 0.0000000000000000e+00  -1.0737960950067893e-04 2.5724263669374562e-03 0.0000000000000000e+00  0.0000000000000000e+00 0.0000000000000000e+00 0.0000000000000000e+00  0.0000000000000000e+00 0.0000000000000000e+00 0.0000000000000000e+00  0.0000000000000000e+00 0.0000000000000000e+00 0.0000000000000000e+00  0.0000000000000000e+00 0.0000000000000000e+00 0.0000000000000000e+00  -1.7102147232982550e-05 2.5725926848178377e-03 0.0000000000000000e+00  0.0000000000000000e+00 0.0000000000000000e+00 0.0000000000000000e+00  0.0000000000000000e+00 0.0000000000000000e+00 0.0000000000000000e+00  0.0000000000000000e+00 0.0000000000000000e+00 0.0000000000000000e+00  0.0000000000000000e+00 0.0000000000000000e+00 0.0000000000000000e+00  0.0000000000000000e+00 0.0000000000000000e+00 0.0000000000000000e+00  0.0000000000000000e+00 0.0000000000000000e+00 0.0000000000000000e+00  0.0000000000000000e+00 0.0000000000000000e+00 0.0000000000000000e+00  0.0000000000000000e+00 0.0000000000000000e+00 0.0000000000000000e+00  0.0000000000000000e+00 0.0000000000000000e+00 0.0000000000000000e+00  0.0000000000000000e+00 0.0000000000000000e+00 0.0000000000000000e+00  0.0000000000000000e+00 0.0000000000000000e+00 0.0000000000000000e+00  0.0000000000000000e+00 0.0000000000000000e+00 0.0000000000000000e+00  0.0000000000000000e+00 0.0000000000000000e+00 0.0000000000000000e+00  0.0000000000000000e+00 0.0000000000000000e+00 0.0000000000000000e+00  0.0000000000000000e+00 0.0000000000000000e+00 0.0000000000000000e+00  0.0000000000000000e+00 0.0000000000000000e+00 0.0000000000000000e+00  0.0000000000000000e+00 0.0000000000000000e+00 0.0000000000000000e+00  0.0000000000000000e+00 0.0000000000000000e+00 0.0000000000000000e+00  0.0000000000000000e+00 0.0000000000000000e+00 0.0000000000000000e+00  0.0000000000000000e+00 0.0000000000000000e+00 0.0000000000000000e+00  0.0000000000000000e+00 0.0000000000000000e+00 0.0000000000000000e+00  0.0000000000000000e+00 0.0000000000000000e+00 0.0000000000000000e+00  0.0000000000000000e+00 0.0000000000000000e+00 0.0000000000000000e+00  0.0000000000000000e+00 0.0000000000000000e+00 0.0000000000000000e+00  0.0000000000000000e+00 0.0000000000000000e+00 0.0000000000000000e+00  0.0000000000000000e+00 0.0000000000000000e+00 0.0000000000000000e+00  0.0000000000000000e+00 0.0000000000000000e+00 0.0000000000000000e+00  0.0000000000000000e+00 0.0000000000000000e+00 0.0000000000000000e+00  0.0000000000000000e+00 0.0000000000000000e+00 0.0000000000000000e+00  0.0000000000000000e+00 0.0000000000000000e+00 0.0000000000000000e+00  0.0000000000000000e+00 0.0000000000000000e+00 0.0000000000000000e+00  0.0000000000000000e+00 0.0000000000000000e+00 0.0000000000000000e+00  0.0000000000000000e+00 0.0000000000000000e+00 0.0000000000000000e+00  0.0000000000000000e+00 0.0000000000000000e+00 0.0000000000000000e+00  0.0000000000000000e+00 0.0000000000000000e+00 0.0000000000000000e+00  0.0000000000000000e+00 0.0000000000000000e+00 0.0000000000000000e+00  0.0000000000000000e+00 0.0000000000000000e+00 0.0000000000000000e+00  0.0000000000000000e+00 0.0000000000000000e+00 0.0000000000000000e+00  0.0000000000000000e+00 0.0000000000000000e+00 0.0000000000000000e+00  0.0000000000000000e+00 0.0000000000000000e+00 0.0000000000000000e+00  0.0000000000000000e+00 0.0000000000000000e+00 0.0000000000000000e+00  0.0000000000000000e+00 0.0000000000000000e+00 0.0000000000000000e+00  0.0000000000000000e+00 0.0000000000000000e+00 0.0000000000000000e+00  0.0000000000000000e+00 0.0000000000000000e+00 0.0000000000000000e+00  0.0000000000000000e+00 0.0000000000000000e+00 0.0000000000000000e+00  0.0000000000000000e+00 0.0000000000000000e+00 0.0000000000000000e+00  0.0000000000000000e+00 0.0000000000000000e+00 0.0000000000000000e+00  0.0000000000000000e+00 0.0000000000000000e+00 0.0000000000000000e+00  0.0000000000000000e+00 0.0000000000000000e+00 0.0000000000000000e+00  0.0000000000000000e+00 0.0000000000000000e+00 0.0000000000000000e+00  0.0000000000000000e+00 0.0000000000000000e+00 0.0000000000000000e+00  0.0000000000000000e+00 0.0000000000000000e+00 0.0000000000000000e+00  0.0000000000000000e+00 0.0000000000000000e+00 0.0000000000000000e+00  0.0000000000000000e+00 0.0000000000000000e+00 0.0000000000000000e+00  0.0000000000000000e+00 0.0000000000000000e+00 0.0000000000000000e+00  0.0000000000000000e+00 0.0000000000000000e+00 0.0000000000000000e+00  0.0000000000000000e+00 0.0000000000000000e+00 0.0000000000000000e+00  0.0000000000000000e+00 0.0000000000000000e+00 0.0000000000000000e+00  0.0000000000000000e+00 0.0000000000000000e+00 0.0000000000000000e+00  0.0000000000000000e+00 0.0000000000000000e+00 0.0000000000000000e+00  0.0000000000000000e+00 0.0000000000000000e+00 0.0000000000000000e+00  0.0000000000000000e+00 0.0000000000000000e+00 0.0000000000000000e+00  0.0000000000000000e+00 0.0000000000000000e+00 0.0000000000000000e+00  0.0000000000000000e+00 0.0000000000000000e+00 0.0000000000000000e+00  0.0000000000000000e+00 0.0000000000000000e+00 0.0000000000000000e+00  0.0000000000000000e+00 0.0000000000000000e+00 0.0000000000000000e+00  0.0000000000000000e+00 0.0000000000000000e+00 0.0000000000000000e+00  0.0000000000000000e+00 0.0000000000000000e+00 0.0000000000000000e+00  0.0000000000000000e+00 0.0000000000000000e+00 0.0000000000000000e+00  0.0000000000000000e+00 0.0000000000000000e+00 0.0000000000000000e+00  0.0000000000000000e+00 0.0000000000000000e+00 0.0000000000000000e+00  0.0000000000000000e+00 0.0000000000000000e+00 0.0000000000000000e+00  0.0000000000000000e+00 0.0000000000000000e+00 0.0000000000000000e+00  0.0000000000000000e+00 0.0000000000000000e+00 0.0000000000000000e+00  0.0000000000000000e+00 0.0000000000000000e+00 0.0000000000000000e+00  0.0000000000000000e+00 0.0000000000000000e+00 0.0000000000000000e+00  0.0000000000000000e+00 0.0000000000000000e+00 0.0000000000000000e+00  0.0000000000000000e+00 0.0000000000000000e+00 0.0000000000000000e+00  0.0000000000000000e+00 0.0000000000000000e+00 0.0000000000000000e+00  0.0000000000000000e+00 0.0000000000000000e+00 0.0000000000000000e+00  0.0000000000000000e+00 0.0000000000000000e+00 0.0000000000000000e+00  0.0000000000000000e+00 0.0000000000000000e+00 0.0000000000000000e+00  0.0000000000000000e+00 0.0000000000000000e+00 0.0000000000000000e+00  0.0000000000000000e+00 0.0000000000000000e+00 0.0000000000000000e+00  0.0000000000000000e+00 0.0000000000000000e+00 0.0000000000000000e+00  0.0000000000000000e+00 0.0000000000000000e+00 0.0000000000000000e+00  0.0000000000000000e+00 0.0000000000000000e+00 0.0000000000000000e+00  0.0000000000000000e+00 0.0000000000000000e+00 0.0000000000000000e+00  0.0000000000000000e+00 0.0000000000000000e+00 0.0000000000000000e+00  0.0000000000000000e+00 0.0000000000000000e+00 0.0000000000000000e+00  0.0000000000000000e+00 0.0000000000000000e+00 0.0000000000000000e+00  0.0000000000000000e+00 0.0000000000000000e+00 0.0000000000000000e+00  0.0000000000000000e+00 0.0000000000000000e+00 0.0000000000000000e+00  0.0000000000000000e+00 0.0000000000000000e+00 0.0000000000000000e+00  0.0000000000000000e+00 0.0000000000000000e+00 0.0000000000000000e+00  0.0000000000000000e+00 0.0000000000000000e+00 0.0000000000000000e+00  0.0000000000000000e+00 0.0000000000000000e+00 0.0000000000000000e+00  0.0000000000000000e+00 0.0000000000000000e+00 0.0000000000000000e+00  0.0000000000000000e+00 0.0000000000000000e+00 0.0000000000000000e+00  0.0000000000000000e+00 0.0000000000000000e+00 0.0000000000000000e+00  0.0000000000000000e+00 0.0000000000000000e+00 0.0000000000000000e+00  0.0000000000000000e+00 0.0000000000000000e+00 0.0000000000000000e+00  0.0000000000000000e+00 0.0000000000000000e+00 0.0000000000000000e+00  0.0000000000000000e+00 0.0000000000000000e+00 0.0000000000000000e+00  0.0000000000000000e+00 0.0000000000000000e+00 0.0000000000000000e+00  0.0000000000000000e+00 0.0000000000000000e+00 0.0000000000000000e+00  0.0000000000000000e+00 0.0000000000000000e+00 0.0000000000000000e+00  0.0000000000000000e+00 0.0000000000000000e+00 0.0000000000000000e+00  0.0000000000000000e+00 0.0000000000000000e+00 0.0000000000000000e+00  0.0000000000000000e+00 0.0000000000000000e+00 0.0000000000000000e+00  0.0000000000000000e+00 0.0000000000000000e+00 0.0000000000000000e+00  0.0000000000000000e+00 0.0000000000000000e+00 0.0000000000000000e+00  0.0000000000000000e+00 0.0000000000000000e+00 0.0000000000000000e+00  0.0000000000000000e+00 0.0000000000000000e+00 0.0000000000000000e+00  0.0000000000000000e+00 0.0000000000000000e+00 0.0000000000000000e+00  0.0000000000000000e+00 0.0000000000000000e+00 0.0000000000000000e+00  0.0000000000000000e+00 0.0000000000000000e+00 0.0000000000000000e+00  0.0000000000000000e+00 0.0000000000000000e+00 0.0000000000000000e+00  0.0000000000000000e+00 0.0000000000000000e+00 0.0000000000000000e+00  0.0000000000000000e+00 0.0000000000000000e+00 0.0000000000000000e+00  0.0000000000000000e+00 0.0000000000000000e+00 0.0000000000000000e+00  0.0000000000000000e+00 0.0000000000000000e+00 0.0000000000000000e+00  0.0000000000000000e+00 0.0000000000000000e+00 0.0000000000000000e+00  0.0000000000000000e+00 0.0000000000000000e+00 0.0000000000000000e+00  0.0000000000000000e+00 0.0000000000000000e+00 0.0000000000000000e+00  0.0000000000000000e+00 0.0000000000000000e+00 0.0000000000000000e+00  0.0000000000000000e+00 0.0000000000000000e+00 0.0000000000000000e+00  0.0000000000000000e+00 0.0000000000000000e+00 0.0000000000000000e+00  0.0000000000000000e+00 0.0000000000000000e+00 0.0000000000000000e+00  0.0000000000000000e+00 0.0000000000000000e+00 0.0000000000000000e+00  0.0000000000000000e+00 0.0000000000000000e+00 0.0000000000000000e+00  0.0000000000000000e+00 0.0000000000000000e+00 0.0000000000000000e+00  -7.0888687685120723e-06 6.8829636022189723e-06 0.0000000000000000e+00  -1.5002268212956381e-05 1.5107780193734472e-05 0.0000000000000000e+00  -2.1936778393229787e-05 2.8238570192059827e-05 0.0000000000000000e+00  -2.9297454574912211e-05 4.6568292348275422e-05 0.0000000000000000e+00  -3.5376450565711885e-05 6.9110755436992645e-05 0.0000000000000000e+00  -4.2071452476861938e-05 9.6248148787390182e-05 0.0000000000000000e+00  -4.7399258590391326e-05 1.2668800979181630e-04 0.0000000000000000e+00  -5.2440591961186652e-05 1.6139021325741064e-04 0.0000000000000000e+00  -5.8056616609171940e-05 1.9924246340463403e-04 0.0000000000000000e+00  -6.2266037433009630e-05 2.4027379601393429e-04 0.0000000000000000e+00  -6.7198193483986621e-05 2.8438506091130081e-04 0.0000000000000000e+00  -7.0839333374285863e-05 3.3118256928508063e-04 0.0000000000000000e+00  -7.4940461270088678e-05 3.8053331232203137e-04 0.0000000000000000e+00  -7.8133825324146176e-05 4.3186634108846107e-04 0.0000000000000000e+00  -8.1098796901916379e-05 4.8555734627976643e-04 0.0000000000000000e+00  -8.4298293849969814e-05 5.4095284262551855e-04 0.0000000000000000e+00  -8.6665600575436169e-05 5.9800238132721453e-04 0.0000000000000000e+00  -8.9314457266886254e-05 6.5662886693354256e-04 0.0000000000000000e+00  -9.1246793519110690e-05 7.1652499184220566e-04 0.0000000000000000e+00  -9.3358880098246230e-05 7.7760928046120305e-04 0.0000000000000000e+00  -9.4984716584889853e-05 8.3971021387742534e-04 0.0000000000000000e+00  -9.6635093307119246e-05 9.0276874884335991e-04 0.0000000000000000e+00  -9.7931388436955569e-05 9.6647011446053727e-04 0.0000000000000000e+00  -9.9089262131664979e-05 1.0309552726970165e-03 0.0000000000000000e+00  -1.0026399199895031e-04 1.0959411536588088e-03 0.0000000000000000e+00  -1.0119210196465044e-04 1.1614538684545244e-03 0.0000000000000000e+00  -1.0204934475946010e-04 1.2274199068483275e-03 0.0000000000000000e+00  -1.0276577627677766e-04 1.2936908196645119e-03 0.0000000000000000e+00  -1.0341435890745684e-04 1.3602967388648783e-03 0.0000000000000000e+00  -1.0395538085141616e-04 1.4271030290300382e-03 0.0000000000000000e+00  -1.0443676494197290e-04 1.4941311315438868e-03 0.0000000000000000e+00  -1.0483548880881583e-04 1.5612720750421032e-03 0.0000000000000000e+00  -1.0518547526398849e-04 1.6285457878137388e-03 0.0000000000000000e+00  -1.0547317333649667e-04 1.6958681070847075e-03 0.0000000000000000e+00  -1.0572039002724712e-04 1.7632614102349208e-03 0.0000000000000000e+00  -1.0592932251440080e-04 1.8306672114593752e-03 0.0000000000000000e+00  -1.0611117276521114e-04 1.8981002568776056e-03 0.0000000000000000e+00  -1.0627068850741488e-04 1.9655286218190097e-03 0.0000000000000000e+00  -1.0641296899031962e-04 2.0329622407781215e-03 0.0000000000000000e+00  -1.0654571333024432e-04 2.1003883506623038e-03 0.0000000000000000e+00  -1.0667148520208781e-04 2.1678109776214695e-03 0.0000000000000000e+00  -1.0679616585190389e-04 2.2352305238575758e-03 0.0000000000000000e+00  -1.0691627188198435e-04 2.3026540564684158e-03 0.0000000000000000e+00  -1.0703886485920403e-04 2.3700820957864533e-03 0.0000000000000000e+00  -1.0716252394749634e-04 2.4375243187535816e-03 0.0000000000000000e+00  -1.0728039563958444e-04 2.5049763349468315e-03 0.0000000000000000e+00  -6.2257930662370110e-05 2.5725089850405529e-03 0.0000000000000000e+00  2.8082728964435293e-05 2.5726788953952875e-03 0.0000000000000000e+00  7.3397692224783315e-05 2.5052660200011196e-03 0.0000000000000000e+00  7.3497139636527728e-05 2.4377963577647669e-03 0.0000000000000000e+00  7.3604181406445118e-05 2.3703428398977725e-03 0.0000000000000000e+00  7.3712612162684559e-05 2.3028952158166758e-03 0.0000000000000000e+00  7.3826494152788005e-05 2.2354499746432806e-03 0.0000000000000000e+00  7.3951257219603226e-05 2.1680038254751652e-03 0.0000000000000000e+00  7.4080997726538400e-05 2.1005524788568486e-03 0.0000000000000000e+00  7.4218405472215008e-05 2.0330967373912582e-03 0.0000000000000000e+00  7.4357570366204238e-05 1.9656322321918180e-03 0.0000000000000000e+00  7.4501211609229363e-05 1.8981633798351675e-03 0.0000000000000000e+00  7.4636554815370792e-05 1.8306948191342089e-03 0.0000000000000000e+00  7.4776262631283058e-05 1.7632394312334994e-03 0.0000000000000000e+00  7.4889110671662800e-05 1.6958077709034465e-03 0.0000000000000000e+00  7.5006270863683960e-05 1.6284270959895820e-03 0.0000000000000000e+00  7.5066588702349553e-05 1.5611120282332570e-03 0.0000000000000000e+00  7.5137695000164348e-05 1.4939079805662209e-03 0.0000000000000000e+00  7.5113808306483647e-05 1.4268348934534858e-03 0.0000000000000000e+00  7.5114575408509902e-05 1.3599560290758887e-03 0.0000000000000000e+00  7.4973772561163495e-05 1.2932987365190868e-03 0.0000000000000000e+00  7.4878844237493523e-05 1.2269432375550345e-03 0.0000000000000000e+00  7.4579220094134316e-05 1.1609229967566102e-03 0.0000000000000000e+00  7.4352686385597362e-05 1.0953387588232564e-03 0.0000000000000000e+00  7.3861042981535570e-05 1.0302455566134103e-03 0.0000000000000000e+00  7.3426238093871345e-05 9.6568280845356228e-04 0.0000000000000000e+00  7.2900320931783126e-05 9.0190458008786764e-04 0.0000000000000000e+00  7.2068865388057169e-05 8.3873345105385240e-04 0.0000000000000000e+00  7.1233654403973150e-05 7.7657131876351720e-04 0.0000000000000000e+00  7.0109710228697552e-05 7.1534892938893754e-04 0.0000000000000000e+00  6.8933178659192663e-05 6.5537359288732691e-04 0.0000000000000000e+00  6.7425736998123675e-05 5.9664617122078478e-04 0.0000000000000000e+00  6.5858186890689318e-05 5.3941906816801308e-04 0.0000000000000000e+00  6.3700011214466642e-05 4.8403034994404942e-04 0.0000000000000000e+00  6.1770976180974352e-05 4.3020315020980872e-04 0.0000000000000000e+00  5.9636947961302781e-05 3.7879881225851551e-04 0.0000000000000000e+00  5.6740471458288420e-05 3.2917046494001649e-04 0.0000000000000000e+00  5.3914857850760553e-05 2.8235068289947195e-04 0.0000000000000000e+00  5.0523641778335611e-05 2.3810524050285175e-04 0.0000000000000000e+00  4.7142799943621892e-05 1.9682381475090847e-04 0.0000000000000000e+00  4.2793086971037368e-05 1.5904818455679255e-04 0.0000000000000000e+00  3.8968233030934030e-05 1.2417644684434707e-04 0.0000000000000000e+00  3.4901449111030717e-05 9.3636710973781268e-05 0.0000000000000000e+00  2.9581927272094531e-05 6.6268072296584812e-05 0.0000000000000000e+00  2.4635775629558512e-05 4.3534520432991123e-05 0.0000000000000000e+00  1.8533966844169047e-05 2.5355467098800472e-05 0.0000000000000000e+00  1.2980119929991625e-05 1.2131367164717852e-05 0.0000000000000000e+00  6.1648307156674844e-06 4.0091487803336418e-06 0.0000000000000000e+00  -5.6640194145728317e-07 5.8856486142119975e-06 0.0000000000000000e+00  -1.8068677973051428e-05 2.4712298048679437e-03 0.0000000000000000e+00  -1.8537234641480120e-05 2.3423229986289183e-03 0.0000000000000000e+00  -1.7322767095125109e-05 2.1317784542433942e-03 0.0000000000000000e+00  -1.9234601675464615e-06 3.2249957473726676e-05 0.0000000000000000e+00  -1.6042202604832901e-05 1.9993030204228743e-03 0.0000000000000000e+00  -2.7463635859040925e-06 7.5763566606236498e-05 0.0000000000000000e+00  -1.5738345952034554e-05 1.8643926542305630e-03 0.0000000000000000e+00  -4.4252027099594367e-06 1.7805115189666835e-04 0.0000000000000000e+00  -6.2418516322131815e-06 2.5908376606494912e-04 0.0000000000000000e+00  -1.5391386510007907e-05 1.7295064911590351e-03 0.0000000000000000e+00  -7.9553397424819222e-06 5.1340835344728113e-04 0.0000000000000000e+00  -1.4538171281877469e-05 1.4603570274061798e-03 0.0000000000000000e+00  -6.4657551567341044e-06 3.4897458109282219e-04 0.0000000000000000e+00  -9.9012108739870993e-06 6.2555704928201076e-04 0.0000000000000000e+00  -1.4022786014204055e-05 1.3265973447835662e-03 0.0000000000000000e+00  -1.4993028136426676e-05 1.5947599435244626e-03 0.0000000000000000e+00  -1.0815472349758766e-05 7.4563492025054071e-04 0.0000000000000000e+00  -1.3437949503863167e-05 1.1938764312410428e-03 0.0000000000000000e+00  -1.0528528063531887e-05 8.6497308197887172e-04 0.0000000000000000e+00  -1.3907474835880690e-05 1.0653768120969230e-03 0.0000000000000000e+00  -1.2180691374719507e-05 9.6047709755481118e-04 0.0000000000000000e+00  -8.2364378082343905e-06 4.2543604022974365e-04 0.0000000000000000e+00  -1.6346322247698946e-05 2.2412422609560936e-03 0.0000000000000000e+00  -4.0845637317900705e-06 1.2097067479473233e-04 0.0000000000000000e+00  1.3417150935874991e-05 2.4063547551604605e-03 0.0000000000000000e+00  4.9262324199310581e-06 1.6357121096871825e-05 0.0000000000000000e+00  1.0371634302676448e-05 1.9318627557218225e-03 0.0000000000000000e+00  1.0087503108635477e-05 2.0667722093192838e-03 0.0000000000000000e+00  -1.2996186109656648e-05 5.3677437710204536e-05 0.0000000000000000e+00  -2.1541753976075211e-05 2.1684584509520588e-04 0.0000000000000000e+00  1.1361292573976861e-05 1.5274848276768634e-03 0.0000000000000000e+00  1.0681819533467581e-05 1.7969453924128339e-03 0.0000000000000000e+00  -3.1546808141407031e-05 5.6787619595496442e-04 0.0000000000000000e+00  1.1707452260923065e-05 1.3933510460751313e-03 0.0000000000000000e+00  -2.4806835433653642e-05 3.0526574097577145e-04 0.0000000000000000e+00  -3.3577367961434482e-05 6.8527542362949764e-04 0.0000000000000000e+00  1.2041618401623927e-05 1.2600467593226752e-03 0.0000000000000000e+00  1.1015091794337011e-05 1.6620999187588897e-03 0.0000000000000000e+00  -4.0613294534574165e-05 8.0697477110112058e-04 0.0000000000000000e+00  1.2356077114486334e-05 1.1280119241419610e-03 0.0000000000000000e+00  -1.2346389770073277e-06 1.6556350355669903e-06 0.0000000000000000e+00  9.5987145375320585e-07 8.7989648918513452e-07 0.0000000000000000e+00  -3.8968050513302529e-05 2.5242585541415752e-03 0.0000000000000000e+00  -8.1042088357343168e-06 1.7557371768376200e-05 0.0000000000000000e+00  1.8490280628676754e-05 1.0122608713566542e-03 0.0000000000000000e