<?xml version="1.0"?>
<VTKFile type="UnstructuredGrid"  version="0.1"  >
<UnstructuredGrid>
<Piece  NumberOfPoints="1419" NumberOfCells="2698">
<Points>
<DataArray  type="Float64"  NumberOfComponents="3"  format="ascii">0 0 0  0 0.41 0  2.5 0 0  2.5 0.41 0  0.6 0.19 0  0.6 0.21 0  0.25 0.2 0  0.15 0.2 0  0.2489897948556636 0.21 0  0.2489897948556636 0.19 0  0.6 0.2 0  0 0.3807142857143437 0  0 0.3514285714286952 0  0 0.3221428571430699 0  0 0.29285714285744 0  0 0.2635714285718054 0  0 0.2342857142861561 0  0 0.2050000000005308 0  0 0.175714285714732 0  0 0.1464285714289574 0  0 0.1171428571431897 0  0 0.08785714285737878 0  0 0.05857142857161107 0  0 0.02928571428580012 0  0.03015443760436003 0 0  0.06140001986583606 0 0  0.09377624077125973 0 0  0.1273239957535082 0 0  0.1620856860351972 0 0  0.1981052433264291 0 0  0.235428184091502 0 0  0.2741016576309132 0 0  0.3141745521465447 0 0  0.3556974926295285 0 0  0.3987229542472677 0 0  0.4433053055141081 0 0  0.4895008759286886 0 0  0.5373680609405097 0 0  0.5869673343216626 0 0  0.6383613676634521 0 0  0.6916151138468254 0 0  0.7467958595648856 0 0  0.8039733463919316 0 0  0.8632198139502143 0 0  0.9246101326867038 0 0  0.9882218810934433 0 0  1.054135445558498 0 0  1.122434100542598 0 0  1.193204177141305 0 0  1.266535089879536 0 0  1.342519516046404 0 0  1.421253448503939 0 0  1.502836389106271 0 0  1.587371439758838 0 0  1.674965418777374 0 0  1.765729001825544 0 0  1.859776908880082 0 0  1.957227977487062 0 0  2.058205329869943 0 0  2.162836591189951 0 0  2.271253957290865 0 0  2.383594446803425 0 0  2.5 0.1024999999997612 0  2.5 0.2049999999994743 0  2.5 0.3074999999997183 0  2.383594446803656 0.41 0  2.271253957291315 0.41 0  2.162836591190598 0.41 0  2.058205329870775 0.41 0  1.957227977488067 0.41 0  1.859776908881246 0.41 0  1.765729001826854 0.41 0  1.674965418778818 0.41 0  1.58737143976041 0.41 0  1.502836389107956 0.41 0  1.421253448505726 0.41 0  1.342519516048286 0.41 0  1.266535089881505 0.41 0  1.193204177143353 0.41 0  1.122434100544716 0.41 0  1.05413544556068 0.41 0  0.9882218810956305 0.41 0  0.9246101326886647 0.41 0  0.8632198139519631 0.41 0  0.8039733463934788 0.41 0  0.7467958595662458 0.41 0  0.6916151138480078 0.41 0  0.6383613676644679 0.41 0  0.5869673343225223 0.41 0  0.5373680609412221 0.41 0  0.4895008759292634 0.41 0  0.4433053055145528 0.41 0  0.3987229542475914 0.41 0  0.3556974926297398 0.41 0  0.3141745521466497 0.41 0  0.2741016576310038 0.41 0  0.2354281840915826 0.41 0  0.1981052433265003 0.41 0  0.1620856860352591 0.41 0  0.1273239957535623 0.41 0  0.09377624077128965 0.41 0  0.06140001986584975 0.41 0  0.03015443760436654 0.41 0  0.2497468076502589 0.2050254481002335 0  0.2497468076502614 0.1949745518997913 0  0.2469965252529372 0.1829317073451959 0  0.2439893735792749 0.1762316384219906 0  0.2400332147834255 0.1700443375285386 0  0.2352133972704371 0.1645032867342007 0  0.2296339016332438 0.1597280261969788 0  0.2234150974217223 0.1558215752574715 0  0.2166911463437691 0.1528682099456123 0  0.2096071079204251 0.1509316448471593 0  0.2023158100364996 0.1500536585536553 0  0.194974551899914 0.1502531923497262 0  0.1877417105387872 0.1515259415822739 0  0.1807733240461124 0.153844448527136 0  0.1742197252835808 0.15715869474974 0  0.1682222986673531 0.1613971801805478 0  0.162910430003803 0.1664684656256651 0  0.1583987151779087 0.1722631454351573 0  0.1547844879126891 0.178656207771761 0  0.1521457199348551 0.1855097315605723 0  0.1505393388476355 0.1926758619366523 0  0.1505393388476328 0.2073241380633295 0  0.1521457199348437 0.2144902684393899 0  0.1547844879126531 0.221343792228163 0  0.1583987151778488 0.2277368545647528 0  0.1629104300036858 0.2335315343742052 0  0.1682222986671726 0.2386028198193036 0  0.1742197252833576 0.2428413052501257 0  0.1807733240458683 0.2461555514727623 0  0.1877417105384929 0.2484740584176516 0  0.1949745518995776 0.2497468076502398 0  0.202315810036185 0.2499463414463592 0  0.2096071079201568 0.2490683551528932 0  0.2166911463435495 0.2471317900544655 0  0.2234150974215506 0.2441784247426195 0  0.2296339016331197 0.2402719738031125 0  0.2352133972703547 0.2354967132658811 0  0.2400332147833751 0.2299556624715287 0  0.2439893735792577 0.2237683615780412 0  0.246996525252926 0.2170682926548348 0  0.25645809709277 0.21 0  0.2639263993298655 0.21 0  0.271394701566961 0.21 0  0.2788630038040554 0.21 0  0.2863313060411479 0.21 0  0.2937996082782405 0.21 0  0.301267910515333 0.21 0  0.3087362127524279 0.21 0  0.3162045149895234 0.21 0  0.3236728172265972 0.21 0  0.3311411194636928 0.21 0  0.3386094217007701 0.21 0  0.3460777239378666 0.21 0  0.3535460261749672 0.21 0  0.3610143284120516 0.21 0  0.3684826306491596 0.21 0  0.3759509328862226 0.21 0  0.383419235123329 0.21 0  0.3908875373604028 0.21 0  0.3983558395975142 0.21 0  0.4058241418345938 0.21 0  0.4132924440716992 0.21 0  0.4207607463087888 0.21 0  0.4282290485459029 0.21 0  0.4356973507830418 0.21 0  0.4431656530201649 0.21 0  0.4506339552573136 0.21 0  0.4581022574944306 0.21 0  0.4655705597315852 0.21 0  0.4730388619686996 0.21 0  0.480507164205851 0.21 0  0.4879754664429498 0.21 0  0.4954437686800938 0.21 0  0.502912070917267 0.21 0  0.5103803731544119 0.21 0  0.5178486753915261 0.21 0  0.5253169776286404 0.21 0  0.5327852798657868 0.21 0  0.5402535821029386 0.21 0  0.54772188434007 0.21 0  0.5551901865771842 0.21 0  0.5626584888143201 0.21 0  0.5701267910514778 0.21 0  0.5775950932886138 0.21 0  0.5850633955257281 0.21 0  0.5925316977628483 0.21 0  0.6 0.2050000000000054 0  0.6 0.1950000000000217 0  0.5925316977628897 0.19 0  0.5850633955257988 0.19 0  0.5775950932887378 0.19 0  0.5701267910515998 0.19 0  0.5626584888145268 0.19 0  0.5551901865773963 0.19 0  0.547721884340339 0.19 0  0.5402535821032429 0.19 0  0.5327852798661811 0.19 0  0.5253169776290537 0.19 0  0.5178486753919799 0.19 0  0.5103803731549078 0.19 0  0.502912070917822 0.19 0  0.4954437686807294 0.19 0  0.4879754664436223 0.19 0  0.4805071642065402 0.19 0  0.4730388619694271 0.19 0  0.4655705597323621 0.19 0  0.4581022574952563 0.19 0  0.4506339552581777 0.19 0  0.4431656530210671 0.19 0  0.4356973507839815 0.19 0  0.4282290485468779 0.19 0  0.4207607463097617 0.19 0  0.4132924440726327 0.19 0  0.4058241418354857 0.19 0  0.3983558395983636 0.19 0  0.3908875373612097 0.19 0  0.3834192351240934 0.19 0  0.3759509328869369 0.19 0  0.3684826306498175 0.19 0  0.361014328412667 0.19 0  0.3535460261755617 0.19 0  0.3460777239384295 0.19 0  0.3386094217012945 0.19 0  0.3311411194641595 0.19 0  0.3236728172270245 0.19 0  0.3162045149898895 0.19 0  0.3087362127527544 0.19 0  0.3012679105156187 0.19 0  0.2937996082784807 0.19 0  0.2863313060413428 0.19 0  0.2788630038042048 0.19 0  0.2713947015670686 0.19 0  0.2639263993299336 0.19 0  0.2564580970927985 0.19 0  0.2607803159922026 0.2000727136295815 0  0.5887803774232762 0.2001272386983733 0  0.5745072403740523 0.2002044435018727 0  0.5511891430099709 0.2001122610077113 0  0.2751288526855082 0.20000000000002 0  0.5365194309847112 0.1999999999999436 0  0.2894621222999649 0.1998691686390484 0  0.5215828265105155 0.1999999999999228 0  0.3127789816668748 0.1998657885438805 0  0.3274069683451451 0.2000000000000796 0  0.5066462220363641 0.199999999999908 0  0.3650630746574081 0.199866017807523 0  0.476773013087985 0.1999999999998713 0  0.3417402379596385 0.1998691686391011 0  0.3796850840047755 0.200000000000134 0  0.4618364086138087 0.1999999999998546 0  0.4917096175621762 0.1999999999998808 0  0.3946216884789568 0.2000000000001512 0  0.446899804139621 0.1999999999998389 0  0.4089549580935208 0.1998691686391595 0  0.4322718174608562 0.200127451265745 0  0.4201487168029707 0.1999966199048527 0  0.3528922713220932 0.2000185703532356 0  0.5633122436674589 0.1999814296467508 0  0.3006558810093873 0.1999966199048318 0  0.5815926498168407 0.1966545283159175 0  0.2677053789419034 0.1964246479135325 0  0.5290511287476175 0.1970915826863981 0  0.5439877332217911 0.197091582686394 0  0.2825131256993216 0.2035478995978015 0  0.3199386661080599 0.202908417313604 0  0.4842413153250809 0.1970915826863873 0  0.5141145242734466 0.1970915826863843 0  0.3722167817676917 0.2029084173136195 0  0.4693047108508938 0.1970915826863783 0  0.3348752705822316 0.202908417313609 0  0.3871533862418661 0.2029084173136212 0  0.4543681063767183 0.1970915826863795 0  0.4991779197992749 0.1970915826863902 0  0.4020059614928624 0.203547899597858 0  0.4394315019025246 0.1970915826863714 0  0.2550657455369551 0.2034088125358657 0  0.2548908499171161 0.1966940311614271 0  0.5946539510196798 0.2024302972968126 0  0.267698176732111 0.2039977513680092 0  0.4261685417851465 0.196409292431739 0  0.3590076176283495 0.196411355804271 0  0.5571672426447437 0.2036011176410121 0  0.3066757059912147 0.1964092924317024 0  0.594380730180568 0.1966558399668133 0  0.4842413153245942 0.2040749161535287 0  0.4693047108503577 0.2040749161535231 0  0.3871533862424271 0.1959250838464788 0  0.372246743208829 0.1959123236376545 0  0.5141145242731028 0.2040749161535395 0  0.4543681063761134 0.2040749161535186 0  0.4019979587101454 0.1959834479682427 0  0.4394608940728603 0.2040870543693135 0  0.5439623148931173 0.2040856076781014 0  0.5290511287473298 0.2040749161535501 0  0.4991779197988497 0.2040749161535382 0  0.3347912413592433 0.1959225448935183 0  0.3199680582793816 0.1959123018030061 0  0.2825051229162361 0.1959834479681729 0  0.3590471196690275 0.2036304442587945 0  0.5571594006495384 0.1963685282145804 0  0.3067669986803285 0.203627750582736 0  0.4262598344738712 0.2036568242185335 0  0.5814408164431408 0.2041285596160068 0  0.5688286748170428 0.1961819304477386 0  0.4145905603063645 0.2038180695522843 0  0.3473758401724931 0.2038180695522752 0  0.2950977245128307 0.2038180695522663 0  0.5688286748170693 0.203818069552238 0  0.2950977245127906 0.1961819304477774 0  0.3473758401723931 0.1961819304478349 0  0.4145905603061963 0.1961819304479011 0  0.2601812407614425 0.2056861609747042
[...]
<PointData  Vectors="f_40-0"> 
<DataArray  type="Float64"  Name="f_40-0"  NumberOfComponents="3" format="ascii">0.0000000000000000e+00 0.0000000000000000e+00 0.0000000000000000e+00  0.0000000000000000e+00 0.0000000000000000e+00 0.0000000000000000e+00  0.0000000000000000e+00 0.0000000000000000e+00 0.0000000000000000e+00  0.0000000000000000e+00 0.0000000000000000e+00 0.0000000000000000e+00  2.0742804755645749e-09 1.0847807401548985e-08 0.0000000000000000e+00  -2.1335684239448538e-09 7.4050523637468833e-09 0.0000000000000000e+00  0.0000000000000000e+00 0.0000000000000000e+00 0.0000000000000000e+00  0.0000000000000000e+00 0.0000000000000000e+00 0.0000000000000000e+00  0.0000000000000000e+00 0.0000000000000000e+00 0.0000000000000000e+00  0.0000000000000000e+00 0.0000000000000000e+00 0.0000000000000000e+00  -1.8441010019070977e-10 -6.7230971314954589e-09 0.0000000000000000e+00  7.9591836734548405e-01 0.0000000000000000e+00 0.0000000000000000e+00  1.4693877550994523e+00 0.0000000000000000e+00 0.0000000000000000e+00  2.0204081632617479e+00 0.0000000000000000e+00 0.0000000000000000e+00  2.4489795918330071e+00 0.0000000000000000e+00 0.0000000000000000e+00  2.7551020408131754e+00 0.0000000000000000e+00 0.0000000000000000e+00  2.9387755102022344e+00 0.0000000000000000e+00 0.0000000000000000e+00  3.0000000000000004e+00 0.0000000000000000e+00 0.0000000000000000e+00  2.9387755102059474e+00 0.0000000000000000e+00 0.0000000000000000e+00  2.7551020408195543e+00 0.0000000000000000e+00 0.0000000000000000e+00  2.4489795918409065e+00 0.0000000000000000e+00 0.0000000000000000e+00  2.0204081632692521e+00 0.0000000000000000e+00 0.0000000000000000e+00  1.4693877551058563e+00 0.0000000000000000e+00 0.0000000000000000e+00  7.9591836734909216e-01 0.0000000000000000e+00 0.0000000000000000e+00  0.0000000000000000e+00 0.0000000000000000e+00 0.0000000000000000e+00  0.0000000000000000e+00 0.0000000000000000e+00 0.0000000000000000e+00  0.0000000000000000e+00 0.0000000000000000e+00 0.0000000000000000e+00  0.0000000000000000e+00 0.0000000000000000e+00 0.0000000000000000e+00  0.0000000000000000e+00 0.0000000000000000e+00 0.0000000000000000e+00  0.0000000000000000e+00 0.0000000000000000e+00 0.0000000000000000e+00  0.0000000000000000e+00 0.0000000000000000e+00 0.0000000000000000e+00  0.0000000000000000e+00 0.0000000000000000e+00 0.0000000000000000e+00  0.0000000000000000e+00 0.0000000000000000e+00 0.0000000000000000e+00  0.0000000000000000e+00 0.0000000000000000e+00 0.0000000000000000e+00  0.0000000000000000e+00 0.0000000000000000e+00 0.0000000000000000e+00  0.0000000000000000e+00 0.0000000000000000e+00 0.0000000000000000e+00  0.0000000000000000e+00 0.0000000000000000e+00 0.0000000000000000e+00  0.0000000000000000e+00 0.0000000000000000e+00 0.0000000000000000e+00  0.0000000000000000e+00 0.0000000000000000e+00 0.0000000000000000e+00  0.0000000000000000e+00 0.0000000000000000e+00 0.0000000000000000e+00  0.0000000000000000e+00 0.0000000000000000e+00 0.0000000000000000e+00  0.0000000000000000e+00 0.0000000000000000e+00 0.0000000000000000e+00  0.0000000000000000e+00 0.0000000000000000e+00 0.0000000000000000e+00  0.0000000000000000e+00 0.0000000000000000e+00 0.0000000000000000e+00  0.0000000000000000e+00 0.0000000000000000e+00 0.0000000000000000e+00  0.0000000000000000e+00 0.0000000000000000e+00 0.0000000000000000e+00  0.0000000000000000e+00 0.0000000000000000e+00 0.0000000000000000e+00  0.0000000000000000e+00 0.0000000000000000e+00 0.0000000000000000e+00  0.0000000000000000e+00 0.0000000000000000e+00 0.0000000000000000e+00  0.0000000000000000e+00 0.0000000000000000e+00 0.0000000000000000e+00  0.0000000000000000e+00 0.0000000000000000e+00 0.0000000000000000e+00  0.0000000000000000e+00 0.0000000000000000e+00 0.0000000000000000e+00  0.0000000000000000e+00 0.0000000000000000e+00 0.0000000000000000e+00  0.0000000000000000e+00 0.0000000000000000e+00 0.0000000000000000e+00  0.0000000000000000e+00 0.0000000000000000e+00 0.0000000000000000e+00  0.0000000000000000e+00 0.0000000000000000e+00 0.0000000000000000e+00  0.0000000000000000e+00 0.0000000000000000e+00 0.0000000000000000e+00  0.0000000000000000e+00 0.0000000000000000e+00 0.0000000000000000e+00  0.0000000000000000e+00 0.0000000000000000e+00 0.0000000000000000e+00  0.0000000000000000e+00 0.0000000000000000e+00 0.0000000000000000e+00  0.0000000000000000e+00 0.0000000000000000e+00 0.0000000000000000e+00  0.0000000000000000e+00 0.0000000000000000e+00 0.0000000000000000e+00  2.6635141219743255e+00 1.8867045451929187e-02 0.0000000000000000e+00  2.3248057915490148e+00 1.8911712740867351e-02 0.0000000000000000e+00  2.8346738824519515e+00 7.1606438239054840e-02 0.0000000000000000e+00  0.0000000000000000e+00 0.0000000000000000e+00 0.0000000000000000e+00  0.0000000000000000e+00 0.0000000000000000e+00 0.0000000000000000e+00  0.0000000000000000e+00 0.0000000000000000e+00 0.0000000000000000e+00  0.0000000000000000e+00 0.0000000000000000e+00 0.0000000000000000e+00  0.0000000000000000e+00 0.0000000000000000e+00 0.0000000000000000e+00  0.0000000000000000e+00 0.0000000000000000e+00 0.0000000000000000e+00  0.0000000000000000e+00 0.0000000000000000e+00 0.0000000000000000e+00  0.0000000000000000e+00 0.0000000000000000e+00 0.0000000000000000e+00  0.0000000000000000e+00 0.0000000000000000e+00 0.0000000000000000e+00  0.0000000000000000e+00 0.0000000000000000e+00 0.0000000000000000e+00  0.0000000000000000e+00 0.0000000000000000e+00 0.0000000000000000e+00  0.0000000000000000e+00 0.0000000000000000e+00 0.0000000000000000e+00  0.0000000000000000e+00 0.0000000000000000e+00 0.0000000000000000e+00  0.0000000000000000e+00 0.0000000000000000e+00 0.0000000000000000e+00  0.0000000000000000e+00 0.0000000000000000e+00 0.0000000000000000e+00  0.0000000000000000e+00 0.0000000000000000e+00 0.0000000000000000e+00  0.0000000000000000e+00 0.0000000000000000e+00 0.0000000000000000e+00  0.0000000000000000e+00 0.0000000000000000e+00 0.0000000000000000e+00  0.0000000000000000e+00 0.0000000000000000e+00 0.0000000000000000e+00  0.0000000000000000e+00 0.0000000000000000e+00 0.0000000000000000e+00  0.0000000000000000e+00 0.0000000000000000e+00 0.0000000000000000e+00  0.0000000000000000e+00 0.0000000000000000e+00 0.0000000000000000e+00  0.0000000000000000e+00 0.0000000000000000e+00 0.0000000000000000e+00  0.0000000000000000e+00 0.0000000000000000e+00 0.0000000000000000e+00  0.0000000000000000e+00 0.0000000000000000e+00 0.0000000000000000e+00  0.0000000000000000e+00 0.0000000000000000e+00 0.0000000000000000e+00  0.0000000000000000e+00 0.0000000000000000e+00 0.0000000000000000e+00  0.0000000000000000e+00 0.0000000000000000e+00 0.0000000000000000e+00  0.0000000000000000e+00 0.0000000000000000e+00 0.0000000000000000e+00  0.0000000000000000e+00 0.0000000000000000e+00 0.0000000000000000e+00  0.0000000000000000e+00 0.0000000000000000e+00 0.0000000000000000e+00  0.0000000000000000e+00 0.0000000000000000e+00 0.0000000000000000e+00  0.0000000000000000e+00 0.0000000000000000e+00 0.0000000000000000e+00  0.0000000000000000e+00 0.0000000000000000e+00 0.0000000000000000e+00  0.0000000000000000e+00 0.0000000000000000e+00 0.0000000000000000e+00  0.0000000000000000e+00 0.0000000000000000e+00 0.0000000000000000e+00  0.0000000000000000e+00 0.0000000000000000e+00 0.0000000000000000e+00  0.0000000000000000e+00 0.0000000000000000e+00 0.0000000000000000e+00  0.0000000000000000e+00 0.0000000000000000e+00 0.0000000000000000e+00  0.0000000000000000e+00 0.0000000000000000e+00 0.0000000000000000e+00  0.0000000000000000e+00 0.0000000000000000e+00 0.0000000000000000e+00  0.0000000000000000e+00 0.0000000000000000e+00 0.0000000000000000e+00  0.0000000000000000e+00 0.0000000000000000e+00 0.0000000000000000e+00  0.0000000000000000e+00 0.0000000000000000e+00 0.0000000000000000e+00  0.0000000000000000e+00 0.0000000000000000e+00 0.0000000000000000e+00  0.0000000000000000e+00 0.0000000000000000e+00 0.0000000000000000e+00  0.0000000000000000e+00 0.0000000000000000e+00 0.0000000000000000e+00  0.0000000000000000e+00 0.0000000000000000e+00 0.0000000000000000e+00  0.0000000000000000e+00 0.0000000000000000e+00 0.0000000000000000e+00  0.0000000000000000e+00 0.0000000000000000e+00 0.0000000000000000e+00  0.0000000000000000e+00 0.0000000000000000e+00 0.0000000000000000e+00  0.0000000000000000e+00 0.0000000000000000e+00 0.0000000000000000e+00  0.0000000000000000e+00 0.0000000000000000e+00 0.0000000000000000e+00  0.0000000000000000e+00 0.0000000000000000e+00 0.0000000000000000e+00  0.0000000000000000e+00 0.0000000000000000e+00 0.0000000000000000e+00  0.0000000000000000e+00 0.0000000000000000e+00 0.0000000000000000e+00  0.0000000000000000e+00 0.0000000000000000e+00 0.0000000000000000e+00  0.0000000000000000e+00 0.0000000000000000e+00 0.0000000000000000e+00  0.0000000000000000e+00 0.0000000000000000e+00 0.0000000000000000e+00  0.0000000000000000e+00 0.0000000000000000e+00 0.0000000000000000e+00  0.0000000000000000e+00 0.0000000000000000e+00 0.0000000000000000e+00  0.0000000000000000e+00 0.0000000000000000e+00 0.0000000000000000e+00  0.0000000000000000e+00 0.0000000000000000e+00 0.0000000000000000e+00  0.0000000000000000e+00 0.0000000000000000e+00 0.0000000000000000e+00  0.0000000000000000e+00 0.0000000000000000e+00 0.0000000000000000e+00  0.0000000000000000e+00 0.0000000000000000e+00 0.0000000000000000e+00  0.0000000000000000e+00 0.0000000000000000e+00 0.0000000000000000e+00  0.0000000000000000e+00 0.0000000000000000e+00 0.0000000000000000e+00  0.0000000000000000e+00 0.0000000000000000e+00 0.0000000000000000e+00  0.0000000000000000e+00 0.0000000000000000e+00 0.0000000000000000e+00  0.0000000000000000e+00 0.0000000000000000e+00 0.0000000000000000e+00  0.0000000000000000e+00 0.0000000000000000e+00 0.0000000000000000e+00  0.0000000000000000e+00 0.0000000000000000e+00 0.0000000000000000e+00  0.0000000000000000e+00 0.0000000000000000e+00 0.0000000000000000e+00  0.0000000000000000e+00 0.0000000000000000e+00 0.0000000000000000e+00  0.0000000000000000e+00 0.0000000000000000e+00 0.0000000000000000e+00  0.0000000000000000e+00 0.0000000000000000e+00 0.0000000000000000e+00  0.0000000000000000e+00 0.0000000000000000e+00 0.0000000000000000e+00  3.3093453033355911e-11 -1.3177829489364116e-10 0.0000000000000000e+00  2.6615339255672517e-11 -1.8186604718686226e-10 0.0000000000000000e+00  4.2403563873042858e-11 -2.4528933782070582e-10 0.0000000000000000e+00  4.1745270651317098e-11 -2.9219109367194609e-10 0.0000000000000000e+00  6.1659660056159212e-11 -3.5689779649697660e-10 0.0000000000000000e+00  5.3448473544386364e-11 -4.5598597917066957e-10 0.0000000000000000e+00  8.3084356350969367e-11 -4.4914602517843596e-10 0.0000000000000000e+00  8.3205816039719951e-11 -6.1611106495011588e-10 0.0000000000000000e+00  8.4106055116299654e-11 -6.8943239215722051e-10 0.0000000000000000e+00  1.0426749751211078e-10 -8.0224516570661869e-10 0.0000000000000000e+00  9.8648970662586653e-11 -9.1786231426803051e-10 0.0000000000000000e+00  1.1803443622615889e-10 -1.0435472007994625e-09 0.0000000000000000e+00  1.0512676244650533e-10 -1.1724813560561562e-09 0.0000000000000000e+00  1.3825544376469594e-10 -1.3194114709948994e-09 0.0000000000000000e+00  1.2503383270502051e-10 -1.4501854761735231e-09 0.0000000000000000e+00  1.3252018345754382e-10 -1.6207132412044803e-09 0.0000000000000000e+00  1.4208016596764870e-10 -1.7687699764343182e-09 0.0000000000000000e+00  1.4098057004867202e-10 -1.9422215165599429e-09 0.0000000000000000e+00  1.4971372004720830e-10 -2.1087270399413856e-09 0.0000000000000000e+00  1.4684262771721582e-10 -2.2813920848029745e-09 0.0000000000000000e+00  1.5394384353843349e-10 -2.4607949812567413e-09 0.0000000000000000e+00  1.4524410762883773e-10 -2.5946279502979458e-09 0.0000000000000000e+00  1.7375404795824264e-10 -2.9512354064824420e-09 0.0000000000000000e+00  1.5190248664774395e-10 -2.9730202238283663e-09 0.0000000000000000e+00  1.5728391510183308e-10 -3.2143204080853102e-09 0.0000000000000000e+00  1.5880046485412291e-10 -3.3910249849730847e-09 0.0000000000000000e+00  1.5892108548084410e-10 -3.6068628187722144e-09 0.0000000000000000e+00  1.5934117923399671e-10 -3.7972906753677592e-09 0.0000000000000000e+00  1.5887257412798052e-10 -4.0015487590391006e-09 0.0000000000000000e+00  1.5838373808590808e-10 -4.2095724333385959e-09 0.0000000000000000e+00  1.5721547220104666e-10 -4.4076544773883252e-09 0.0000000000000000e+00  1.5599590577877122e-10 -4.6139618896045039e-09 0.0000000000000000e+00  1.5422854718333333e-10 -4.8276450842777612e-09 0.0000000000000000e+00  1.5197438997969802e-10 -5.0136125326596615e-09 0.0000000000000000e+00  1.4969872208012501e-10 -5.2258172912849099e-09 0.0000000000000000e+00  1.4669436758250209e-10 -5.4200409547802715e-09 0.0000000000000000e+00  1.4349474724526419e-10 -5.6212795073628778e-09 0.0000000000000000e+00  1.3974049909208576e-10 -5.8144081987935565e-09 0.0000000000000000e+00  1.3482332144458030e-10 -5.9863250410250416e-09 0.0000000000000000e+00  1.3035091016076169e-10 -6.1699387266706086e-09 0.0000000000000000e+00  1.1718144961454498e-10 -6.2221478872035650e-09 0.0000000000000000e+00  1.4324108574261084e-10 -7.0269443243992996e-09 0.0000000000000000e+00  9.8246121660456919e-11 -6.4445442365468465e-09 0.0000000000000000e+00  8.8168458847405908e-11 -6.5908245497497022e-09 0.0000000000000000e+00  7.8663114554288446e-11 -6.8994271811182120e-09 0.0000000000000000e+00  1.5287815755724734e-10 -6.3054121608466456e-09 0.0000000000000000e+00  -2.1975780265212317e-11 -7.1244594036431225e-09 0.0000000000000000e+00  -3.1297667395500631e-10 -6.5034043571395649e-09 0.0000000000000000e+00  -4.8934087346279728e-10 -6.5142676495941047e-09 0.0000000000000000e+00  -4.0682740176508672e-10 -6.7470727240439856e-09 0.0000000000000000e+00  -4.3869213461913891e-10 -6.7780981912284132e-09 0.0000000000000000e+00  -4.3033621791488995e-10 -6.4084441885768627e-09 0.0000000000000000e+00  -4.5952878273278446e-10 -7.0057767704888245e-09 0.0000000000000000e+00  -4.3626421631407325e-10 -6.2073128128397442e-09 0.0000000000000000e+00  -4.4511032401552978e-10 -6.2592844723695128e-09 0.0000000000000000e+00  -4.4209630189266396e-10 -6.0441429494675383e-09 0.0000000000000000e+00  -4.4023810918407326e-10 -5.8578074137934245e-09 0.0000000000000000e+00  -4.3773655619143160e-10 -5.6624080586695128e-09 0.0000000000000000e+00  -4.3477318520885531e-10 -5.4656357217413882e-09 0.0000000000000000e+00  -4.3132043167139599e-10 -5.2612926811395530e-09 0.0000000000000000e+00  -4.2755240098366739e-10 -5.0559051162541862e-09 0.0000000000000000e+00  -4.2326758409685047e-10 -4.8485558773185885e-09 0.0000000000000000e+00  -4.1895903421887232e-10 -4.6414275887351622e-09 0.0000000000000000e+00  -4.1369428045809985e-10 -4.4335196057935524e-09 0.0000000000000000e+00  -4.0894172993981174e-10 -4.2287147328145173e-09 0.0000000000000000e+00  -4.0256583274906722e-10 -4.0222259300510180e-09 0.0000000000000000e+00  -3.9732694010060060e-10 -3.8164528712138058e-09 0.0000000000000000e+00  -3.8969240913924129e-10 -3.6122987358261573e-09 0.0000000000000000e+00  -3.8398180157884104e-10 -3.4092397199051849e-09 0.0000000000000000e+00  -3.7582287850257645e-10 -3.2187214292531760e-09 0.0000000000000000e+00  -3.6310767193907463e-10 -2.9682790652223096e-09 0.0000000000000000e+00  -3.7039432524194643e-10 -2.9288619667777908e-09 0.0000000000000000e+00  -3.4219765283130331e-10 -2.5811775713423819e-09 0.0000000000000000e+00  -3.3915002491092751e-10 -2.4225205606064806e-09 0.0000000000000000e+00  -3.2702120220067813e-10 -2.2549386090547351e-09 0.0000000000000000e+00  -3.1790334854610692e-10 -2.0687568310008049e-09 0.0000000000000000e+00  -3.0468801780199989e-10 -1.9145655963022402e-09 0.0000000000000000e+00  -2.9495100291372686e-10 -1.7392801500284236e-09 0.0000000000000000e+00  -2.7950190137613443e-10 -1.5949862816544022e-09 0.0000000000000000e+00  -2.6739161880677477e-10 -1.4273425767310071e-09 0.0000000000000000e+00  -2.6941534354106534e-10 -1.3045801770560283e-09 0.0000000000000000e+00  -2.3276548499287473e-10 -1.1502455649898629e-09 0.0000000000000000e+00  -2.2873448264862865e-10 -1.0329516597335254e-09 0.0000000000000000e+00  -2.0830002771144943e-10 -9.0390887625236477e-10 0.0000000000000000e+00  -1.9701093663215456e-10 -7.9237150037303942e-10 0.0000000000000000e+00  -1.7344995503069537e-10 -6.8635146557881532e-10 0.0000000000000000e+00  -1.6369504458588530e-10 -5.9982065749903146e-10 0.0000000000000000e+00  -1.5333889410280793e-10 -4.3490977697044718e-10 0.0000000000000000e+00  -1.1595186028106902e-10 -4.3630425612125502e-10 0.0000000000000000e+00  -1.1069918883814391e-10 -3.5133354425854382e-10 0.0000000000000000e+00  -8.2074703436015988e-11 -2.8864988433651356e-10 0.0000000000000000e+00  -7.3222120316462283e-11 -2.2408044915663271e-10 0.0000000000000000e+00  -4.3537709792508182e-11 -1.6626620971879277e-10 0.0000000000000000e+00  -3.7569006792589865e-11 -1.3822576224316548e-10 0.0000000000000000e+00  -8.8571389787269408e-12 -4.6273879502100760e-11 0.0000000000000000e+00  -1.5305289442044149e-10 -8.1554979800955686e-09 0.0000000000000000e+00  -1.5560001764980736e-10 -7.6097814882809681e-09 0.0000000000000000e+00  -1.4809971850899842e-10 -6.9485729379530411e-09 0.0000000000000000e+00  -1.8121080139214097e-11 -1.3202932198131830e-10 0.0000000000000000e+00  -1.4567584329380521e-10 -6.5150567039932506e-09 0.0000000000000000e+00  -2.8659100598231958e-11 -2.6224226456172412e-10 0.0000000000000000e+00  -1.3955191093021958e-10 -6.0530801967610184e-09 0.0000000000000000e+00  -4.3796870441890342e-11 -5.5787287948716474e-10 0.0000000000000000e+00  -5.0178168511484415e-11 -7.9501254557666027e-10 0.0000000000000000e+00  -1.3345330834208151e-10 -5.5887688701292975e-09 0.0000000000000000e+00  -7.3783034028973988e-11 -1.5620808600509069e-09 0.0000000000000000e+00  -1.2116098027456360e-10 -4.6646741380057912e-09 0.0000000000000000e+00  -6.0979576096728051e-11 -1.0630371509684132e-09 0.0000000000000000e+00  -7.7750753231933228e-11 -1.9116961127910647e-09 0.0000000000000000e+00  -1.1493593839117817e-10 -4.2093441001143638e-09 0.0000000000000000e+00  -1.2732375777674126e-10 -5.1254190544588451e-09 0.0000000000000000e+00  -8.4993059169673520e-11 -2.2916088562294167e-09 0.0000000000000000e+00  -1.0864902256806690e-10 -3.7614867033149339e-09 0.0000000000000000e+00  -9.5605164988829069e-11 -2.6710921116585023e-09 0.0000000000000000e+00  -9.8576252944812964e-11 -3.3286029213554848e-09 0.0000000000000000e+00  -9.5454626887116374e-11 -3.0623189476029215e-09 0.0000000000000000e+00  -6.2935524574045166e-11 -1.2953912098208470e-09 0.0000000000000000e+00  -1.5500800693647954e-10 -7.6482814056275037e-09 0.0000000000000000e+00  -3.4085707279905426e-11 -3.4951425685229706e-10 0.0000000000000000e+00  -2.9108249510094503e-10 -8.4938862662905702e-09 0.0000000000000000e+00  -3.2997768055464786e-11 -1.4271993652273160e-11 0.0000000000000000e+00  -2.4345318039320038e-10 -6.6554056383569458e-09 0.0000000000000000e+00  -2.5028984618992511e-10 -7.1650000127095424e-09 0.0000000000000000e+00  1.1362900890015958e-11 -1.2228917420537064e-10 0.0000000000000000e+00  1.0462083296947359e-11 -6.2673262296347707e-10 0.0000000000000000e+00  -2.2239238114225009e-10 -5.1457150055200206e-09 0.0000000000000000e+00  -2.3650089067625551e-10 -6.1455682748426266e-09 0.0000000000000000e+00  7.4035966438726889e-12 -1.7685525951960250e-09 0.0000000000000000e+00  -2.1495048662419142e-10 -4.6551773992606333e-09 0.0000000000000000e+00  1.0482829974490460e-11 -9.0776933372391767e-10 0.0000000000000000e+00  5.2744821229054801e-12 -2.1625790810048878e-09 0.0000000000000000e+00  -2.0712445548549706e-10 -4.1735045905005271e-09 0.0000000000000000e+00  -2.2953567813419466e-10 -5.6427482701877809e-09 0.0000000000000000e+00  1.9824652737856541e-11 -2.5756820941309548e-09 0.0000000000000000e+00  -1.9863253001786717e-10 -3.7004313400873709e-09 0.0000000000000000e+00  -3.8980798121193921e-12 3.2492608123282557e-12 0.0000000000000000e+00  -6.4479821941890338e-12 8.4012631545201611e-12 0.0000000000000000e+00  -1.5960756087751656e-10 -8.6808083094480572e-09 0.000000000000000