<?xml version="1.0"?>
<VTKFile type="UnstructuredGrid"  version="0.1"  >
<UnstructuredGrid>
<Piece  NumberOfPoints="1419" NumberOfCells="2698">
<Points>
<DataArray  type="Float64"  NumberOfComponents="3"  format="ascii">0 0 0  0 0.41 0  2.5 0 0  2.5 0.41 0  0.6 0.19 0  0.6 0.21 0  0.25 0.2 0  0.15 0.2 0  0.2489897948556636 0.21 0  0.2489897948556636 0.19 0  0.6 0.2 0  0 0.3807142857143437 0  0 0.3514285714286952 0  0 0.3221428571430699 0  0 0.29285714285744 0  0 0.2635714285718054 0  0 0.2342857142861561 0  0 0.2050000000005308 0  0 0.175714285714732 0  0 0.1464285714289574 0  0 0.1171428571431897 0  0 0.08785714285737878 0  0 0.05857142857161107 0  0 0.02928571428580012 0  0.03015443760436003 0 0  0.06140001986583606 0 0  0.09377624077125973 0 0  0.1273239957535082 0 0  0.1620856860351972 0 0  0.1981052433264291 0 0  0.235428184091502 0 0  0.2741016576309132 0 0  0.3141745521465447 0 0  0.3556974926295285 0 0  0.3987229542472677 0 0  0.4433053055141081 0 0  0.4895008759286886 0 0  0.5373680609405097 0 0  0.5869673343216626 0 0  0.6383613676634521 0 0  0.6916151138468254 0 0  0.7467958595648856 0 0  0.8039733463919316 0 0  0.8632198139502143 0 0  0.9246101326867038 0 0  0.9882218810934433 0 0  1.054135445558498 0 0  1.122434100542598 0 0  1.193204177141305 0 0  1.266535089879536 0 0  1.342519516046404 0 0  1.421253448503939 0 0  1.502836389106271 0 0  1.587371439758838 0 0  1.674965418777374 0 0  1.765729001825544 0 0  1.859776908880082 0 0  1.957227977487062 0 0  2.058205329869943 0 0  2.162836591189951 0 0  2.271253957290865 0 0  2.383594446803425 0 0  2.5 0.1024999999997612 0  2.5 0.2049999999994743 0  2.5 0.3074999999997183 0  2.383594446803656 0.41 0  2.271253957291315 0.41 0  2.162836591190598 0.41 0  2.058205329870775 0.41 0  1.957227977488067 0.41 0  1.859776908881246 0.41 0  1.765729001826854 0.41 0  1.674965418778818 0.41 0  1.58737143976041 0.41 0  1.502836389107956 0.41 0  1.421253448505726 0.41 0  1.342519516048286 0.41 0  1.266535089881505 0.41 0  1.193204177143353 0.41 0  1.122434100544716 0.41 0  1.05413544556068 0.41 0  0.9882218810956305 0.41 0  0.9246101326886647 0.41 0  0.8632198139519631 0.41 0  0.8039733463934788 0.41 0  0.7467958595662458 0.41 0  0.6916151138480078 0.41 0  0.6383613676644679 0.41 0  0.5869673343225223 0.41 0  0.5373680609412221 0.41 0  0.4895008759292634 0.41 0  0.4433053055145528 0.41 0  0.3987229542475914 0.41 0  0.3556974926297398 0.41 0  0.3141745521466497 0.41 0  0.2741016576310038 0.41 0  0.2354281840915826 0.41 0  0.1981052433265003 0.41 0  0.1620856860352591 0.41 0  0.1273239957535623 0.41 0  0.09377624077128965 0.41 0  0.06140001986584975 0.41 0  0.03015443760436654 0.41 0  0.2497468076502589 0.2050254481002335 0  0.2497468076502614 0.1949745518997913 0  0.2469965252529372 0.1829317073451959 0  0.2439893735792749 0.1762316384219906 0  0.2400332147834255 0.1700443375285386 0  0.2352133972704371 0.1645032867342007 0  0.2296339016332438 0.1597280261969788 0  0.2234150974217223 0.1558215752574715 0  0.2166911463437691 0.1528682099456123 0  0.2096071079204251 0.1509316448471593 0  0.2023158100364996 0.1500536585536553 0  0.194974551899914 0.1502531923497262 0  0.1877417105387872 0.1515259415822739 0  0.1807733240461124 0.153844448527136 0  0.1742197252835808 0.15715869474974 0  0.1682222986673531 0.1613971801805478 0  0.162910430003803 0.1664684656256651 0  0.1583987151779087 0.1722631454351573 0  0.1547844879126891 0.178656207771761 0  0.1521457199348551 0.1855097315605723 0  0.1505393388476355 0.1926758619366523 0  0.1505393388476328 0.2073241380633295 0  0.1521457199348437 0.2144902684393899 0  0.1547844879126531 0.221343792228163 0  0.1583987151778488 0.2277368545647528 0  0.1629104300036858 0.2335315343742052 0  0.1682222986671726 0.2386028198193036 0  0.1742197252833576 0.2428413052501257 0  0.1807733240458683 0.2461555514727623 0  0.1877417105384929 0.2484740584176516 0  0.1949745518995776 0.2497468076502398 0  0.202315810036185 0.2499463414463592 0  0.2096071079201568 0.2490683551528932 0  0.2166911463435495 0.2471317900544655 0  0.2234150974215506 0.2441784247426195 0  0.2296339016331197 0.2402719738031125 0  0.2352133972703547 0.2354967132658811 0  0.2400332147833751 0.2299556624715287 0  0.2439893735792577 0.2237683615780412 0  0.246996525252926 0.2170682926548348 0  0.25645809709277 0.21 0  0.2639263993298655 0.21 0  0.271394701566961 0.21 0  0.2788630038040554 0.21 0  0.2863313060411479 0.21 0  0.2937996082782405 0.21 0  0.301267910515333 0.21 0  0.3087362127524279 0.21 0  0.3162045149895234 0.21 0  0.3236728172265972 0.21 0  0.3311411194636928 0.21 0  0.3386094217007701 0.21 0  0.3460777239378666 0.21 0  0.3535460261749672 0.21 0  0.3610143284120516 0.21 0  0.3684826306491596 0.21 0  0.3759509328862226 0.21 0  0.383419235123329 0.21 0  0.3908875373604028 0.21 0  0.3983558395975142 0.21 0  0.4058241418345938 0.21 0  0.4132924440716992 0.21 0  0.4207607463087888 0.21 0  0.4282290485459029 0.21 0  0.4356973507830418 0.21 0  0.4431656530201649 0.21 0  0.4506339552573136 0.21 0  0.4581022574944306 0.21 0  0.4655705597315852 0.21 0  0.4730388619686996 0.21 0  0.480507164205851 0.21 0  0.4879754664429498 0.21 0  0.4954437686800938 0.21 0  0.502912070917267 0.21 0  0.5103803731544119 0.21 0  0.5178486753915261 0.21 0  0.5253169776286404 0.21 0  0.5327852798657868 0.21 0  0.5402535821029386 0.21 0  0.54772188434007 0.21 0  0.5551901865771842 0.21 0  0.5626584888143201 0.21 0  0.5701267910514778 0.21 0  0.5775950932886138 0.21 0  0.5850633955257281 0.21 0  0.5925316977628483 0.21 0  0.6 0.2050000000000054 0  0.6 0.1950000000000217 0  0.5925316977628897 0.19 0  0.5850633955257988 0.19 0  0.5775950932887378 0.19 0  0.5701267910515998 0.19 0  0.5626584888145268 0.19 0  0.5551901865773963 0.19 0  0.547721884340339 0.19 0  0.5402535821032429 0.19 0  0.5327852798661811 0.19 0  0.5253169776290537 0.19 0  0.5178486753919799 0.19 0  0.5103803731549078 0.19 0  0.502912070917822 0.19 0  0.4954437686807294 0.19 0  0.4879754664436223 0.19 0  0.4805071642065402 0.19 0  0.4730388619694271 0.19 0  0.4655705597323621 0.19 0  0.4581022574952563 0.19 0  0.4506339552581777 0.19 0  0.4431656530210671 0.19 0  0.4356973507839815 0.19 0  0.4282290485468779 0.19 0  0.4207607463097617 0.19 0  0.4132924440726327 0.19 0  0.4058241418354857 0.19 0  0.3983558395983636 0.19 0  0.3908875373612097 0.19 0  0.3834192351240934 0.19 0  0.3759509328869369 0.19 0  0.3684826306498175 0.19 0  0.361014328412667 0.19 0  0.3535460261755617 0.19 0  0.3460777239384295 0.19 0  0.3386094217012945 0.19 0  0.3311411194641595 0.19 0  0.3236728172270245 0.19 0  0.3162045149898895 0.19 0  0.3087362127527544 0.19 0  0.3012679105156187 0.19 0  0.2937996082784807 0.19 0  0.2863313060413428 0.19 0  0.2788630038042048 0.19 0  0.2713947015670686 0.19 0  0.2639263993299336 0.19 0  0.2564580970927985 0.19 0  0.2607803159922026 0.2000727136295815 0  0.5887803774232762 0.2001272386983733 0  0.5745072403740523 0.2002044435018727 0  0.5511891430099709 0.2001122610077113 0  0.2751288526855082 0.20000000000002 0  0.5365194309847112 0.1999999999999436 0  0.2894621222999649 0.1998691686390484 0  0.5215828265105155 0.1999999999999228 0  0.3127789816668748 0.1998657885438805 0  0.3274069683451451 0.2000000000000796 0  0.5066462220363641 0.199999999999908 0  0.3650630746574081 0.199866017807523 0  0.476773013087985 0.1999999999998713 0  0.3417402379596385 0.1998691686391011 0  0.3796850840047755 0.200000000000134 0  0.4618364086138087 0.1999999999998546 0  0.4917096175621762 0.1999999999998808 0  0.3946216884789568 0.2000000000001512 0  0.446899804139621 0.1999999999998389 0  0.4089549580935208 0.1998691686391595 0  0.4322718174608562 0.200127451265745 0  0.4201487168029707 0.1999966199048527 0  0.3528922713220932 0.2000185703532356 0  0.5633122436674589 0.1999814296467508 0  0.3006558810093873 0.1999966199048318 0  0.5815926498168407 0.1966545283159175 0  0.2677053789419034 0.1964246479135325 0  0.5290511287476175 0.1970915826863981 0  0.5439877332217911 0.197091582686394 0  0.2825131256993216 0.2035478995978015 0  0.3199386661080599 0.202908417313604 0  0.4842413153250809 0.1970915826863873 0  0.5141145242734466 0.1970915826863843 0  0.3722167817676917 0.2029084173136195 0  0.4693047108508938 0.1970915826863783 0  0.3348752705822316 0.202908417313609 0  0.3871533862418661 0.2029084173136212 0  0.4543681063767183 0.1970915826863795 0  0.4991779197992749 0.1970915826863902 0  0.4020059614928624 0.203547899597858 0  0.4394315019025246 0.1970915826863714 0  0.2550657455369551 0.2034088125358657 0  0.2548908499171161 0.1966940311614271 0  0.5946539510196798 0.2024302972968126 0  0.267698176732111 0.2039977513680092 0  0.4261685417851465 0.196409292431739 0  0.3590076176283495 0.196411355804271 0  0.5571672426447437 0.2036011176410121 0  0.3066757059912147 0.1964092924317024 0  0.594380730180568 0.1966558399668133 0  0.4842413153245942 0.2040749161535287 0  0.4693047108503577 0.2040749161535231 0  0.3871533862424271 0.1959250838464788 0  0.372246743208829 0.1959123236376545 0  0.5141145242731028 0.2040749161535395 0  0.4543681063761134 0.2040749161535186 0  0.4019979587101454 0.1959834479682427 0  0.4394608940728603 0.2040870543693135 0  0.5439623148931173 0.2040856076781014 0  0.5290511287473298 0.2040749161535501 0  0.4991779197988497 0.2040749161535382 0  0.3347912413592433 0.1959225448935183 0  0.3199680582793816 0.1959123018030061 0  0.2825051229162361 0.1959834479681729 0  0.3590471196690275 0.2036304442587945 0  0.5571594006495384 0.1963685282145804 0  0.3067669986803285 0.203627750582736 0  0.4262598344738712 0.2036568242185335 0  0.5814408164431408 0.2041285596160068 0  0.5688286748170428 0.1961819304477386 0  0.4145905603063645 0.2038180695522843 0  0.3473758401724931 0.2038180695522752 0  0.2950977245128307 0.2038180695522663 0  0.5688286748170693 0.203818069552238 0  0.2950977245127906 0.1961819304477774 0  0.3473758401723931 0.1961819304478349 0  0.4145905603061963 0.1961819304479011 0  0.2601812407614425 0.2056861609747042
[...]
<PointData  Vectors="f_40-0"> 
<DataArray  type="Float64"  Name="f_40-0"  NumberOfComponents="3" format="ascii">0.0000000000000000e+00 0.0000000000000000e+00 0.0000000000000000e+00  0.0000000000000000e+00 0.0000000000000000e+00 0.0000000000000000e+00  0.0000000000000000e+00 0.0000000000000000e+00 0.0000000000000000e+00  0.0000000000000000e+00 0.0000000000000000e+00 0.0000000000000000e+00  1.1167854285495632e-04 2.0066402950087285e-03 0.0000000000000000e+00  -5.2554034504420316e-05 2.0114777879977242e-03 0.0000000000000000e+00  0.0000000000000000e+00 0.0000000000000000e+00 0.0000000000000000e+00  0.0000000000000000e+00 0.0000000000000000e+00 0.0000000000000000e+00  0.0000000000000000e+00 0.0000000000000000e+00 0.0000000000000000e+00  0.0000000000000000e+00 0.0000000000000000e+00 0.0000000000000000e+00  2.9926204786147215e-05 2.0090279579645679e-03 0.0000000000000000e+00  7.9470626167949221e-01 0.0000000000000000e+00 0.0000000000000000e+00  1.4671500215622366e+00 0.0000000000000000e+00 0.0000000000000000e+00  2.0173312796480758e+00 0.0000000000000000e+00 0.0000000000000000e+00  2.4452500359376468e+00 0.0000000000000000e+00 0.0000000000000000e+00  2.7509062904308936e+00 0.0000000000000000e+00 0.0000000000000000e+00  2.9343000431277977e+00 0.0000000000000000e+00 0.0000000000000000e+00  2.9954312940281769e+00 0.0000000000000000e+00 0.0000000000000000e+00  2.9343000431315054e+00 0.0000000000000000e+00 0.0000000000000000e+00  2.7509062904372623e+00 0.0000000000000000e+00 0.0000000000000000e+00  2.4452500359455343e+00 0.0000000000000000e+00 0.0000000000000000e+00  2.0173312796555689e+00 0.0000000000000000e+00 0.0000000000000000e+00  1.4671500215686306e+00 0.0000000000000000e+00 0.0000000000000000e+00  7.9470626168309477e-01 0.0000000000000000e+00 0.0000000000000000e+00  0.0000000000000000e+00 0.0000000000000000e+00 0.0000000000000000e+00  0.0000000000000000e+00 0.0000000000000000e+00 0.0000000000000000e+00  0.0000000000000000e+00 0.0000000000000000e+00 0.0000000000000000e+00  0.0000000000000000e+00 0.0000000000000000e+00 0.0000000000000000e+00  0.0000000000000000e+00 0.0000000000000000e+00 0.0000000000000000e+00  0.0000000000000000e+00 0.0000000000000000e+00 0.0000000000000000e+00  0.0000000000000000e+00 0.0000000000000000e+00 0.0000000000000000e+00  0.0000000000000000e+00 0.0000000000000000e+00 0.0000000000000000e+00  0.0000000000000000e+00 0.0000000000000000e+00 0.0000000000000000e+00  0.0000000000000000e+00 0.0000000000000000e+00 0.0000000000000000e+00  0.0000000000000000e+00 0.0000000000000000e+00 0.0000000000000000e+00  0.0000000000000000e+00 0.0000000000000000e+00 0.0000000000000000e+00  0.0000000000000000e+00 0.0000000000000000e+00 0.0000000000000000e+00  0.0000000000000000e+00 0.0000000000000000e+00 0.0000000000000000e+00  0.0000000000000000e+00 0.0000000000000000e+00 0.0000000000000000e+00  0.0000000000000000e+00 0.0000000000000000e+00 0.0000000000000000e+00  0.0000000000000000e+00 0.0000000000000000e+00 0.0000000000000000e+00  0.0000000000000000e+00 0.0000000000000000e+00 0.0000000000000000e+00  0.0000000000000000e+00 0.0000000000000000e+00 0.0000000000000000e+00  0.0000000000000000e+00 0.0000000000000000e+00 0.0000000000000000e+00  0.0000000000000000e+00 0.0000000000000000e+00 0.0000000000000000e+00  0.0000000000000000e+00 0.0000000000000000e+00 0.0000000000000000e+00  0.0000000000000000e+00 0.0000000000000000e+00 0.0000000000000000e+00  0.0000000000000000e+00 0.0000000000000000e+00 0.0000000000000000e+00  0.0000000000000000e+00 0.0000000000000000e+00 0.0000000000000000e+00  0.0000000000000000e+00 0.0000000000000000e+00 0.0000000000000000e+00  0.0000000000000000e+00 0.0000000000000000e+00 0.0000000000000000e+00  0.0000000000000000e+00 0.0000000000000000e+00 0.0000000000000000e+00  0.0000000000000000e+00 0.0000000000000000e+00 0.0000000000000000e+00  0.0000000000000000e+00 0.0000000000000000e+00 0.0000000000000000e+00  0.0000000000000000e+00 0.0000000000000000e+00 0.0000000000000000e+00  0.0000000000000000e+00 0.0000000000000000e+00 0.0000000000000000e+00  0.0000000000000000e+00 0.0000000000000000e+00 0.0000000000000000e+00  0.0000000000000000e+00 0.0000000000000000e+00 0.0000000000000000e+00  0.0000000000000000e+00 0.0000000000000000e+00 0.0000000000000000e+00  0.0000000000000000e+00 0.0000000000000000e+00 0.0000000000000000e+00  0.0000000000000000e+00 0.0000000000000000e+00 0.0000000000000000e+00  0.0000000000000000e+00 0.0000000000000000e+00 0.0000000000000000e+00  2.6270557743786065e+00 -8.4962291122652519e-03 0.0000000000000000e+00  2.5734251581876348e+00 6.8737065543091605e-03 0.0000000000000000e+00  2.6268927587381818e+00 6.2248754519601206e-02 0.0000000000000000e+00  0.0000000000000000e+00 0.0000000000000000e+00 0.0000000000000000e+00  0.0000000000000000e+00 0.0000000000000000e+00 0.0000000000000000e+00  0.0000000000000000e+00 0.0000000000000000e+00 0.0000000000000000e+00  0.0000000000000000e+00 0.0000000000000000e+00 0.0000000000000000e+00  0.0000000000000000e+00 0.0000000000000000e+00 0.0000000000000000e+00  0.0000000000000000e+00 0.0000000000000000e+00 0.0000000000000000e+00  0.0000000000000000e+00 0.0000000000000000e+00 0.0000000000000000e+00  0.0000000000000000e+00 0.0000000000000000e+00 0.0000000000000000e+00  0.0000000000000000e+00 0.0000000000000000e+00 0.0000000000000000e+00  0.0000000000000000e+00 0.0000000000000000e+00 0.0000000000000000e+00  0.0000000000000000e+00 0.0000000000000000e+00 0.0000000000000000e+00  0.0000000000000000e+00 0.0000000000000000e+00 0.0000000000000000e+00  0.0000000000000000e+00 0.0000000000000000e+00 0.0000000000000000e+00  0.0000000000000000e+00 0.0000000000000000e+00 0.0000000000000000e+00  0.0000000000000000e+00 0.0000000000000000e+00 0.0000000000000000e+00  0.0000000000000000e+00 0.0000000000000000e+00 0.0000000000000000e+00  0.0000000000000000e+00 0.0000000000000000e+00 0.0000000000000000e+00  0.0000000000000000e+00 0.0000000000000000e+00 0.0000000000000000e+00  0.0000000000000000e+00 0.0000000000000000e+00 0.0000000000000000e+00  0.0000000000000000e+00 0.0000000000000000e+00 0.0000000000000000e+00  0.0000000000000000e+00 0.0000000000000000e+00 0.0000000000000000e+00  0.0000000000000000e+00 0.0000000000000000e+00 0.0000000000000000e+00  0.0000000000000000e+00 0.0000000000000000e+00 0.0000000000000000e+00  0.0000000000000000e+00 0.0000000000000000e+00 0.0000000000000000e+00  0.0000000000000000e+00 0.0000000000000000e+00 0.0000000000000000e+00  0.0000000000000000e+00 0.0000000000000000e+00 0.0000000000000000e+00  0.0000000000000000e+00 0.0000000000000000e+00 0.0000000000000000e+00  0.0000000000000000e+00 0.0000000000000000e+00 0.0000000000000000e+00  0.0000000000000000e+00 0.0000000000000000e+00 0.0000000000000000e+00  0.0000000000000000e+00 0.0000000000000000e+00 0.0000000000000000e+00  0.0000000000000000e+00 0.0000000000000000e+00 0.0000000000000000e+00  0.0000000000000000e+00 0.0000000000000000e+00 0.0000000000000000e+00  0.0000000000000000e+00 0.0000000000000000e+00 0.0000000000000000e+00  0.0000000000000000e+00 0.0000000000000000e+00 0.0000000000000000e+00  0.0000000000000000e+00 0.0000000000000000e+00 0.0000000000000000e+00  0.0000000000000000e+00 0.0000000000000000e+00 0.0000000000000000e+00  0.0000000000000000e+00 0.0000000000000000e+00 0.0000000000000000e+00  0.0000000000000000e+00 0.0000000000000000e+00 0.0000000000000000e+00  0.0000000000000000e+00 0.0000000000000000e+00 0.0000000000000000e+00  0.0000000000000000e+00 0.0000000000000000e+00 0.0000000000000000e+00  0.0000000000000000e+00 0.0000000000000000e+00 0.0000000000000000e+00  0.0000000000000000e+00 0.0000000000000000e+00 0.0000000000000000e+00  0.0000000000000000e+00 0.0000000000000000e+00 0.0000000000000000e+00  0.0000000000000000e+00 0.0000000000000000e+00 0.0000000000000000e+00  0.0000000000000000e+00 0.0000000000000000e+00 0.0000000000000000e+00  0.0000000000000000e+00 0.0000000000000000e+00 0.0000000000000000e+00  0.0000000000000000e+00 0.0000000000000000e+00 0.0000000000000000e+00  0.0000000000000000e+00 0.0000000000000000e+00 0.0000000000000000e+00  0.0000000000000000e+00 0.0000000000000000e+00 0.0000000000000000e+00  0.0000000000000000e+00 0.0000000000000000e+00 0.0000000000000000e+00  0.0000000000000000e+00 0.0000000000000000e+00 0.0000000000000000e+00  0.0000000000000000e+00 0.0000000000000000e+00 0.0000000000000000e+00  0.0000000000000000e+00 0.0000000000000000e+00 0.0000000000000000e+00  0.0000000000000000e+00 0.0000000000000000e+00 0.0000000000000000e+00  0.0000000000000000e+00 0.0000000000000000e+00 0.0000000000000000e+00  0.0000000000000000e+00 0.0000000000000000e+00 0.0000000000000000e+00  0.0000000000000000e+00 0.0000000000000000e+00 0.0000000000000000e+00  0.0000000000000000e+00 0.0000000000000000e+00 0.0000000000000000e+00  0.0000000000000000e+00 0.0000000000000000e+00 0.0000000000000000e+00  0.0000000000000000e+00 0.0000000000000000e+00 0.0000000000000000e+00  0.0000000000000000e+00 0.0000000000000000e+00 0.0000000000000000e+00  0.0000000000000000e+00 0.0000000000000000e+00 0.0000000000000000e+00  0.0000000000000000e+00 0.0000000000000000e+00 0.0000000000000000e+00  0.0000000000000000e+00 0.0000000000000000e+00 0.0000000000000000e+00  0.0000000000000000e+00 0.0000000000000000e+00 0.0000000000000000e+00  0.0000000000000000e+00 0.0000000000000000e+00 0.0000000000000000e+00  0.0000000000000000e+00 0.0000000000000000e+00 0.0000000000000000e+00  0.0000000000000000e+00 0.0000000000000000e+00 0.0000000000000000e+00  0.0000000000000000e+00 0.0000000000000000e+00 0.0000000000000000e+00  0.0000000000000000e+00 0.0000000000000000e+00 0.0000000000000000e+00  0.0000000000000000e+00 0.0000000000000000e+00 0.0000000000000000e+00  0.0000000000000000e+00 0.0000000000000000e+00 0.0000000000000000e+00  0.0000000000000000e+00 0.0000000000000000e+00 0.0000000000000000e+00  0.0000000000000000e+00 0.0000000000000000e+00 0.0000000000000000e+00  0.0000000000000000e+00 0.0000000000000000e+00 0.0000000000000000e+00  0.0000000000000000e+00 0.0000000000000000e+00 0.0000000000000000e+00  0.0000000000000000e+00 0.0000000000000000e+00 0.0000000000000000e+00  0.0000000000000000e+00 0.0000000000000000e+00 0.0000000000000000e+00  -1.6962371330113715e-06 6.2013984723382939e-06 0.0000000000000000e+00  -4.0553783388873383e-06 9.5264323082155570e-06 0.0000000000000000e+00  -6.4196841001948346e-06 1.5010286180373614e-05 0.0000000000000000e+00  -9.3643463471523388e-06 2.2884081636067857e-05 0.0000000000000000e+00  -1.1910606002966737e-05 3.3143752653865255e-05 0.0000000000000000e+00  -1.5088851088822787e-05 4.6060634832887603e-05 0.0000000000000000e+00  -1.7633972302452881e-05 6.1068534061930861e-05 0.0000000000000000e+00  -2.0221104392327592e-05 7.8913981073923349e-05 0.0000000000000000e+00  -2.3438347891066291e-05 9.8999355445377753e-05 0.0000000000000000e+00  -2.5846776021142209e-05 1.2154323011077290e-04 0.0000000000000000e+00  -2.9071019626254106e-05 1.4654187896367512e-04 0.0000000000000000e+00  -3.1416594050015348e-05 1.7394242626996354e-04 0.0000000000000000e+00  -3.4425310243409437e-05 2.0369401513590162e-04 0.0000000000000000e+00  -3.6743734088397190e-05 2.3543412288941863e-04 0.0000000000000000e+00  -3.9033653196267207e-05 2.6968013829076193e-04 0.0000000000000000e+00  -4.1788857783783084e-05 3.0586047618718195e-04 0.0000000000000000e+00  -4.3774824290933360e-05 3.4409712438591934e-04 0.0000000000000000e+00  -4.6332835335457675e-05 3.8435277673608780e-04 0.0000000000000000e+00  -4.8106524430510557e-05 4.2647610910435518e-04 0.0000000000000000e+00  -5.0344037762820673e-05 4.7035628547966482e-04 0.0000000000000000e+00  -5.2002736220726237e-05 5.1598149928121716e-04 0.0000000000000000e+00  -5.3916788757268460e-05 5.6329628408869150e-04 0.0000000000000000e+00  -5.5314587620611423e-05 6.1188530897380688e-04 0.0000000000000000e+00  -5.6609591367293201e-05 6.6212107260607816e-04 0.0000000000000000e+00  -5.8087960747665175e-05 7.1348404211139349e-04 0.0000000000000000e+00  -5.9173176383218568e-05 7.6618009060442358e-04 0.0000000000000000e+00  -6.0226743179970623e-05 8.2004594001105146e-04 0.0000000000000000e+00  -6.1030040805068522e-05 8.7488628431843052e-04 0.0000000000000000e+00  -6.1775387071914936e-05 9.3074918538649048e-04 0.0000000000000000e+00  -6.2289144554633630e-05 9.8739795261304627e-04 0.0000000000000000e+00  -6.2728587589137204e-05 1.0448836590716093e-03 0.0000000000000000e+00  -6.2953127007365960e-05 1.1029718530092632e-03 0.0000000000000000e+00  -6.3091635137818447e-05 1.1617209545393132e-03 0.0000000000000000e+00  -6.3037053614142612e-05 1.2209065600908028e-03 0.0000000000000000e+00  -6.2886145756954067e-05 1.2805955825059175e-03 0.0000000000000000e+00  -6.2567536594166750e-05 1.3405797363791429e-03 0.0000000000000000e+00  -6.2155254389644485e-05 1.4009265864029440e-03 0.0000000000000000e+00  -6.1599203887524964e-05 1.4614566426680530e-03 0.0000000000000000e+00  -6.0951934976309495e-05 1.5222370325432561e-03 0.0000000000000000e+00  -6.0179912196283767e-05 1.5831102266671867e-03 0.0000000000000000e+00  -5.9317340023252252e-05 1.6441411761586825e-03 0.0000000000000000e+00  -5.8357763152597781e-05 1.7052172735231800e-03 0.0000000000000000e+00  -5.7301479729834381e-05 1.7663711439397801e-03 0.0000000000000000e+00  -5.6200555553267978e-05 1.8275509766452088e-03 0.0000000000000000e+00  -5.4997823442258657e-05 1.8887370184424038e-03 0.0000000000000000e+00  -5.3753978400549813e-05 1.9499908475958212e-03 0.0000000000000000e+00  -1.1179693400690884e-05 2.0102421868747815e-03 0.0000000000000000e+00  7.0912872061848042e-05 2.0078232155769332e-03 0.0000000000000000e+00  1.1043301600555366e-04 1.9454176401722859e-03 0.0000000000000000e+00  1.0913412116651016e-04 1.8840325775374821e-03 0.0000000000000000e+00  1.0786334205699652e-04 1.8226417263183295e-03 0.0000000000000000e+00  1.0663410084167404e-04 1.7613103574008490e-03 0.0000000000000000e+00  1.0543360264925371e-04 1.7000123056971528e-03 0.0000000000000000e+00  1.0427433201345624e-04 1.6387871458284006e-03 0.0000000000000000e+00  1.0309988848108617e-04 1.5776432746242243e-03 0.0000000000000000e+00  1.0197934784725483e-04 1.5166067898226279e-03 0.0000000000000000e+00  1.0079955787223718e-04 1.4557385719574558e-03 0.0000000000000000e+00  9.9679733981839153e-05 1.3950506649267145e-03 0.0000000000000000e+00  9.8447303898905147e-05 1.3346182391227169e-03 0.0000000000000000e+00  9.7289733997707161e-05 1.2744802848452931e-03 0.0000000000000000e+00  9.5956164700350242e-05 1.2147095438137369e-03 0.0000000000000000e+00  9.4721565458261747e-05 1.1553737444670244e-03 0.0000000000000000e+00  9.3241692071421219e-05 1.0965449428858385e-03 0.0000000000000000e+00  9.1896341857700882e-05 1.0383139353438602e-03 0.0000000000000000e+00  9.0232915301115865e-05 9.8075001331517585e-04 0.0000000000000000e+00  8.8748024083403198e-05 9.2396306013060989e-04 0.0000000000000000e+00  8.6869951472738703e-05 8.6801909841856956e-04 0.0000000000000000e+00  8.5224174009998003e-05 8.1303903936932919e-04 0.0000000000000000e+00  8.3102280046644394e-05 7.5909228017904810e-04 0.0000000000000000e+00  8.1268389255653421e-05 7.0630839256286676e-04 0.0000000000000000e+00  7.8924293158611622e-05 6.5476591839197257e-04 0.0000000000000000e+00  7.6818889778124981e-05 6.0444077288121154e-04 0.0000000000000000e+00  7.4633732838059864e-05 5.5576213201123973e-04 0.0000000000000000e+00  7.1988310824360271e-05 5.0829400133770583e-04 0.0000000000000000e+00  6.9500718019637652e-05 4.6261530634551725e-04 0.0000000000000000e+00  6.6694303570031453e-05 4.1855323942493154e-04 0.0000000000000000e+00  6.3968452263930714e-05 3.7634702751934479e-04 0.0000000000000000e+00  6.0946034731146116e-05 3.3598297975992312e-04 0.0000000000000000e+00  5.8006300918581252e-05 2.9755259375293958e-04 0.0000000000000000e+00  5.4563066836637759e-05 2.6139225201919040e-04 0.0000000000000000e+00  5.1527915607409677e-05 2.2701044194301082e-04 0.0000000000000000e+00  4.8433201403313605e-05 1.9520105960518650e-04 0.0000000000000000e+00  4.4738594153680375e-05 1.6519526991881590e-04 0.0000000000000000e+00  4.1318263276881531e-05 1.3777985750455831e-04 0.0000000000000000e+00  3.7593784312879953e-05 1.1267759843014403e-04 0.0000000000000000e+00  3.4061629787815477e-05 8.9944493444604789e-05 0.0000000000000000e+00  3.0032212191401185e-05 6.9917212580104712e-05 0.0000000000000000e+00  2.6544242901756623e-05 5.1953778088272052e-05 0.0000000000000000e+00  2.3080221493997483e-05 3.6883495189908398e-05 0.0000000000000000e+00  1.9020287192839552e-05 2.3828621982010512e-05 0.0000000000000000e+00  1.5429295694340972e-05 1.3427549623331502e-05 0.0000000000000000e+00  1.1405759505234804e-05 5.5605491668492846e-06 0.0000000000000000e+00  7.7957857117709096e-06 2.2355769438755246e-07 0.0000000000000000e+00  3.6760459014676596e-06 -2.4695613376579844e-06 0.0000000000000000e+00  2.2868285617550685e-06 1.7394961990704214e-06 0.0000000000000000e+00  2.6803534637341571e-05 1.9169161361652790e-03 0.0000000000000000e+00  2.3721422677152920e-05 1.7997828549632766e-03 0.0000000000000000e+00  2.1059716694863947e-05 1.6086780011581631e-03 0.0000000000000000e+00  2.8336920139894918e-06 1.2332745164307503e-05 0.0000000000000000e+00  2.0108315787120758e-05 1.4888645130101193e-03 0.0000000000000000e+00  3.9596694262856570e-06 3.1894795969753078e-05 0.0000000000000000e+00  1.8400278568752362e-05 1.3675714189605795e-03 0.0000000000000000e+00  5.5535744240499868e-06 8.3293413150737909e-05 0.0000000000000000e+00  6.0305450474816328e-06 1.2781072425996538e-04 0.0000000000000000e+00  1.6878547291442322e-05 1.2473535114233851e-03 0.0000000000000000e+00  8.6647701580909595e-06 2.8345284490864116e-04 0.0000000000000000e+00  1.4323513255576954e-05 1.0122714763736726e-03 0.0000000000000000e+00  7.3238465709353770e-06 1.8020730174958841e-04 0.0000000000000000e+00  8.7298086723630146e-06 3.5871488173462059e-04 0.0000000000000000e+00  1.3247707679726963e-05 8.9870086291683716e-04 0.0000000000000000e+00  1.5526187003047992e-05 1.1287172829162091e-03 0.0000000000000000e+00  9.4576160014229945e-06 4.4313812138910080e-04 0.0000000000000000e+00  1.2285149739162345e-05 7.8874580457062820e-04 0.0000000000000000e+00  1.0996808609248567e-05 5.3069129103444678e-04 0.0000000000000000e+00  1.0540513944325231e-05 6.8533565000962232e-04 0.0000000000000000e+00  1.0781420041457106e-05 6.0342688169016522e-04 0.0000000000000000e+00  7.3183000413452518e-06 2.2730910493762231e-04 0.0000000000000000e+00  2.3860101908957153e-05 1.7079319324131534e-03 0.0000000000000000e+00  4.4744539216055643e-06 5.4001171579092114e-05 0.0000000000000000e+00  5.4023497161988750e-05 1.8570889831532327e-03 0.0000000000000000e+00  5.1497137063639671e-06 4.2372465564609805e-06 0.0000000000000000e+00  4.2798398010950918e-05 1.4272901882153815e-03 0.0000000000000000e+00  4.4748657767367530e-05 1.5489914460315262e-03 0.0000000000000000e+00  -1.5922229541739740e-06 2.3233561641147133e-05 0.0000000000000000e+00  -3.2281388558710121e-06 1.0545275140845960e-04 0.0000000000000000e+00  3.7495624338027762e-05 1.0692932081802380e-03 0.0000000000000000e+00  4.0962495959735695e-05 1.3064534544353090e-03 0.0000000000000000e+00  -6.5291749318888526e-06 3.2070431488851603e-04 0.0000000000000000e+00  3.5792723447811198e-05 9.5417875814560063e-04 0.0000000000000000e+00  -4.1588307760536271e-06 1.5554150281288191e-04 0.0000000000000000e+00  -7.2544419515656941e-06 4.0133457752466263e-04 0.0000000000000000e+00  3.4068963125757973e-05 8.4230418760746037e-04 0.0000000000000000e+00  3.9207052132618690e-05 1.1869339547422343e-03 0.0000000000000000e+00  -1.1748517619589042e-05 4.8905973818104756e-04 0.0000000000000000e+00  3.2317728219117463e-05 7.3442247578481940e-04 0.0000000000000000e+00  1.1304328611254872e-06 1.2411292984036788e-06 0.0000000000000000e+00  2.0178186791807459e-06 -7.5938630416821446e-07 0.0000000000000000e+00  8.9785227690808311e-06 1.9656788529815710e-03 0.0000000000000000e+00  -5.7885722520997431e-07 7.9832969726379173e-06 0.0000000000000000e+00  3.5299656946827343e-05 6.4237179900131409e-04 0.0000000000000000e+00  2.4356496610816626e-