<?xml version="1.0"?>
<VTKFile type="UnstructuredGrid"  version="0.1"  >
<UnstructuredGrid>
<Piece  NumberOfPoints="1419" NumberOfCells="2698">
<Points>
<DataArray  type="Float64"  NumberOfComponents="3"  format="ascii">0 0 0  0 0.41 0  2.5 0 0  2.5 0.41 0  0.6 0.19 0  0.6 0.21 0  0.25 0.2 0  0.15 0.2 0  0.2489897948556636 0.21 0  0.2489897948556636 0.19 0  0.6 0.2 0  0 0.3807142857143437 0  0 0.3514285714286952 0  0 0.3221428571430699 0  0 0.29285714285744 0  0 0.2635714285718054 0  0 0.2342857142861561 0  0 0.2050000000005308 0  0 0.175714285714732 0  0 0.1464285714289574 0  0 0.1171428571431897 0  0 0.08785714285737878 0  0 0.05857142857161107 0  0 0.02928571428580012 0  0.03015443760436003 0 0  0.06140001986583606 0 0  0.09377624077125973 0 0  0.1273239957535082 0 0  0.1620856860351972 0 0  0.1981052433264291 0 0  0.235428184091502 0 0  0.2741016576309132 0 0  0.3141745521465447 0 0  0.3556974926295285 0 0  0.3987229542472677 0 0  0.4433053055141081 0 0  0.4895008759286886 0 0  0.5373680609405097 0 0  0.5869673343216626 0 0  0.6383613676634521 0 0  0.6916151138468254 0 0  0.7467958595648856 0 0  0.8039733463919316 0 0  0.8632198139502143 0 0  0.9246101326867038 0 0  0.9882218810934433 0 0  1.054135445558498 0 0  1.122434100542598 0 0  1.193204177141305 0 0  1.266535089879536 0 0  1.342519516046404 0 0  1.421253448503939 0 0  1.502836389106271 0 0  1.587371439758838 0 0  1.674965418777374 0 0  1.765729001825544 0 0  1.859776908880082 0 0  1.957227977487062 0 0  2.058205329869943 0 0  2.162836591189951 0 0  2.271253957290865 0 0  2.383594446803425 0 0  2.5 0.1024999999997612 0  2.5 0.2049999999994743 0  2.5 0.3074999999997183 0  2.383594446803656 0.41 0  2.271253957291315 0.41 0  2.162836591190598 0.41 0  2.058205329870775 0.41 0  1.957227977488067 0.41 0  1.859776908881246 0.41 0  1.765729001826854 0.41 0  1.674965418778818 0.41 0  1.58737143976041 0.41 0  1.502836389107956 0.41 0  1.421253448505726 0.41 0  1.342519516048286 0.41 0  1.266535089881505 0.41 0  1.193204177143353 0.41 0  1.122434100544716 0.41 0  1.05413544556068 0.41 0  0.9882218810956305 0.41 0  0.9246101326886647 0.41 0  0.8632198139519631 0.41 0  0.8039733463934788 0.41 0  0.7467958595662458 0.41 0  0.6916151138480078 0.41 0  0.6383613676644679 0.41 0  0.5869673343225223 0.41 0  0.5373680609412221 0.41 0  0.4895008759292634 0.41 0  0.4433053055145528 0.41 0  0.3987229542475914 0.41 0  0.3556974926297398 0.41 0  0.3141745521466497 0.41 0  0.2741016576310038 0.41 0  0.2354281840915826 0.41 0  0.1981052433265003 0.41 0  0.1620856860352591 0.41 0  0.1273239957535623 0.41 0  0.09377624077128965 0.41 0  0.06140001986584975 0.41 0  0.03015443760436654 0.41 0  0.2497468076502589 0.2050254481002335 0  0.2497468076502614 0.1949745518997913 0  0.2469965252529372 0.1829317073451959 0  0.2439893735792749 0.1762316384219906 0  0.2400332147834255 0.1700443375285386 0  0.2352133972704371 0.1645032867342007 0  0.2296339016332438 0.1597280261969788 0  0.2234150974217223 0.1558215752574715 0  0.2166911463437691 0.1528682099456123 0  0.2096071079204251 0.1509316448471593 0  0.2023158100364996 0.1500536585536553 0  0.194974551899914 0.1502531923497262 0  0.1877417105387872 0.1515259415822739 0  0.1807733240461124 0.153844448527136 0  0.1742197252835808 0.15715869474974 0  0.1682222986673531 0.1613971801805478 0  0.162910430003803 0.1664684656256651 0  0.1583987151779087 0.1722631454351573 0  0.1547844879126891 0.178656207771761 0  0.1521457199348551 0.1855097315605723 0  0.1505393388476355 0.1926758619366523 0  0.1505393388476328 0.2073241380633295 0  0.1521457199348437 0.2144902684393899 0  0.1547844879126531 0.221343792228163 0  0.1583987151778488 0.2277368545647528 0  0.1629104300036858 0.2335315343742052 0  0.1682222986671726 0.2386028198193036 0  0.1742197252833576 0.2428413052501257 0  0.1807733240458683 0.2461555514727623 0  0.1877417105384929 0.2484740584176516 0  0.1949745518995776 0.2497468076502398 0  0.202315810036185 0.2499463414463592 0  0.2096071079201568 0.2490683551528932 0  0.2166911463435495 0.2471317900544655 0  0.2234150974215506 0.2441784247426195 0  0.2296339016331197 0.2402719738031125 0  0.2352133972703547 0.2354967132658811 0  0.2400332147833751 0.2299556624715287 0  0.2439893735792577 0.2237683615780412 0  0.246996525252926 0.2170682926548348 0  0.25645809709277 0.21 0  0.2639263993298655 0.21 0  0.271394701566961 0.21 0  0.2788630038040554 0.21 0  0.2863313060411479 0.21 0  0.2937996082782405 0.21 0  0.301267910515333 0.21 0  0.3087362127524279 0.21 0  0.3162045149895234 0.21 0  0.3236728172265972 0.21 0  0.3311411194636928 0.21 0  0.3386094217007701 0.21 0  0.3460777239378666 0.21 0  0.3535460261749672 0.21 0  0.3610143284120516 0.21 0  0.3684826306491596 0.21 0  0.3759509328862226 0.21 0  0.383419235123329 0.21 0  0.3908875373604028 0.21 0  0.3983558395975142 0.21 0  0.4058241418345938 0.21 0  0.4132924440716992 0.21 0  0.4207607463087888 0.21 0  0.4282290485459029 0.21 0  0.4356973507830418 0.21 0  0.4431656530201649 0.21 0  0.4506339552573136 0.21 0  0.4581022574944306 0.21 0  0.4655705597315852 0.21 0  0.4730388619686996 0.21 0  0.480507164205851 0.21 0  0.4879754664429498 0.21 0  0.4954437686800938 0.21 0  0.502912070917267 0.21 0  0.5103803731544119 0.21 0  0.5178486753915261 0.21 0  0.5253169776286404 0.21 0  0.5327852798657868 0.21 0  0.5402535821029386 0.21 0  0.54772188434007 0.21 0  0.5551901865771842 0.21 0  0.5626584888143201 0.21 0  0.5701267910514778 0.21 0  0.5775950932886138 0.21 0  0.5850633955257281 0.21 0  0.5925316977628483 0.21 0  0.6 0.2050000000000054 0  0.6 0.1950000000000217 0  0.5925316977628897 0.19 0  0.5850633955257988 0.19 0  0.5775950932887378 0.19 0  0.5701267910515998 0.19 0  0.5626584888145268 0.19 0  0.5551901865773963 0.19 0  0.547721884340339 0.19 0  0.5402535821032429 0.19 0  0.5327852798661811 0.19 0  0.5253169776290537 0.19 0  0.5178486753919799 0.19 0  0.5103803731549078 0.19 0  0.502912070917822 0.19 0  0.4954437686807294 0.19 0  0.4879754664436223 0.19 0  0.4805071642065402 0.19 0  0.4730388619694271 0.19 0  0.4655705597323621 0.19 0  0.4581022574952563 0.19 0  0.4506339552581777 0.19 0  0.4431656530210671 0.19 0  0.4356973507839815 0.19 0  0.4282290485468779 0.19 0  0.4207607463097617 0.19 0  0.4132924440726327 0.19 0  0.4058241418354857 0.19 0  0.3983558395983636 0.19 0  0.3908875373612097 0.19 0  0.3834192351240934 0.19 0  0.3759509328869369 0.19 0  0.3684826306498175 0.19 0  0.361014328412667 0.19 0  0.3535460261755617 0.19 0  0.3460777239384295 0.19 0  0.3386094217012945 0.19 0  0.3311411194641595 0.19 0  0.3236728172270245 0.19 0  0.3162045149898895 0.19 0  0.3087362127527544 0.19 0  0.3012679105156187 0.19 0  0.2937996082784807 0.19 0  0.2863313060413428 0.19 0  0.2788630038042048 0.19 0  0.2713947015670686 0.19 0  0.2639263993299336 0.19 0  0.2564580970927985 0.19 0  0.2607803159922026 0.2000727136295815 0  0.5887803774232762 0.2001272386983733 0  0.5745072403740523 0.2002044435018727 0  0.5511891430099709 0.2001122610077113 0  0.2751288526855082 0.20000000000002 0  0.5365194309847112 0.1999999999999436 0  0.2894621222999649 0.1998691686390484 0  0.5215828265105155 0.1999999999999228 0  0.3127789816668748 0.1998657885438805 0  0.3274069683451451 0.2000000000000796 0  0.5066462220363641 0.199999999999908 0  0.3650630746574081 0.199866017807523 0  0.476773013087985 0.1999999999998713 0  0.3417402379596385 0.1998691686391011 0  0.3796850840047755 0.200000000000134 0  0.4618364086138087 0.1999999999998546 0  0.4917096175621762 0.1999999999998808 0  0.3946216884789568 0.2000000000001512 0  0.446899804139621 0.1999999999998389 0  0.4089549580935208 0.1998691686391595 0  0.4322718174608562 0.200127451265745 0  0.4201487168029707 0.1999966199048527 0  0.3528922713220932 0.2000185703532356 0  0.5633122436674589 0.1999814296467508 0  0.3006558810093873 0.1999966199048318 0  0.5815926498168407 0.1966545283159175 0  0.2677053789419034 0.1964246479135325 0  0.5290511287476175 0.1970915826863981 0  0.5439877332217911 0.197091582686394 0  0.2825131256993216 0.2035478995978015 0  0.3199386661080599 0.202908417313604 0  0.4842413153250809 0.1970915826863873 0  0.5141145242734466 0.1970915826863843 0  0.3722167817676917 0.2029084173136195 0  0.4693047108508938 0.1970915826863783 0  0.3348752705822316 0.202908417313609 0  0.3871533862418661 0.2029084173136212 0  0.4543681063767183 0.1970915826863795 0  0.4991779197992749 0.1970915826863902 0  0.4020059614928624 0.203547899597858 0  0.4394315019025246 0.1970915826863714 0  0.2550657455369551 0.2034088125358657 0  0.2548908499171161 0.1966940311614271 0  0.5946539510196798 0.2024302972968126 0  0.267698176732111 0.2039977513680092 0  0.4261685417851465 0.196409292431739 0  0.3590076176283495 0.196411355804271 0  0.5571672426447437 0.2036011176410121 0  0.3066757059912147 0.1964092924317024 0  0.594380730180568 0.1966558399668133 0  0.4842413153245942 0.2040749161535287 0  0.4693047108503577 0.2040749161535231 0  0.3871533862424271 0.1959250838464788 0  0.372246743208829 0.1959123236376545 0  0.5141145242731028 0.2040749161535395 0  0.4543681063761134 0.2040749161535186 0  0.4019979587101454 0.1959834479682427 0  0.4394608940728603 0.2040870543693135 0  0.5439623148931173 0.2040856076781014 0  0.5290511287473298 0.2040749161535501 0  0.4991779197988497 0.2040749161535382 0  0.3347912413592433 0.1959225448935183 0  0.3199680582793816 0.1959123018030061 0  0.2825051229162361 0.1959834479681729 0  0.3590471196690275 0.2036304442587945 0  0.5571594006495384 0.1963685282145804 0  0.3067669986803285 0.203627750582736 0  0.4262598344738712 0.2036568242185335 0  0.5814408164431408 0.2041285596160068 0  0.5688286748170428 0.1961819304477386 0  0.4145905603063645 0.2038180695522843 0  0.3473758401724931 0.2038180695522752 0  0.2950977245128307 0.2038180695522663 0  0.5688286748170693 0.203818069552238 0  0.2950977245127906 0.1961819304477774 0  0.3473758401723931 0.1961819304478349 0  0.4145905603061963 0.1961819304479011 0  0.2601812407614425 0.2056861609747042
[...]
<PointData  Vectors="f_40-0"> 
<DataArray  type="Float64"  Name="f_40-0"  NumberOfComponents="3" format="ascii">0.0000000000000000e+00 0.0000000000000000e+00 0.0000000000000000e+00  0.0000000000000000e+00 0.0000000000000000e+00 0.0000000000000000e+00  0.0000000000000000e+00 0.0000000000000000e+00 0.0000000000000000e+00  0.0000000000000000e+00 0.0000000000000000e+00 0.0000000000000000e+00  -1.2473318412770548e-07 -3.7375265431596636e-06 0.0000000000000000e+00  1.4599045520629734e-07 -3.7397474467666884e-06 0.0000000000000000e+00  0.0000000000000000e+00 0.0000000000000000e+00 0.0000000000000000e+00  0.0000000000000000e+00 0.0000000000000000e+00 0.0000000000000000e+00  0.0000000000000000e+00 0.0000000000000000e+00 0.0000000000000000e+00  0.0000000000000000e+00 0.0000000000000000e+00 0.0000000000000000e+00  1.0472800892440276e-08 -3.7544845945488215e-06 0.0000000000000000e+00  7.9591836734548405e-01 0.0000000000000000e+00 0.0000000000000000e+00  1.4693877550994523e+00 0.0000000000000000e+00 0.0000000000000000e+00  2.0204081632617479e+00 0.0000000000000000e+00 0.0000000000000000e+00  2.4489795918330071e+00 0.0000000000000000e+00 0.0000000000000000e+00  2.7551020408131754e+00 0.0000000000000000e+00 0.0000000000000000e+00  2.9387755102022344e+00 0.0000000000000000e+00 0.0000000000000000e+00  3.0000000000000004e+00 0.0000000000000000e+00 0.0000000000000000e+00  2.9387755102059474e+00 0.0000000000000000e+00 0.0000000000000000e+00  2.7551020408195543e+00 0.0000000000000000e+00 0.0000000000000000e+00  2.4489795918409065e+00 0.0000000000000000e+00 0.0000000000000000e+00  2.0204081632692521e+00 0.0000000000000000e+00 0.0000000000000000e+00  1.4693877551058563e+00 0.0000000000000000e+00 0.0000000000000000e+00  7.9591836734909216e-01 0.0000000000000000e+00 0.0000000000000000e+00  0.0000000000000000e+00 0.0000000000000000e+00 0.0000000000000000e+00  0.0000000000000000e+00 0.0000000000000000e+00 0.0000000000000000e+00  0.0000000000000000e+00 0.0000000000000000e+00 0.0000000000000000e+00  0.0000000000000000e+00 0.0000000000000000e+00 0.0000000000000000e+00  0.0000000000000000e+00 0.0000000000000000e+00 0.0000000000000000e+00  0.0000000000000000e+00 0.0000000000000000e+00 0.0000000000000000e+00  0.0000000000000000e+00 0.0000000000000000e+00 0.0000000000000000e+00  0.0000000000000000e+00 0.0000000000000000e+00 0.0000000000000000e+00  0.0000000000000000e+00 0.0000000000000000e+00 0.0000000000000000e+00  0.0000000000000000e+00 0.0000000000000000e+00 0.0000000000000000e+00  0.0000000000000000e+00 0.0000000000000000e+00 0.0000000000000000e+00  0.0000000000000000e+00 0.0000000000000000e+00 0.0000000000000000e+00  0.0000000000000000e+00 0.0000000000000000e+00 0.0000000000000000e+00  0.0000000000000000e+00 0.0000000000000000e+00 0.0000000000000000e+00  0.0000000000000000e+00 0.0000000000000000e+00 0.0000000000000000e+00  0.0000000000000000e+00 0.0000000000000000e+00 0.0000000000000000e+00  0.0000000000000000e+00 0.0000000000000000e+00 0.0000000000000000e+00  0.0000000000000000e+00 0.0000000000000000e+00 0.0000000000000000e+00  0.0000000000000000e+00 0.0000000000000000e+00 0.0000000000000000e+00  0.0000000000000000e+00 0.0000000000000000e+00 0.0000000000000000e+00  0.0000000000000000e+00 0.0000000000000000e+00 0.0000000000000000e+00  0.0000000000000000e+00 0.0000000000000000e+00 0.0000000000000000e+00  0.0000000000000000e+00 0.0000000000000000e+00 0.0000000000000000e+00  0.0000000000000000e+00 0.0000000000000000e+00 0.0000000000000000e+00  0.0000000000000000e+00 0.0000000000000000e+00 0.0000000000000000e+00  0.0000000000000000e+00 0.0000000000000000e+00 0.0000000000000000e+00  0.0000000000000000e+00 0.0000000000000000e+00 0.0000000000000000e+00  0.0000000000000000e+00 0.0000000000000000e+00 0.0000000000000000e+00  0.0000000000000000e+00 0.0000000000000000e+00 0.0000000000000000e+00  0.0000000000000000e+00 0.0000000000000000e+00 0.0000000000000000e+00  0.0000000000000000e+00 0.0000000000000000e+00 0.0000000000000000e+00  0.0000000000000000e+00 0.0000000000000000e+00 0.0000000000000000e+00  0.0000000000000000e+00 0.0000000000000000e+00 0.0000000000000000e+00  0.0000000000000000e+00 0.0000000000000000e+00 0.0000000000000000e+00  0.0000000000000000e+00 0.0000000000000000e+00 0.0000000000000000e+00  0.0000000000000000e+00 0.0000000000000000e+00 0.0000000000000000e+00  0.0000000000000000e+00 0.0000000000000000e+00 0.0000000000000000e+00  0.0000000000000000e+00 0.0000000000000000e+00 0.0000000000000000e+00  2.6641677986418126e+00 1.8255450182744631e-02 0.0000000000000000e+00  2.3244287272246655e+00 1.8551504342800368e-02 0.0000000000000000e+00  2.8342169269270432e+00 7.1215520716144287e-02 0.0000000000000000e+00  0.0000000000000000e+00 0.0000000000000000e+00 0.0000000000000000e+00  0.0000000000000000e+00 0.0000000000000000e+00 0.0000000000000000e+00  0.0000000000000000e+00 0.0000000000000000e+00 0.0000000000000000e+00  0.0000000000000000e+00 0.0000000000000000e+00 0.0000000000000000e+00  0.0000000000000000e+00 0.0000000000000000e+00 0.0000000000000000e+00  0.0000000000000000e+00 0.0000000000000000e+00 0.0000000000000000e+00  0.0000000000000000e+00 0.0000000000000000e+00 0.0000000000000000e+00  0.0000000000000000e+00 0.0000000000000000e+00 0.0000000000000000e+00  0.0000000000000000e+00 0.0000000000000000e+00 0.0000000000000000e+00  0.0000000000000000e+00 0.0000000000000000e+00 0.0000000000000000e+00  0.0000000000000000e+00 0.0000000000000000e+00 0.0000000000000000e+00  0.0000000000000000e+00 0.0000000000000000e+00 0.0000000000000000e+00  0.0000000000000000e+00 0.0000000000000000e+00 0.0000000000000000e+00  0.0000000000000000e+00 0.0000000000000000e+00 0.0000000000000000e+00  0.0000000000000000e+00 0.0000000000000000e+00 0.0000000000000000e+00  0.0000000000000000e+00 0.0000000000000000e+00 0.0000000000000000e+00  0.0000000000000000e+00 0.0000000000000000e+00 0.0000000000000000e+00  0.0000000000000000e+00 0.0000000000000000e+00 0.0000000000000000e+00  0.0000000000000000e+00 0.0000000000000000e+00 0.0000000000000000e+00  0.0000000000000000e+00 0.0000000000000000e+00 0.0000000000000000e+00  0.0000000000000000e+00 0.0000000000000000e+00 0.0000000000000000e+00  0.0000000000000000e+00 0.0000000000000000e+00 0.0000000000000000e+00  0.0000000000000000e+00 0.0000000000000000e+00 0.0000000000000000e+00  0.0000000000000000e+00 0.0000000000000000e+00 0.0000000000000000e+00  0.0000000000000000e+00 0.0000000000000000e+00 0.0000000000000000e+00  0.0000000000000000e+00 0.0000000000000000e+00 0.0000000000000000e+00  0.0000000000000000e+00 0.0000000000000000e+00 0.0000000000000000e+00  0.0000000000000000e+00 0.0000000000000000e+00 0.0000000000000000e+00  0.0000000000000000e+00 0.0000000000000000e+00 0.0000000000000000e+00  0.0000000000000000e+00 0.0000000000000000e+00 0.0000000000000000e+00  0.0000000000000000e+00 0.0000000000000000e+00 0.0000000000000000e+00  0.0000000000000000e+00 0.0000000000000000e+00 0.0000000000000000e+00  0.0000000000000000e+00 0.0000000000000000e+00 0.0000000000000000e+00  0.0000000000000000e+00 0.0000000000000000e+00 0.0000000000000000e+00  0.0000000000000000e+00 0.0000000000000000e+00 0.0000000000000000e+00  0.0000000000000000e+00 0.0000000000000000e+00 0.0000000000000000e+00  0.0000000000000000e+00 0.0000000000000000e+00 0.0000000000000000e+00  0.0000000000000000e+00 0.0000000000000000e+00 0.0000000000000000e+00  0.0000000000000000e+00 0.0000000000000000e+00 0.0000000000000000e+00  0.0000000000000000e+00 0.0000000000000000e+00 0.0000000000000000e+00  0.0000000000000000e+00 0.0000000000000000e+00 0.0000000000000000e+00  0.0000000000000000e+00 0.0000000000000000e+00 0.0000000000000000e+00  0.0000000000000000e+00 0.0000000000000000e+00 0.0000000000000000e+00  0.0000000000000000e+00 0.0000000000000000e+00 0.0000000000000000e+00  0.0000000000000000e+00 0.0000000000000000e+00 0.0000000000000000e+00  0.0000000000000000e+00 0.0000000000000000e+00 0.0000000000000000e+00  0.0000000000000000e+00 0.0000000000000000e+00 0.0000000000000000e+00  0.0000000000000000e+00 0.0000000000000000e+00 0.0000000000000000e+00  0.0000000000000000e+00 0.0000000000000000e+00 0.0000000000000000e+00  0.0000000000000000e+00 0.0000000000000000e+00 0.0000000000000000e+00  0.0000000000000000e+00 0.0000000000000000e+00 0.0000000000000000e+00  0.0000000000000000e+00 0.0000000000000000e+00 0.0000000000000000e+00  0.0000000000000000e+00 0.0000000000000000e+00 0.0000000000000000e+00  0.0000000000000000e+00 0.0000000000000000e+00 0.0000000000000000e+00  0.0000000000000000e+00 0.0000000000000000e+00 0.0000000000000000e+00  0.0000000000000000e+00 0.0000000000000000e+00 0.0000000000000000e+00  0.0000000000000000e+00 0.0000000000000000e+00 0.0000000000000000e+00  0.0000000000000000e+00 0.0000000000000000e+00 0.0000000000000000e+00  0.0000000000000000e+00 0.0000000000000000e+00 0.0000000000000000e+00  0.0000000000000000e+00 0.0000000000000000e+00 0.0000000000000000e+00  0.0000000000000000e+00 0.0000000000000000e+00 0.0000000000000000e+00  0.0000000000000000e+00 0.0000000000000000e+00 0.0000000000000000e+00  0.0000000000000000e+00 0.0000000000000000e+00 0.0000000000000000e+00  0.0000000000000000e+00 0.0000000000000000e+00 0.0000000000000000e+00  0.0000000000000000e+00 0.0000000000000000e+00 0.0000000000000000e+00  0.0000000000000000e+00 0.0000000000000000e+00 0.0000000000000000e+00  0.0000000000000000e+00 0.0000000000000000e+00 0.0000000000000000e+00  0.0000000000000000e+00 0.0000000000000000e+00 0.0000000000000000e+00  0.0000000000000000e+00 0.0000000000000000e+00 0.0000000000000000e+00  0.0000000000000000e+00 0.0000000000000000e+00 0.0000000000000000e+00  0.0000000000000000e+00 0.0000000000000000e+00 0.0000000000000000e+00  0.0000000000000000e+00 0.0000000000000000e+00 0.0000000000000000e+00  0.0000000000000000e+00 0.0000000000000000e+00 0.0000000000000000e+00  0.0000000000000000e+00 0.0000000000000000e+00 0.0000000000000000e+00  0.0000000000000000e+00 0.0000000000000000e+00 0.0000000000000000e+00  0.0000000000000000e+00 0.0000000000000000e+00 0.0000000000000000e+00  0.0000000000000000e+00 0.0000000000000000e+00 0.0000000000000000e+00  0.0000000000000000e+00 0.0000000000000000e+00 0.0000000000000000e+00  8.3096527238897766e-09 -7.5715604852136391e-09 0.0000000000000000e+00  1.7647026962154619e-08 -1.8186536922027398e-08 0.0000000000000000e+00  2.5717246106573067e-08 -3.5414056910082023e-08 0.0000000000000000e+00  3.4408313271110653e-08 -5.9548566471229052e-08 0.0000000000000000e+00  4.1495771962006010e-08 -8.9397706895393893e-08 0.0000000000000000e+00  4.9532739935765952e-08 -1.2547073999308555e-07 0.0000000000000000e+00  5.5843839081983682e-08 -1.6596971879700467e-07 0.0000000000000000e+00  6.1871769807950022e-08 -2.1253617381657315e-07 0.0000000000000000e+00  6.8829142434538423e-08 -2.6340359836505512e-07 0.0000000000000000e+00  7.3966154049424510e-08 -3.1884802884083173e-07 0.0000000000000000e+00  8.0267385907493531e-08 -3.7868134712630772e-07 0.0000000000000000e+00  8.4858516884328202e-08 -4.4250843485346579e-07 0.0000000000000000e+00  9.0271958245053390e-08 -5.1012369634148819e-07 0.0000000000000000e+00  9.4490419095917421e-08 -5.8078636917797095e-07 0.0000000000000000e+00  9.8475801966550402e-08 -6.5511667274241919e-07 0.0000000000000000e+00  1.0300332075316398e-07 -7.3219936215070545e-07 0.0000000000000000e+00  1.0634739685241535e-07 -8.1202881387753390e-07 0.0000000000000000e+00  1.1032194623032728e-07 -8.9451552359589790e-07 0.0000000000000000e+00  1.1321898761184317e-07 -9.7930754539951901e-07 0.0000000000000000e+00  1.1658510478167562e-07 -1.0662255966877335e-06 0.0000000000000000e+00  1.1921036819932316e-07 -1.1551544922350140e-06 0.0000000000000000e+00  1.2203669941937193e-07 -1.2459103724084981e-06 0.0000000000000000e+00  1.2429484849624306e-07 -1.3382337741822780e-06 0.0000000000000000e+00  1.2635906651807052e-07 -1.4319149228880943e-06 0.0000000000000000e+00  1.2859673178599247e-07 -1.5269166236234825e-06 0.0000000000000000e+00  1.3041598792543032e-07 -1.6231229433621761e-06 0.0000000000000000e+00  1.3218598000650770e-07 -1.7204230935589256e-06 0.0000000000000000e+00  1.3371849669516566e-07 -1.8185488647780782e-06 0.0000000000000000e+00  1.3519290417881803e-07 -1.9175435802523916e-06 0.0000000000000000e+00  1.3647424433982974e-07 -2.0171823146302107e-06 0.0000000000000000e+00  1.3769762827407662e-07 -2.1174613532165494e-06 0.0000000000000000e+00  1.3876498404891539e-07 -2.2182156579570775e-06 0.0000000000000000e+00  1.3977856545140557e-07 -2.3194530193162469e-06 0.0000000000000000e+00  1.4066921114871310e-07 -2.4209890737199126e-06 0.0000000000000000e+00  1.4151261615632619e-07 -2.5228851111049960e-06 0.0000000000000000e+00  1.4226236995686678e-07 -2.6249791511718191e-06 0.0000000000000000e+00  1.4297230827919185e-07 -2.7273023706151188e-06 0.0000000000000000e+00  1.4361427696345519e-07 -2.8297503565342926e-06 0.0000000000000000e+00  1.4422392523688007e-07 -2.9323150242299044e-06 0.0000000000000000e+00  1.4478794433425357e-07 -3.0349651022179522e-06 0.0000000000000000e+00  1.4532297911516687e-07 -3.1375659358066185e-06 0.0000000000000000e+00  1.4586434110973262e-07 -3.2409510564988493e-06 0.0000000000000000e+00  1.4631649783857591e-07 -3.3429879633272906e-06 0.0000000000000000e+00  1.4679836575092532e-07 -3.4457695250668148e-06 0.0000000000000000e+00  1.4726530176302646e-07 -3.5487281612107837e-06 0.0000000000000000e+00  1.4781040431001711e-07 -3.6507936225461527e-06 0.0000000000000000e+00  7.9365584063615044e-08 -3.7545818842583929e-06 0.0000000000000000e+00  -5.8385595356840241e-08 -3.7545717650669592e-06 0.0000000000000000e+00  -1.2774947259258002e-07 -3.6522262780049447e-06 0.0000000000000000e+00  -1.2811428708054755e-07 -3.5497999716639949e-06 0.0000000000000000e+00  -1.2858821953281248e-07 -3.4471808377348282e-06 0.0000000000000000e+00  -1.2900483798645883e-07 -3.3441743606043028e-06 0.0000000000000000e+00  -1.2945320500006714e-07 -3.2421513977484826e-06 0.0000000000000000e+00  -1.2983092975132693e-07 -3.1387701041576327e-06 0.0000000000000000e+00  -1.3020325449410443e-07 -3.0362777842513815e-06 0.0000000000000000e+00  -1.3055687585948107e-07 -2.9335901521845579e-06 0.0000000000000000e+00  -1.3083880169263540e-07 -2.8310112656106783e-06 0.0000000000000000e+00  -1.3112198743708751e-07 -2.7285551447211676e-06 0.0000000000000000e+00  -1.3129204262882061e-07 -2.6262360555138504e-06 0.0000000000000000e+00  -1.3147308254835249e-07 -2.5241227602370583e-06 0.0000000000000000e+00  -1.3149051625377667e-07 -2.4222312562135304e-06 0.0000000000000000e+00  -1.3153566092640603e-07 -2.3206603471116168e-06 0.0000000000000000e+00  -1.3135480417421337e-07 -2.2194242733051450e-06 0.0000000000000000e+00  -1.3122601277032004e-07 -2.1186493083503820e-06 0.0000000000000000e+00  -1.3079650121511285e-07 -2.0183539609677642e-06 0.0000000000000000e+00  -1.3045244960959645e-07 -1.9186901515922254e-06 0.0000000000000000e+00  -1.2971946473310404e-07 -1.8196776536091375e-06 0.0000000000000000e+00  -1.2911551104761215e-07 -1.7215026053188848e-06 0.0000000000000000e+00  -1.2801051392203846e-07 -1.6241934703347899e-06 0.0000000000000000e+00  -1.2708654018612070e-07 -1.5279803903315319e-06 0.0000000000000000e+00  -1.2556476819299249e-07 -1.4328547557927749e-06 0.0000000000000000e+00  -1.2421224324548961e-07 -1.3391386068747113e-06 0.0000000000000000e+00  -1.2263256048229651e-07 -1.2467980801649718e-06 0.0000000000000000e+00  -1.2049085662610269e-07 -1.1559124459162262e-06 0.0000000000000000e+00  -1.1837186640516565e-07 -1.0670229058658204e-06 0.0000000000000000e+00  -1.1575523540180719e-07 -9.7991740911028271e-07 0.0000000000000000e+00  -1.1308728570660178e-07 -8.9512599369932159e-07 0.0000000000000000e+00  -1.0989712138364802e-07 -8.1253330169943157e-07 0.0000000000000000e+00  -1.0664987183771821e-07 -7.3253046016494393e-07 0.0000000000000000e+00  -1.0250548219577198e-07 -6.5553135739798282e-07 0.0000000000000000e+00  -9.8792232664183597e-08 -5.8108621099785689e-07 0.0000000000000000e+00  -9.4748656306933552e-08 -5.1038301657082940e-07 0.0000000000000000e+00  -8.9621151988835247e-08 -4.4243460765551955e-07 0.0000000000000000e+00  -8.4628136590464469e-08 -3.7866384470969995e-07 0.0000000000000000e+00  -7.8850574233067785e-08 -3.1868808585871728e-07 0.0000000000000000e+00  -7.3104668505216962e-08 -2.6298358439235600e-07 0.0000000000000000e+00  -6.6035302977811611e-08 -2.1226916823164083e-07 0.0000000000000000e+00  -5.9725078585172955e-08 -1.6553971229337632e-07 0.0000000000000000e+00  -5.3057935591520833e-08 -1.2496599434420305e-07 0.0000000000000000e+00  -4.4736845457262404e-08 -8.8646263753939606e-08 0.0000000000000000e+00  -3.6921547113650860e-08 -5.8644726706649543e-08 0.0000000000000000e+00  -2.7623684208060695e-08 -3.4756292457183397e-08 0.0000000000000000e+00  -1.9100575932594207e-08 -1.7412730673249787e-08 0.0000000000000000e+00  -9.0633459265115482e-09 -6.7480519599351310e-09 0.0000000000000000e+00  -5.6150015851726052e-10 -7.5534048036699537e-09 0.0000000000000000e+00  1.1563113039616711e-08 -3.6016755566626161e-06 0.0000000000000000e+00  1.1744433569336196e-08 -3.4049337613010636e-06 0.0000000000000000e+00  9.0522893246761313e-09 -3.0839042312079716e-06 0.0000000000000000e+00  -1.2150724160624125e-09 -4.2053168470264010e-08 0.0000000000000000e+00  6.6160572257040283e-09 -2.8821659359464228e-06 0.0000000000000000e+00  -2.2667514956701561e-09 -9.9532025399929311e-08 0.0000000000000000e+00  5.7090167659857439e-09 -2.6771321845035831e-06 0.0000000000000000e+00  -3.1159909550768169e-09 -2.3610797218822905e-07 0.0000000000000000e+00  -2.3284142191658289e-09 -3.4547866513363652e-07 0.0000000000000000e+00  4.8070981935475168e-09 -2.4727835344020447e-06 0.0000000000000000e+00  -3.3506866836333754e-09 -6.9484811567873793e-07 0.0000000000000000e+00  3.0362593282297695e-09 -2.0678121356523094e-06 0.0000000000000000e+00  -3.4683257336204707e-09 -4.6795054945959371e-07 0.0000000000000000e+00  -1.5804327511713963e-09 -8.5171978756317551e-07 0.0000000000000000e+00  2.1815611195936881e-09 -1.8683223520263469e-06 0.0000000000000000e+00  3.9141352830386777e-09 -2.2695091132412142e-06 0.0000000000000000e+00  -1.0742768664280522e-09 -1.0216132101365821e-06 0.0000000000000000e+00  1.3541648727470656e-09 -1.6718033283665324e-06 0.0000000000000000e+00  -2.0828458422515465e-09 -1.1923892687459993e-06 0.0000000000000000e+00  2.2125140276124881e-09 -1.4830816996835531e-06 0.0000000000000000e+00  -2.9499463993156692e-11 -1.3304861833105246e-06 0.0000000000000000e+00  -2.0018199596195183e-09 -5.7303621174467190e-07 0.0000000000000000e+00  7.9931403179782818e-09 -3.2511463917999129e-06 0.0000000000000000e+00  -2.0138315058549059e-09 -1.5963299810931035e-07 0.0000000000000000e+00  -3.6744896944826953e-08 -3.5034256392064454e-06 0.0000000000000000e+00  -9.0349535595220768e-09 -2.1749063006596297e-08 0.0000000000000000e+00  -3.3734934146979476e-08 -2.7801458651633364e-06 0.0000000000000000e+00  -3.2917743722301481e-08 -2.9854542197432889e-06 0.0000000000000000e+00  1.2350516923908523e-08 -6.9685001620049328e-08 0.0000000000000000e+00  1.9211253269712764e-08 -2.8790784411703957e-07 0.0000000000000000e+00  -3.5725652451734754e-08 -2.1688947041088801e-06 0.0000000000000000e+00  -3.4491114175012324e-08 -2.5753732994476224e-06 0.0000000000000000e+00  2.9214013278064317e-08 -7.7052833484456972e-07 0.0000000000000000e+00  -3.6145221146535401e-08 -1.9681934927048404e-06 0.0000000000000000e+00  2.2249591454645956e-08 -4.0785477015601202e-07 0.0000000000000000e+00  3.1537337599267397e-08 -9.3572714356970852e-07 0.0000000000000000e+00  -3.6389156776217207e-08 -1.7700657064094834e-06 0.0000000000000000e+00  -3.5163832117257758e-08 -2.3714758828930019e-06 0.0000000000000000e+00  4.1260881504549091e-08 -1.1088916666519142e-06 0.0000000000000000e+00  -3.6437592438361561e-08 -1.5753426619206001e-06 0.0000000000000000e+00  1.1661580129254668e-09 -1.7151792676182243e-09 0.0000000000000000e+00  -1.6911495868759462e-09 -1.3932230273022391e-09 0.0000000000000000e+00  4.3574923832379691e-08 -3.6828032022285868e-06 0.0000000000000000e+00  8.130