<?xml version="1.0"?>
<VTKFile type="UnstructuredGrid"  version="0.1"  >
<UnstructuredGrid>
<Piece  NumberOfPoints="1419" NumberOfCells="2698">
<Points>
<DataArray  type="Float64"  NumberOfComponents="3"  format="ascii">0 0 0  0 0.41 0  2.5 0 0  2.5 0.41 0  0.6 0.19 0  0.6 0.21 0  0.25 0.2 0  0.15 0.2 0  0.2489897948556636 0.21 0  0.2489897948556636 0.19 0  0.6 0.2 0  0 0.3807142857143437 0  0 0.3514285714286952 0  0 0.3221428571430699 0  0 0.29285714285744 0  0 0.2635714285718054 0  0 0.2342857142861561 0  0 0.2050000000005308 0  0 0.175714285714732 0  0 0.1464285714289574 0  0 0.1171428571431897 0  0 0.08785714285737878 0  0 0.05857142857161107 0  0 0.02928571428580012 0  0.03015443760436003 0 0  0.06140001986583606 0 0  0.09377624077125973 0 0  0.1273239957535082 0 0  0.1620856860351972 0 0  0.1981052433264291 0 0  0.235428184091502 0 0  0.2741016576309132 0 0  0.3141745521465447 0 0  0.3556974926295285 0 0  0.3987229542472677 0 0  0.4433053055141081 0 0  0.4895008759286886 0 0  0.5373680609405097 0 0  0.5869673343216626 0 0  0.6383613676634521 0 0  0.6916151138468254 0 0  0.7467958595648856 0 0  0.8039733463919316 0 0  0.8632198139502143 0 0  0.9246101326867038 0 0  0.9882218810934433 0 0  1.054135445558498 0 0  1.122434100542598 0 0  1.193204177141305 0 0  1.266535089879536 0 0  1.342519516046404 0 0  1.421253448503939 0 0  1.502836389106271 0 0  1.587371439758838 0 0  1.674965418777374 0 0  1.765729001825544 0 0  1.859776908880082 0 0  1.957227977487062 0 0  2.058205329869943 0 0  2.162836591189951 0 0  2.271253957290865 0 0  2.383594446803425 0 0  2.5 0.1024999999997612 0  2.5 0.2049999999994743 0  2.5 0.3074999999997183 0  2.383594446803656 0.41 0  2.271253957291315 0.41 0  2.162836591190598 0.41 0  2.058205329870775 0.41 0  1.957227977488067 0.41 0  1.859776908881246 0.41 0  1.765729001826854 0.41 0  1.674965418778818 0.41 0  1.58737143976041 0.41 0  1.502836389107956 0.41 0  1.421253448505726 0.41 0  1.342519516048286 0.41 0  1.266535089881505 0.41 0  1.193204177143353 0.41 0  1.122434100544716 0.41 0  1.05413544556068 0.41 0  0.9882218810956305 0.41 0  0.9246101326886647 0.41 0  0.8632198139519631 0.41 0  0.8039733463934788 0.41 0  0.7467958595662458 0.41 0  0.6916151138480078 0.41 0  0.6383613676644679 0.41 0  0.5869673343225223 0.41 0  0.5373680609412221 0.41 0  0.4895008759292634 0.41 0  0.4433053055145528 0.41 0  0.3987229542475914 0.41 0  0.3556974926297398 0.41 0  0.3141745521466497 0.41 0  0.2741016576310038 0.41 0  0.2354281840915826 0.41 0  0.1981052433265003 0.41 0  0.1620856860352591 0.41 0  0.1273239957535623 0.41 0  0.09377624077128965 0.41 0  0.06140001986584975 0.41 0  0.03015443760436654 0.41 0  0.2497468076502589 0.2050254481002335 0  0.2497468076502614 0.1949745518997913 0  0.2469965252529372 0.1829317073451959 0  0.2439893735792749 0.1762316384219906 0  0.2400332147834255 0.1700443375285386 0  0.2352133972704371 0.1645032867342007 0  0.2296339016332438 0.1597280261969788 0  0.2234150974217223 0.1558215752574715 0  0.2166911463437691 0.1528682099456123 0  0.2096071079204251 0.1509316448471593 0  0.2023158100364996 0.1500536585536553 0  0.194974551899914 0.1502531923497262 0  0.1877417105387872 0.1515259415822739 0  0.1807733240461124 0.153844448527136 0  0.1742197252835808 0.15715869474974 0  0.1682222986673531 0.1613971801805478 0  0.162910430003803 0.1664684656256651 0  0.1583987151779087 0.1722631454351573 0  0.1547844879126891 0.178656207771761 0  0.1521457199348551 0.1855097315605723 0  0.1505393388476355 0.1926758619366523 0  0.1505393388476328 0.2073241380633295 0  0.1521457199348437 0.2144902684393899 0  0.1547844879126531 0.221343792228163 0  0.1583987151778488 0.2277368545647528 0  0.1629104300036858 0.2335315343742052 0  0.1682222986671726 0.2386028198193036 0  0.1742197252833576 0.2428413052501257 0  0.1807733240458683 0.2461555514727623 0  0.1877417105384929 0.2484740584176516 0  0.1949745518995776 0.2497468076502398 0  0.202315810036185 0.2499463414463592 0  0.2096071079201568 0.2490683551528932 0  0.2166911463435495 0.2471317900544655 0  0.2234150974215506 0.2441784247426195 0  0.2296339016331197 0.2402719738031125 0  0.2352133972703547 0.2354967132658811 0  0.2400332147833751 0.2299556624715287 0  0.2439893735792577 0.2237683615780412 0  0.246996525252926 0.2170682926548348 0  0.25645809709277 0.21 0  0.2639263993298655 0.21 0  0.271394701566961 0.21 0  0.2788630038040554 0.21 0  0.2863313060411479 0.21 0  0.2937996082782405 0.21 0  0.301267910515333 0.21 0  0.3087362127524279 0.21 0  0.3162045149895234 0.21 0  0.3236728172265972 0.21 0  0.3311411194636928 0.21 0  0.3386094217007701 0.21 0  0.3460777239378666 0.21 0  0.3535460261749672 0.21 0  0.3610143284120516 0.21 0  0.3684826306491596 0.21 0  0.3759509328862226 0.21 0  0.383419235123329 0.21 0  0.3908875373604028 0.21 0  0.3983558395975142 0.21 0  0.4058241418345938 0.21 0  0.4132924440716992 0.21 0  0.4207607463087888 0.21 0  0.4282290485459029 0.21 0  0.4356973507830418 0.21 0  0.4431656530201649 0.21 0  0.4506339552573136 0.21 0  0.4581022574944306 0.21 0  0.4655705597315852 0.21 0  0.4730388619686996 0.21 0  0.480507164205851 0.21 0  0.4879754664429498 0.21 0  0.4954437686800938 0.21 0  0.502912070917267 0.21 0  0.5103803731544119 0.21 0  0.5178486753915261 0.21 0  0.5253169776286404 0.21 0  0.5327852798657868 0.21 0  0.5402535821029386 0.21 0  0.54772188434007 0.21 0  0.5551901865771842 0.21 0  0.5626584888143201 0.21 0  0.5701267910514778 0.21 0  0.5775950932886138 0.21 0  0.5850633955257281 0.21 0  0.5925316977628483 0.21 0  0.6 0.2050000000000054 0  0.6 0.1950000000000217 0  0.5925316977628897 0.19 0  0.5850633955257988 0.19 0  0.5775950932887378 0.19 0  0.5701267910515998 0.19 0  0.5626584888145268 0.19 0  0.5551901865773963 0.19 0  0.547721884340339 0.19 0  0.5402535821032429 0.19 0  0.5327852798661811 0.19 0  0.5253169776290537 0.19 0  0.5178486753919799 0.19 0  0.5103803731549078 0.19 0  0.502912070917822 0.19 0  0.4954437686807294 0.19 0  0.4879754664436223 0.19 0  0.4805071642065402 0.19 0  0.4730388619694271 0.19 0  0.4655705597323621 0.19 0  0.4581022574952563 0.19 0  0.4506339552581777 0.19 0  0.4431656530210671 0.19 0  0.4356973507839815 0.19 0  0.4282290485468779 0.19 0  0.4207607463097617 0.19 0  0.4132924440726327 0.19 0  0.4058241418354857 0.19 0  0.3983558395983636 0.19 0  0.3908875373612097 0.19 0  0.3834192351240934 0.19 0  0.3759509328869369 0.19 0  0.3684826306498175 0.19 0  0.361014328412667 0.19 0  0.3535460261755617 0.19 0  0.3460777239384295 0.19 0  0.3386094217012945 0.19 0  0.3311411194641595 0.19 0  0.3236728172270245 0.19 0  0.3162045149898895 0.19 0  0.3087362127527544 0.19 0  0.3012679105156187 0.19 0  0.2937996082784807 0.19 0  0.2863313060413428 0.19 0  0.2788630038042048 0.19 0  0.2713947015670686 0.19 0  0.2639263993299336 0.19 0  0.2564580970927985 0.19 0  0.2607803159922026 0.2000727136295815 0  0.5887803774232762 0.2001272386983733 0  0.5745072403740523 0.2002044435018727 0  0.5511891430099709 0.2001122610077113 0  0.2751288526855082 0.20000000000002 0  0.5365194309847112 0.1999999999999436 0  0.2894621222999649 0.1998691686390484 0  0.5215828265105155 0.1999999999999228 0  0.3127789816668748 0.1998657885438805 0  0.3274069683451451 0.2000000000000796 0  0.5066462220363641 0.199999999999908 0  0.3650630746574081 0.199866017807523 0  0.476773013087985 0.1999999999998713 0  0.3417402379596385 0.1998691686391011 0  0.3796850840047755 0.200000000000134 0  0.4618364086138087 0.1999999999998546 0  0.4917096175621762 0.1999999999998808 0  0.3946216884789568 0.2000000000001512 0  0.446899804139621 0.1999999999998389 0  0.4089549580935208 0.1998691686391595 0  0.4322718174608562 0.200127451265745 0  0.4201487168029707 0.1999966199048527 0  0.3528922713220932 0.2000185703532356 0  0.5633122436674589 0.1999814296467508 0  0.3006558810093873 0.1999966199048318 0  0.5815926498168407 0.1966545283159175 0  0.2677053789419034 0.1964246479135325 0  0.5290511287476175 0.1970915826863981 0  0.5439877332217911 0.197091582686394 0  0.2825131256993216 0.2035478995978015 0  0.3199386661080599 0.202908417313604 0  0.4842413153250809 0.1970915826863873 0  0.5141145242734466 0.1970915826863843 0  0.3722167817676917 0.2029084173136195 0  0.4693047108508938 0.1970915826863783 0  0.3348752705822316 0.202908417313609 0  0.3871533862418661 0.2029084173136212 0  0.4543681063767183 0.1970915826863795 0  0.4991779197992749 0.1970915826863902 0  0.4020059614928624 0.203547899597858 0  0.4394315019025246 0.1970915826863714 0  0.2550657455369551 0.2034088125358657 0  0.2548908499171161 0.1966940311614271 0  0.5946539510196798 0.2024302972968126 0  0.267698176732111 0.2039977513680092 0  0.4261685417851465 0.196409292431739 0  0.3590076176283495 0.196411355804271 0  0.5571672426447437 0.2036011176410121 0  0.3066757059912147 0.1964092924317024 0  0.594380730180568 0.1966558399668133 0  0.4842413153245942 0.2040749161535287 0  0.4693047108503577 0.2040749161535231 0  0.3871533862424271 0.1959250838464788 0  0.372246743208829 0.1959123236376545 0  0.5141145242731028 0.2040749161535395 0  0.4543681063761134 0.2040749161535186 0  0.4019979587101454 0.1959834479682427 0  0.4394608940728603 0.2040870543693135 0  0.5439623148931173 0.2040856076781014 0  0.5290511287473298 0.2040749161535501 0  0.4991779197988497 0.2040749161535382 0  0.3347912413592433 0.1959225448935183 0  0.3199680582793816 0.1959123018030061 0  0.2825051229162361 0.1959834479681729 0  0.3590471196690275 0.2036304442587945 0  0.5571594006495384 0.1963685282145804 0  0.3067669986803285 0.203627750582736 0  0.4262598344738712 0.2036568242185335 0  0.5814408164431408 0.2041285596160068 0  0.5688286748170428 0.1961819304477386 0  0.4145905603063645 0.2038180695522843 0  0.3473758401724931 0.2038180695522752 0  0.2950977245128307 0.2038180695522663 0  0.5688286748170693 0.203818069552238 0  0.2950977245127906 0.1961819304477774 0  0.3473758401723931 0.1961819304478349 0  0.4145905603061963 0.1961819304479011 0  0.2601812407614425 0.2056861609747042
[...]
<PointData  Vectors="f_40-0"> 
<DataArray  type="Float64"  Name="f_40-0"  NumberOfComponents="3" format="ascii">0.0000000000000000e+00 0.0000000000000000e+00 0.0000000000000000e+00  0.0000000000000000e+00 0.0000000000000000e+00 0.0000000000000000e+00  0.0000000000000000e+00 0.0000000000000000e+00 0.0000000000000000e+00  0.0000000000000000e+00 0.0000000000000000e+00 0.0000000000000000e+00  -3.3326482428980776e-05 -7.3628547560378190e-05 0.0000000000000000e+00  -2.6867260672863115e-05 -7.9456622497994455e-05 0.0000000000000000e+00  0.0000000000000000e+00 0.0000000000000000e+00 0.0000000000000000e+00  0.0000000000000000e+00 0.0000000000000000e+00 0.0000000000000000e+00  0.0000000000000000e+00 0.0000000000000000e+00 0.0000000000000000e+00  0.0000000000000000e+00 0.0000000000000000e+00 0.0000000000000000e+00  -3.0390231551529438e-05 -7.6541661070871598e-05 0.0000000000000000e+00  1.1039465794663897e-02 0.0000000000000000e+00 0.0000000000000000e+00  2.0380552236303931e-02 0.0000000000000000e+00 0.0000000000000000e+00  2.8023259324917907e-02 0.0000000000000000e+00 0.0000000000000000e+00  3.3967587060514677e-02 0.0000000000000000e+00 0.0000000000000000e+00  3.8213535443093478e-02 0.0000000000000000e+00 0.0000000000000000e+00  4.0761104472654033e-02 0.0000000000000000e+00 0.0000000000000000e+00  4.1610294149193816e-02 0.0000000000000000e+00 0.0000000000000000e+00  4.0761104472705541e-02 0.0000000000000000e+00 0.0000000000000000e+00  3.8213535443181942e-02 0.0000000000000000e+00 0.0000000000000000e+00  3.3967587060624242e-02 0.0000000000000000e+00 0.0000000000000000e+00  2.8023259325021994e-02 0.0000000000000000e+00 0.0000000000000000e+00  2.0380552236392749e-02 0.0000000000000000e+00 0.0000000000000000e+00  1.1039465794713941e-02 0.0000000000000000e+00 0.0000000000000000e+00  0.0000000000000000e+00 0.0000000000000000e+00 0.0000000000000000e+00  0.0000000000000000e+00 0.0000000000000000e+00 0.0000000000000000e+00  0.0000000000000000e+00 0.0000000000000000e+00 0.0000000000000000e+00  0.0000000000000000e+00 0.0000000000000000e+00 0.0000000000000000e+00  0.0000000000000000e+00 0.0000000000000000e+00 0.0000000000000000e+00  0.0000000000000000e+00 0.0000000000000000e+00 0.0000000000000000e+00  0.0000000000000000e+00 0.0000000000000000e+00 0.0000000000000000e+00  0.0000000000000000e+00 0.0000000000000000e+00 0.0000000000000000e+00  0.0000000000000000e+00 0.0000000000000000e+00 0.0000000000000000e+00  0.0000000000000000e+00 0.0000000000000000e+00 0.0000000000000000e+00  0.0000000000000000e+00 0.0000000000000000e+00 0.0000000000000000e+00  0.0000000000000000e+00 0.0000000000000000e+00 0.0000000000000000e+00  0.0000000000000000e+00 0.0000000000000000e+00 0.0000000000000000e+00  0.0000000000000000e+00 0.0000000000000000e+00 0.0000000000000000e+00  0.0000000000000000e+00 0.0000000000000000e+00 0.0000000000000000e+00  0.0000000000000000e+00 0.0000000000000000e+00 0.0000000000000000e+00  0.0000000000000000e+00 0.0000000000000000e+00 0.0000000000000000e+00  0.0000000000000000e+00 0.0000000000000000e+00 0.0000000000000000e+00  0.0000000000000000e+00 0.0000000000000000e+00 0.0000000000000000e+00  0.0000000000000000e+00 0.0000000000000000e+00 0.0000000000000000e+00  0.0000000000000000e+00 0.0000000000000000e+00 0.0000000000000000e+00  0.0000000000000000e+00 0.0000000000000000e+00 0.0000000000000000e+00  0.0000000000000000e+00 0.0000000000000000e+00 0.0000000000000000e+00  0.0000000000000000e+00 0.0000000000000000e+00 0.0000000000000000e+00  0.0000000000000000e+00 0.0000000000000000e+00 0.0000000000000000e+00  0.0000000000000000e+00 0.0000000000000000e+00 0.0000000000000000e+00  0.0000000000000000e+00 0.0000000000000000e+00 0.0000000000000000e+00  0.0000000000000000e+00 0.0000000000000000e+00 0.0000000000000000e+00  0.0000000000000000e+00 0.0000000000000000e+00 0.0000000000000000e+00  0.0000000000000000e+00 0.0000000000000000e+00 0.0000000000000000e+00  0.0000000000000000e+00 0.0000000000000000e+00 0.0000000000000000e+00  0.0000000000000000e+00 0.0000000000000000e+00 0.0000000000000000e+00  0.0000000000000000e+00 0.0000000000000000e+00 0.0000000000000000e+00  0.0000000000000000e+00 0.0000000000000000e+00 0.0000000000000000e+00  0.0000000000000000e+00 0.0000000000000000e+00 0.0000000000000000e+00  0.0000000000000000e+00 0.0000000000000000e+00 0.0000000000000000e+00  0.0000000000000000e+00 0.0000000000000000e+00 0.0000000000000000e+00  0.0000000000000000e+00 0.0000000000000000e+00 0.0000000000000000e+00  2.9572098067315873e-02 4.3244542091960277e-04 0.0000000000000000e+00  2.4964434809898788e-02 -1.0991612078413333e-04 0.0000000000000000e+00  2.9213928751272648e-02 -4.5189533043794796e-04 0.0000000000000000e+00  0.0000000000000000e+00 0.0000000000000000e+00 0.0000000000000000e+00  0.0000000000000000e+00 0.0000000000000000e+00 0.0000000000000000e+00  0.0000000000000000e+00 0.0000000000000000e+00 0.0000000000000000e+00  0.0000000000000000e+00 0.0000000000000000e+00 0.0000000000000000e+00  0.0000000000000000e+00 0.0000000000000000e+00 0.0000000000000000e+00  0.0000000000000000e+00 0.0000000000000000e+00 0.0000000000000000e+00  0.0000000000000000e+00 0.0000000000000000e+00 0.0000000000000000e+00  0.0000000000000000e+00 0.0000000000000000e+00 0.0000000000000000e+00  0.0000000000000000e+00 0.0000000000000000e+00 0.0000000000000000e+00  0.0000000000000000e+00 0.0000000000000000e+00 0.0000000000000000e+00  0.0000000000000000e+00 0.0000000000000000e+00 0.0000000000000000e+00  0.0000000000000000e+00 0.0000000000000000e+00 0.0000000000000000e+00  0.0000000000000000e+00 0.0000000000000000e+00 0.0000000000000000e+00  0.0000000000000000e+00 0.0000000000000000e+00 0.0000000000000000e+00  0.0000000000000000e+00 0.0000000000000000e+00 0.0000000000000000e+00  0.0000000000000000e+00 0.0000000000000000e+00 0.0000000000000000e+00  0.0000000000000000e+00 0.0000000000000000e+00 0.0000000000000000e+00  0.0000000000000000e+00 0.0000000000000000e+00 0.0000000000000000e+00  0.0000000000000000e+00 0.0000000000000000e+00 0.0000000000000000e+00  0.0000000000000000e+00 0.0000000000000000e+00 0.0000000000000000e+00  0.0000000000000000e+00 0.0000000000000000e+00 0.0000000000000000e+00  0.0000000000000000e+00 0.0000000000000000e+00 0.0000000000000000e+00  0.0000000000000000e+00 0.0000000000000000e+00 0.0000000000000000e+00  0.0000000000000000e+00 0.0000000000000000e+00 0.0000000000000000e+00  0.0000000000000000e+00 0.0000000000000000e+00 0.0000000000000000e+00  0.0000000000000000e+00 0.0000000000000000e+00 0.0000000000000000e+00  0.0000000000000000e+00 0.0000000000000000e+00 0.0000000000000000e+00  0.0000000000000000e+00 0.0000000000000000e+00 0.0000000000000000e+00  0.0000000000000000e+00 0.0000000000000000e+00 0.0000000000000000e+00  0.0000000000000000e+00 0.0000000000000000e+00 0.0000000000000000e+00  0.0000000000000000e+00 0.0000000000000000e+00 0.0000000000000000e+00  0.0000000000000000e+00 0.0000000000000000e+00 0.0000000000000000e+00  0.0000000000000000e+00 0.0000000000000000e+00 0.0000000000000000e+00  0.0000000000000000e+00 0.0000000000000000e+00 0.0000000000000000e+00  0.0000000000000000e+00 0.0000000000000000e+00 0.0000000000000000e+00  0.0000000000000000e+00 0.0000000000000000e+00 0.0000000000000000e+00  0.0000000000000000e+00 0.0000000000000000e+00 0.0000000000000000e+00  0.0000000000000000e+00 0.0000000000000000e+00 0.0000000000000000e+00  0.0000000000000000e+00 0.0000000000000000e+00 0.0000000000000000e+00  0.0000000000000000e+00 0.0000000000000000e+00 0.0000000000000000e+00  0.0000000000000000e+00 0.0000000000000000e+00 0.0000000000000000e+00  0.0000000000000000e+00 0.0000000000000000e+00 0.0000000000000000e+00  0.0000000000000000e+00 0.0000000000000000e+00 0.0000000000000000e+00  0.0000000000000000e+00 0.0000000000000000e+00 0.0000000000000000e+00  0.0000000000000000e+00 0.0000000000000000e+00 0.0000000000000000e+00  0.0000000000000000e+00 0.0000000000000000e+00 0.0000000000000000e+00  0.0000000000000000e+00 0.0000000000000000e+00 0.0000000000000000e+00  0.0000000000000000e+00 0.0000000000000000e+00 0.0000000000000000e+00  0.0000000000000000e+00 0.0000000000000000e+00 0.0000000000000000e+00  0.0000000000000000e+00 0.0000000000000000e+00 0.0000000000000000e+00  0.0000000000000000e+00 0.0000000000000000e+00 0.0000000000000000e+00  0.0000000000000000e+00 0.0000000000000000e+00 0.0000000000000000e+00  0.0000000000000000e+00 0.0000000000000000e+00 0.0000000000000000e+00  0.0000000000000000e+00 0.0000000000000000e+00 0.0000000000000000e+00  0.0000000000000000e+00 0.0000000000000000e+00 0.0000000000000000e+00  0.0000000000000000e+00 0.0000000000000000e+00 0.0000000000000000e+00  0.0000000000000000e+00 0.0000000000000000e+00 0.0000000000000000e+00  0.0000000000000000e+00 0.0000000000000000e+00 0.0000000000000000e+00  0.0000000000000000e+00 0.0000000000000000e+00 0.0000000000000000e+00  0.0000000000000000e+00 0.0000000000000000e+00 0.0000000000000000e+00  0.0000000000000000e+00 0.0000000000000000e+00 0.0000000000000000e+00  0.0000000000000000e+00 0.0000000000000000e+00 0.0000000000000000e+00  0.0000000000000000e+00 0.0000000000000000e+00 0.0000000000000000e+00  0.0000000000000000e+00 0.0000000000000000e+00 0.0000000000000000e+00  0.0000000000000000e+00 0.0000000000000000e+00 0.0000000000000000e+00  0.0000000000000000e+00 0.0000000000000000e+00 0.0000000000000000e+00  0.0000000000000000e+00 0.0000000000000000e+00 0.0000000000000000e+00  0.0000000000000000e+00 0.0000000000000000e+00 0.0000000000000000e+00  0.0000000000000000e+00 0.0000000000000000e+00 0.0000000000000000e+00  0.0000000000000000e+00 0.0000000000000000e+00 0.0000000000000000e+00  0.0000000000000000e+00 0.0000000000000000e+00 0.0000000000000000e+00  0.0000000000000000e+00 0.0000000000000000e+00 0.0000000000000000e+00  0.0000000000000000e+00 0.0000000000000000e+00 0.0000000000000000e+00  0.0000000000000000e+00 0.0000000000000000e+00 0.0000000000000000e+00  0.0000000000000000e+00 0.0000000000000000e+00 0.0000000000000000e+00  0.0000000000000000e+00 0.0000000000000000e+00 0.0000000000000000e+00  0.0000000000000000e+00 0.0000000000000000e+00 0.0000000000000000e+00  0.0000000000000000e+00 0.0000000000000000e+00 0.0000000000000000e+00  -1.3183533642362203e-07 -5.0760126401290746e-06 0.0000000000000000e+00  -1.0986125676088984e-07 -5.5802654607418368e-06 0.0000000000000000e+00  1.4605502744893012e-07 -5.8933015404683102e-06 0.0000000000000000e+00  5.2695414555687005e-07 -6.1471149409676381e-06 0.0000000000000000e+00  9.1302806678388510e-07 -6.4856490998871922e-06 0.0000000000000000e+00  1.2708289753887529e-06 -6.9690808658498945e-06 0.0000000000000000e+00  1.5731543209301450e-06 -7.5252603621909083e-06 0.0000000000000000e+00  1.8234564952582792e-06 -8.1842846515392644e-06 0.0000000000000000e+00  2.0626633407483309e-06 -8.9300496563074837e-06 0.0000000000000000e+00  2.2211201641851988e-06 -9.7478756393803997e-06 0.0000000000000000e+00  2.3638287319958717e-06 -1.0677062434681441e-05 0.0000000000000000e+00  2.4285680080334666e-06 -1.1665033061351255e-05 0.0000000000000000e+00  2.4643473973899991e-06 -1.2749081391183570e-05 0.0000000000000000e+00  2.4396806401368422e-06 -1.3902394294597045e-05 0.0000000000000000e+00  2.3572256777321460e-06 -1.5137048523974482e-05 0.0000000000000000e+00  2.2556813086554750e-06 -1.6449776315569471e-05 0.0000000000000000e+00  2.0739367592328877e-06 -1.7811829411426746e-05 0.0000000000000000e+00  1.8651984584888617e-06 -1.9273863320173176e-05 0.0000000000000000e+00  1.5822727801021619e-06 -2.0769436117782377e-05 0.0000000000000000e+00  1.2700237441553724e-06 -2.2358431823662963e-05 0.0000000000000000e+00  8.8955363888648900e-07 -2.3979827650321916e-05 0.0000000000000000e+00  4.6428188512193000e-07 -2.5678530783479672e-05 0.0000000000000000e+00  -1.2985375796159894e-08 -2.7422912736197281e-05 0.0000000000000000e+00  -5.4974465946772800e-07 -2.9221503091298269e-05 0.0000000000000000e+00  -1.1135854789268913e-06 -3.1074873894973246e-05 0.0000000000000000e+00  -1.7471629461936752e-06 -3.2955874183355890e-05 0.0000000000000000e+00  -2.4292045087519681e-06 -3.4914208705866606e-05 0.0000000000000000e+00  -3.1665107861355571e-06 -3.6879544349061388e-05 0.0000000000000000e+00  -3.9526300124121316e-06 -3.8915781643618323e-05 0.0000000000000000e+00  -4.7928285687298810e-06 -4.0958175413912775e-05 0.0000000000000000e+00  -5.6820127115202307e-06 -4.3064546134651594e-05 0.0000000000000000e+00  -6.6263152697605617e-06 -4.5171760700433022e-05 0.0000000000000000e+00  -7.6179440717312112e-06 -4.7339547788352969e-05 0.0000000000000000e+00  -8.6658919059987510e-06 -4.9499279386911773e-05 0.0000000000000000e+00  -9.7654711532672107e-06 -5.1718116606539456e-05 0.0000000000000000e+00  -1.0917821522407004e-05 -5.3926319459669816e-05 0.0000000000000000e+00  -1.2119472743609945e-05 -5.6185850753943901e-05 0.0000000000000000e+00  -1.3374490592434640e-05 -5.8431891906538171e-05 0.0000000000000000e+00  -1.4681553560249299e-05 -6.0724498515209497e-05 0.0000000000000000e+00  -1.6044199468695817e-05 -6.2999843109746024e-05 0.0000000000000000e+00  -1.7465495719773525e-05 -6.5306628479649319e-05 0.0000000000000000e+00  -1.8928614508080874e-05 -6.7610552688188399e-05 0.0000000000000000e+00  -2.0455372415617259e-05 -6.9927384966581829e-05 0.0000000000000000e+00  -2.2012598262656092e-05 -7.2247996781492661e-05 0.0000000000000000e+00  -2.3631324846680091e-05 -7.4556445915683023e-05 0.0000000000000000e+00  -2.5270789126245086e-05 -7.6909180373707932e-05 0.0000000000000000e+00  -2.8736374916789994e-05 -7.7998698810803244e-05 0.0000000000000000e+00  -3.1951376465747369e-05 -7.5088146432416685e-05 0.0000000000000000e+00  -3.1715752035400665e-05 -7.1358492262636730e-05 0.0000000000000000e+00  -3.0054399408234209e-05 -6.8898538015867592e-05 0.0000000000000000e+00  -2.8418155968625593e-05 -6.6417071302098135e-05 0.0000000000000000e+00  -2.6837111755781679e-05 -6.3960207638960609e-05 0.0000000000000000e+00  -2.5288949640006672e-05 -6.1509799073328729e-05 0.0000000000000000e+00  -2.3803167968334431e-05 -5.9069411184913829e-05 0.0000000000000000e+00  -2.2351728778436053e-05 -5.6645749380721821e-05 0.0000000000000000e+00  -2.0958932485911259e-05 -5.4217280383784569e-05 0.0000000000000000e+00  -1.9608513641999162e-05 -5.1829071866294262e-05 0.0000000000000000e+00  -1.8310653325968221e-05 -4.9427048423853516e-05 0.0000000000000000e+00  -1.7053422638910429e-05 -4.7072188983397046e-05 0.0000000000000000e+00  -1.5850142243103248e-05 -4.4708480686240730e-05 0.0000000000000000e+00  -1.4685431305646343e-05 -4.2396169119230331e-05 0.0000000000000000e+00  -1.3574615969017789e-05 -4.0079816549831345e-05 0.0000000000000000e+00  -1.2499821462928179e-05 -3.7818836015723299e-05 0.0000000000000000e+00  -1.1480716715952858e-05 -3.5558232914548251e-05 0.0000000000000000e+00  -1.0496497656289188e-05 -3.3357586587850443e-05 0.0000000000000000e+00  -9.5695079504590206e-06 -3.1162431016604715e-05 0.0000000000000000e+00  -8.6748227130664642e-06 -2.9033182433465305e-05 0.0000000000000000e+00  -7.8383117668031970e-06 -2.6915118465945301e-05 0.0000000000000000e+00  -7.0317149624877519e-06 -2.4867174099474960e-05 0.0000000000000000e+00  -6.2850074541798252e-06 -2.2837159880430376e-05 0.0000000000000000e+00  -5.5739060980320526e-06 -2.0872316894916029e-05 0.0000000000000000e+00  -4.9098770215384730e-06 -1.8946399759249173e-05 0.0000000000000000e+00  -4.3015938117168560e-06 -1.7083120608956144e-05 0.0000000000000000e+00  -3.7093085323384335e-06 -1.5269324305798994e-05 0.0000000000000000e+00  -3.1801707679287704e-06 -1.3503777928335757e-05 0.0000000000000000e+00  -2.6868497158473335e-06 -1.1824739052391872e-05 0.0000000000000000e+00  -2.2455575070710943e-06 -1.0179365345855316e-05 0.0000000000000000e+00  -1.8425813924789726e-06 -8.6307100327317409e-06 0.0000000000000000e+00  -1.4902891057391215e-06 -7.1188375824608203e-06 0.0000000000000000e+00  -1.1746337859940711e-06 -5.7073659899572641e-06 0.0000000000000000e+00  -9.0672450884782715e-07 -4.3467600766048629e-06 0.0000000000000000e+00  -6.9192935091360100e-07 -3.0810703786913029e-06 0.0000000000000000e+00  -4.8846928608168429e-07 -1.8796229136512544e-06 0.0000000000000000e+00  -3.4832898272949141e-07 -7.5914244133081207e-07 0.0000000000000000e+00  -2.4291943666638589e-07 2.5432659011402471e-07 0.0000000000000000e+00  -1.8836771646061915e-07 1.2074375484249938e-06 0.0000000000000000e+00  -1.6465320501463913e-07 2.0468710009000632e-06 0.0000000000000000e+00  -1.9059157728738890e-07 2.8158360193913818e-06 0.0000000000000000e+00  -2.6650587013098880e-07 3.4746443278697725e-06 0.0000000000000000e+00  -3.4563274003157553e-07 4.0519390615548915e-06 0.0000000000000000e+00  -4.9168716276867574e-07 4.5697030872254644e-06 0.0000000000000000e+00  -5.8883201192785890e-07 4.9705665468522709e-06 0.0000000000000000e+00  -6.0836357331714086e-07 5.1158624680007914e-06 0.0000000000000000e+00  -3.7956001573502819e-07 4.8649235680604626e-06 0.0000000000000000e+00  -1.2745557617408955e-06 -1.2746238082424488e-07 0.0000000000000000e+00  -2.7735803635560301e-05 -7.2953938878606483e-05 0.0000000000000000e+00  -2.4528424426051307e-05 -6.8397304038282400e-05 0.0000000000000000e+00  -1.9854746675061851e-05 -6.0947581687306047e-05 0.0000000000000000e+00  -1.4903506135479459e-07 -5.5169513226678898e-07 0.0000000000000000e+00  -1.7190505444712316e-05 -5.6288775920060056e-05 0.0000000000000000e+00  3.5377707352708198e-07 -1.2934671164519250e-06 0.0000000000000000e+00  -1.4633846437084042e-05 -5.1637960241256545e-05 0.0000000000000000e+00  8.5029484863295467e-07 -3.3595473620710396e-06 0.0000000000000000e+00  9.6740134255594313e-07 -5.1671330484986750e-06 0.0000000000000000e+00  -1.2275195304692342e-05 -4.7062939823419037e-05 0.0000000000000000e+00  4.2957505845733520e-07 -1.1040925545816669e-05 0.0000000000000000e+00  -8.1462827905739452e-06 -3.8209079790860347e-05 0.0000000000000000e+00  8.9365625989643694e-07 -7.1222177772079167e-06 0.0000000000000000e+00  -6.9540081282615602e-08 -1.3922184350134086e-05 0.0000000000000000e+00  -6.3738146734672344e-06 -3.3968624552852304e-05 0.0000000000000000e+00  -1.0112973040586818e-05 -4.2580238482900632e-05 0.0000000000000000e+00  -7.8442177133173288e-07 -1.7065102979094405e-05 0.0000000000000000e+00  -4.7953348955775356e-06 -2.9880125977152330e-05 0.0000000000000000e+00  -1.6756518652623685e-06 -2.0257604005381005e-05 0.0000000000000000e+00  -3.3985884983500088e-06 -2.6094794700679416e-05 0.0000000000000000e+00  -2.4622445682608749e-06 -2.3008065001009855e-05 0.0000000000000000e+00  7.3654490697586519e-07 -8.9876630806267936e-06 0.0000000000000000e+00  -2.2297477594770515e-05 -6.4758629709427715e-05 0.0000000000000000e+00  6.3653614386250103e-07 -2.2554881669965375e-06 0.0000000000000000e+00  -2.7214550461294186e-05 -6.9658564677915988e-05 0.0000000000000000e+00  -6.9669912099037466e-07 1.7485509770537004e-06 0.0000000000000000e+00  -1.6791013836953815e-05 -5.2985145498336762e-05 0.0000000000000000e+00  -1.9457884800205739e-05 -5.7702466401940842e-05 0.0000000000000000e+00  3.3194549057747774e-07 -2.8172484220669414e-06 0.0000000000000000e+00  1.2780379685928616e-06 -5.7086746020159590e-06 0.0000000000000000e+00  -9.9543102660935619e-06 -3.9301919936659593e-05 0.0000000000000000e+00  -1.4318853563253358e-05 -4.8333959833814967e-05 0.0000000000000000e+00  7.7616931864721889e-07 -1.3800791661443602e-05 0.0000000000000000e+00  -8.0591566144791168e-06 -3.4957934520151799e-05 0.0000000000000000e+00  1.3651333248743447e-06 -7.6218298498176890e-06 0.0000000000000000e+00  2.0402741333434759e-07 -1.6779510059820538e-05 0.0000000000000000e+00  -6.3544890985800634e-06 -3.0755639227817494e-05 0.0000000000000000e+00  -1.2040667318278994e-05 -4.3766808868270521e-05 0.0000000000000000e+00  -4.0659178127466091e-07 -2.0278488039889851e-05 0.0000000000000000e+00  -4.8385095137975396e-06 -2.6716014416102914e-05 0.0000000000000000e+00  -1.1797576726003946e-06 -1.2160321915375829e-06 0.0000000000000000e+00  -1.1963459362356226e-06 1.0618563418865139e-06 0.0000000000000000e+00  -2.8360383367901927e-05 -7.5492261647933410e-05 0.