<?xml version="1.0"?>
<VTKFile type="UnstructuredGrid"  version="0.1"  >
<UnstructuredGrid>
<Piece  NumberOfPoints="1419" NumberOfCells="2698">
<Points>
<DataArray  type="Float64"  NumberOfComponents="3"  format="ascii">0 0 0  0 0.41 0  2.5 0 0  2.5 0.41 0  0.6 0.19 0  0.6 0.21 0  0.25 0.2 0  0.15 0.2 0  0.2489897948556636 0.21 0  0.2489897948556636 0.19 0  0.6 0.2 0  0 0.3807142857143437 0  0 0.3514285714286952 0  0 0.3221428571430699 0  0 0.29285714285744 0  0 0.2635714285718054 0  0 0.2342857142861561 0  0 0.2050000000005308 0  0 0.175714285714732 0  0 0.1464285714289574 0  0 0.1171428571431897 0  0 0.08785714285737878 0  0 0.05857142857161107 0  0 0.02928571428580012 0  0.03015443760436003 0 0  0.06140001986583606 0 0  0.09377624077125973 0 0  0.1273239957535082 0 0  0.1620856860351972 0 0  0.1981052433264291 0 0  0.235428184091502 0 0  0.2741016576309132 0 0  0.3141745521465447 0 0  0.3556974926295285 0 0  0.3987229542472677 0 0  0.4433053055141081 0 0  0.4895008759286886 0 0  0.5373680609405097 0 0  0.5869673343216626 0 0  0.6383613676634521 0 0  0.6916151138468254 0 0  0.7467958595648856 0 0  0.8039733463919316 0 0  0.8632198139502143 0 0  0.9246101326867038 0 0  0.9882218810934433 0 0  1.054135445558498 0 0  1.122434100542598 0 0  1.193204177141305 0 0  1.266535089879536 0 0  1.342519516046404 0 0  1.421253448503939 0 0  1.502836389106271 0 0  1.587371439758838 0 0  1.674965418777374 0 0  1.765729001825544 0 0  1.859776908880082 0 0  1.957227977487062 0 0  2.058205329869943 0 0  2.162836591189951 0 0  2.271253957290865 0 0  2.383594446803425 0 0  2.5 0.1024999999997612 0  2.5 0.2049999999994743 0  2.5 0.3074999999997183 0  2.383594446803656 0.41 0  2.271253957291315 0.41 0  2.162836591190598 0.41 0  2.058205329870775 0.41 0  1.957227977488067 0.41 0  1.859776908881246 0.41 0  1.765729001826854 0.41 0  1.674965418778818 0.41 0  1.58737143976041 0.41 0  1.502836389107956 0.41 0  1.421253448505726 0.41 0  1.342519516048286 0.41 0  1.266535089881505 0.41 0  1.193204177143353 0.41 0  1.122434100544716 0.41 0  1.05413544556068 0.41 0  0.9882218810956305 0.41 0  0.9246101326886647 0.41 0  0.8632198139519631 0.41 0  0.8039733463934788 0.41 0  0.7467958595662458 0.41 0  0.6916151138480078 0.41 0  0.6383613676644679 0.41 0  0.5869673343225223 0.41 0  0.5373680609412221 0.41 0  0.4895008759292634 0.41 0  0.4433053055145528 0.41 0  0.3987229542475914 0.41 0  0.3556974926297398 0.41 0  0.3141745521466497 0.41 0  0.2741016576310038 0.41 0  0.2354281840915826 0.41 0  0.1981052433265003 0.41 0  0.1620856860352591 0.41 0  0.1273239957535623 0.41 0  0.09377624077128965 0.41 0  0.06140001986584975 0.41 0  0.03015443760436654 0.41 0  0.2497468076502589 0.2050254481002335 0  0.2497468076502614 0.1949745518997913 0  0.2469965252529372 0.1829317073451959 0  0.2439893735792749 0.1762316384219906 0  0.2400332147834255 0.1700443375285386 0  0.2352133972704371 0.1645032867342007 0  0.2296339016332438 0.1597280261969788 0  0.2234150974217223 0.1558215752574715 0  0.2166911463437691 0.1528682099456123 0  0.2096071079204251 0.1509316448471593 0  0.2023158100364996 0.1500536585536553 0  0.194974551899914 0.1502531923497262 0  0.1877417105387872 0.1515259415822739 0  0.1807733240461124 0.153844448527136 0  0.1742197252835808 0.15715869474974 0  0.1682222986673531 0.1613971801805478 0  0.162910430003803 0.1664684656256651 0  0.1583987151779087 0.1722631454351573 0  0.1547844879126891 0.178656207771761 0  0.1521457199348551 0.1855097315605723 0  0.1505393388476355 0.1926758619366523 0  0.1505393388476328 0.2073241380633295 0  0.1521457199348437 0.2144902684393899 0  0.1547844879126531 0.221343792228163 0  0.1583987151778488 0.2277368545647528 0  0.1629104300036858 0.2335315343742052 0  0.1682222986671726 0.2386028198193036 0  0.1742197252833576 0.2428413052501257 0  0.1807733240458683 0.2461555514727623 0  0.1877417105384929 0.2484740584176516 0  0.1949745518995776 0.2497468076502398 0  0.202315810036185 0.2499463414463592 0  0.2096071079201568 0.2490683551528932 0  0.2166911463435495 0.2471317900544655 0  0.2234150974215506 0.2441784247426195 0  0.2296339016331197 0.2402719738031125 0  0.2352133972703547 0.2354967132658811 0  0.2400332147833751 0.2299556624715287 0  0.2439893735792577 0.2237683615780412 0  0.246996525252926 0.2170682926548348 0  0.25645809709277 0.21 0  0.2639263993298655 0.21 0  0.271394701566961 0.21 0  0.2788630038040554 0.21 0  0.2863313060411479 0.21 0  0.2937996082782405 0.21 0  0.301267910515333 0.21 0  0.3087362127524279 0.21 0  0.3162045149895234 0.21 0  0.3236728172265972 0.21 0  0.3311411194636928 0.21 0  0.3386094217007701 0.21 0  0.3460777239378666 0.21 0  0.3535460261749672 0.21 0  0.3610143284120516 0.21 0  0.3684826306491596 0.21 0  0.3759509328862226 0.21 0  0.383419235123329 0.21 0  0.3908875373604028 0.21 0  0.3983558395975142 0.21 0  0.4058241418345938 0.21 0  0.4132924440716992 0.21 0  0.4207607463087888 0.21 0  0.4282290485459029 0.21 0  0.4356973507830418 0.21 0  0.4431656530201649 0.21 0  0.4506339552573136 0.21 0  0.4581022574944306 0.21 0  0.4655705597315852 0.21 0  0.4730388619686996 0.21 0  0.480507164205851 0.21 0  0.4879754664429498 0.21 0  0.4954437686800938 0.21 0  0.502912070917267 0.21 0  0.5103803731544119 0.21 0  0.5178486753915261 0.21 0  0.5253169776286404 0.21 0  0.5327852798657868 0.21 0  0.5402535821029386 0.21 0  0.54772188434007 0.21 0  0.5551901865771842 0.21 0  0.5626584888143201 0.21 0  0.5701267910514778 0.21 0  0.5775950932886138 0.21 0  0.5850633955257281 0.21 0  0.5925316977628483 0.21 0  0.6 0.2050000000000054 0  0.6 0.1950000000000217 0  0.5925316977628897 0.19 0  0.5850633955257988 0.19 0  0.5775950932887378 0.19 0  0.5701267910515998 0.19 0  0.5626584888145268 0.19 0  0.5551901865773963 0.19 0  0.547721884340339 0.19 0  0.5402535821032429 0.19 0  0.5327852798661811 0.19 0  0.5253169776290537 0.19 0  0.5178486753919799 0.19 0  0.5103803731549078 0.19 0  0.502912070917822 0.19 0  0.4954437686807294 0.19 0  0.4879754664436223 0.19 0  0.4805071642065402 0.19 0  0.4730388619694271 0.19 0  0.4655705597323621 0.19 0  0.4581022574952563 0.19 0  0.4506339552581777 0.19 0  0.4431656530210671 0.19 0  0.4356973507839815 0.19 0  0.4282290485468779 0.19 0  0.4207607463097617 0.19 0  0.4132924440726327 0.19 0  0.4058241418354857 0.19 0  0.3983558395983636 0.19 0  0.3908875373612097 0.19 0  0.3834192351240934 0.19 0  0.3759509328869369 0.19 0  0.3684826306498175 0.19 0  0.361014328412667 0.19 0  0.3535460261755617 0.19 0  0.3460777239384295 0.19 0  0.3386094217012945 0.19 0  0.3311411194641595 0.19 0  0.3236728172270245 0.19 0  0.3162045149898895 0.19 0  0.3087362127527544 0.19 0  0.3012679105156187 0.19 0  0.2937996082784807 0.19 0  0.2863313060413428 0.19 0  0.2788630038042048 0.19 0  0.2713947015670686 0.19 0  0.2639263993299336 0.19 0  0.2564580970927985 0.19 0  0.2607803159922026 0.2000727136295815 0  0.5887803774232762 0.2001272386983733 0  0.5745072403740523 0.2002044435018727 0  0.5511891430099709 0.2001122610077113 0  0.2751288526855082 0.20000000000002 0  0.5365194309847112 0.1999999999999436 0  0.2894621222999649 0.1998691686390484 0  0.5215828265105155 0.1999999999999228 0  0.3127789816668748 0.1998657885438805 0  0.3274069683451451 0.2000000000000796 0  0.5066462220363641 0.199999999999908 0  0.3650630746574081 0.199866017807523 0  0.476773013087985 0.1999999999998713 0  0.3417402379596385 0.1998691686391011 0  0.3796850840047755 0.200000000000134 0  0.4618364086138087 0.1999999999998546 0  0.4917096175621762 0.1999999999998808 0  0.3946216884789568 0.2000000000001512 0  0.446899804139621 0.1999999999998389 0  0.4089549580935208 0.1998691686391595 0  0.4322718174608562 0.200127451265745 0  0.4201487168029707 0.1999966199048527 0  0.3528922713220932 0.2000185703532356 0  0.5633122436674589 0.1999814296467508 0  0.3006558810093873 0.1999966199048318 0  0.5815926498168407 0.1966545283159175 0  0.2677053789419034 0.1964246479135325 0  0.5290511287476175 0.1970915826863981 0  0.5439877332217911 0.197091582686394 0  0.2825131256993216 0.2035478995978015 0  0.3199386661080599 0.202908417313604 0  0.4842413153250809 0.1970915826863873 0  0.5141145242734466 0.1970915826863843 0  0.3722167817676917 0.2029084173136195 0  0.4693047108508938 0.1970915826863783 0  0.3348752705822316 0.202908417313609 0  0.3871533862418661 0.2029084173136212 0  0.4543681063767183 0.1970915826863795 0  0.4991779197992749 0.1970915826863902 0  0.4020059614928624 0.203547899597858 0  0.4394315019025246 0.1970915826863714 0  0.2550657455369551 0.2034088125358657 0  0.2548908499171161 0.1966940311614271 0  0.5946539510196798 0.2024302972968126 0  0.267698176732111 0.2039977513680092 0  0.4261685417851465 0.196409292431739 0  0.3590076176283495 0.196411355804271 0  0.5571672426447437 0.2036011176410121 0  0.3066757059912147 0.1964092924317024 0  0.594380730180568 0.1966558399668133 0  0.4842413153245942 0.2040749161535287 0  0.4693047108503577 0.2040749161535231 0  0.3871533862424271 0.1959250838464788 0  0.372246743208829 0.1959123236376545 0  0.5141145242731028 0.2040749161535395 0  0.4543681063761134 0.2040749161535186 0  0.4019979587101454 0.1959834479682427 0  0.4394608940728603 0.2040870543693135 0  0.5439623148931173 0.2040856076781014 0  0.5290511287473298 0.2040749161535501 0  0.4991779197988497 0.2040749161535382 0  0.3347912413592433 0.1959225448935183 0  0.3199680582793816 0.1959123018030061 0  0.2825051229162361 0.1959834479681729 0  0.3590471196690275 0.2036304442587945 0  0.5571594006495384 0.1963685282145804 0  0.3067669986803285 0.203627750582736 0  0.4262598344738712 0.2036568242185335 0  0.5814408164431408 0.2041285596160068 0  0.5688286748170428 0.1961819304477386 0  0.4145905603063645 0.2038180695522843 0  0.3473758401724931 0.2038180695522752 0  0.2950977245128307 0.2038180695522663 0  0.5688286748170693 0.203818069552238 0  0.2950977245127906 0.1961819304477774 0  0.3473758401723931 0.1961819304478349 0  0.4145905603061963 0.1961819304479011 0  0.2601812407614425 0.2056861609747042
[...]
<PointData  Vectors="f_40-0"> 
<DataArray  type="Float64"  Name="f_40-0"  NumberOfComponents="3" format="ascii">0.0000000000000000e+00 0.0000000000000000e+00 0.0000000000000000e+00  0.0000000000000000e+00 0.0000000000000000e+00 0.0000000000000000e+00  0.0000000000000000e+00 0.0000000000000000e+00 0.0000000000000000e+00  0.0000000000000000e+00 0.0000000000000000e+00 0.0000000000000000e+00  -9.0603347301702953e-05 7.1192590513447765e-04 0.0000000000000000e+00  -7.3687442041813649e-05 7.1201142796352705e-04 0.0000000000000000e+00  0.0000000000000000e+00 0.0000000000000000e+00 0.0000000000000000e+00  0.0000000000000000e+00 0.0000000000000000e+00 0.0000000000000000e+00  0.0000000000000000e+00 0.0000000000000000e+00 0.0000000000000000e+00  0.0000000000000000e+00 0.0000000000000000e+00 0.0000000000000000e+00  -8.2401616876569858e-05 7.1200942315289520e-04 0.0000000000000000e+00  4.4802274453086915e-01 0.0000000000000000e+00 0.0000000000000000e+00  8.2711891298012108e-01 0.0000000000000000e+00 0.0000000000000000e+00  1.1372885053476667e+00 0.0000000000000000e+00 0.0000000000000000e+00  1.3785315216338647e+00 0.0000000000000000e+00 0.0000000000000000e+00  1.5508479618386850e+00 0.0000000000000000e+00 0.0000000000000000e+00  1.6542378259621160e+00 0.0000000000000000e+00 0.0000000000000000e+00  1.6887011140040549e+00 0.0000000000000000e+00 0.0000000000000000e+00  1.6542378259642063e+00 0.0000000000000000e+00 0.0000000000000000e+00  1.5508479618422752e+00 0.0000000000000000e+00 0.0000000000000000e+00  1.3785315216383114e+00 0.0000000000000000e+00 0.0000000000000000e+00  1.1372885053518909e+00 0.0000000000000000e+00 0.0000000000000000e+00  8.2711891298372575e-01 0.0000000000000000e+00 0.0000000000000000e+00  4.4802274453290025e-01 0.0000000000000000e+00 0.0000000000000000e+00  0.0000000000000000e+00 0.0000000000000000e+00 0.0000000000000000e+00  0.0000000000000000e+00 0.0000000000000000e+00 0.0000000000000000e+00  0.0000000000000000e+00 0.0000000000000000e+00 0.0000000000000000e+00  0.0000000000000000e+00 0.0000000000000000e+00 0.0000000000000000e+00  0.0000000000000000e+00 0.0000000000000000e+00 0.0000000000000000e+00  0.0000000000000000e+00 0.0000000000000000e+00 0.0000000000000000e+00  0.0000000000000000e+00 0.0000000000000000e+00 0.0000000000000000e+00  0.0000000000000000e+00 0.0000000000000000e+00 0.0000000000000000e+00  0.0000000000000000e+00 0.0000000000000000e+00 0.0000000000000000e+00  0.0000000000000000e+00 0.0000000000000000e+00 0.0000000000000000e+00  0.0000000000000000e+00 0.0000000000000000e+00 0.0000000000000000e+00  0.0000000000000000e+00 0.0000000000000000e+00 0.0000000000000000e+00  0.0000000000000000e+00 0.0000000000000000e+00 0.0000000000000000e+00  0.0000000000000000e+00 0.0000000000000000e+00 0.0000000000000000e+00  0.0000000000000000e+00 0.0000000000000000e+00 0.0000000000000000e+00  0.0000000000000000e+00 0.0000000000000000e+00 0.0000000000000000e+00  0.0000000000000000e+00 0.0000000000000000e+00 0.0000000000000000e+00  0.0000000000000000e+00 0.0000000000000000e+00 0.0000000000000000e+00  0.0000000000000000e+00 0.0000000000000000e+00 0.0000000000000000e+00  0.0000000000000000e+00 0.0000000000000000e+00 0.0000000000000000e+00  0.0000000000000000e+00 0.0000000000000000e+00 0.0000000000000000e+00  0.0000000000000000e+00 0.0000000000000000e+00 0.0000000000000000e+00  0.0000000000000000e+00 0.0000000000000000e+00 0.0000000000000000e+00  0.0000000000000000e+00 0.0000000000000000e+00 0.0000000000000000e+00  0.0000000000000000e+00 0.0000000000000000e+00 0.0000000000000000e+00  0.0000000000000000e+00 0.0000000000000000e+00 0.0000000000000000e+00  0.0000000000000000e+00 0.0000000000000000e+00 0.0000000000000000e+00  0.0000000000000000e+00 0.0000000000000000e+00 0.0000000000000000e+00  0.0000000000000000e+00 0.0000000000000000e+00 0.0000000000000000e+00  0.0000000000000000e+00 0.0000000000000000e+00 0.0000000000000000e+00  0.0000000000000000e+00 0.0000000000000000e+00 0.0000000000000000e+00  0.0000000000000000e+00 0.0000000000000000e+00 0.0000000000000000e+00  0.0000000000000000e+00 0.0000000000000000e+00 0.0000000000000000e+00  0.0000000000000000e+00 0.0000000000000000e+00 0.0000000000000000e+00  0.0000000000000000e+00 0.0000000000000000e+00 0.0000000000000000e+00  0.0000000000000000e+00 0.0000000000000000e+00 0.0000000000000000e+00  0.0000000000000000e+00 0.0000000000000000e+00 0.0000000000000000e+00  0.0000000000000000e+00 0.0000000000000000e+00 0.0000000000000000e+00  1.5372012090899811e+00 -3.5087869547595268e-02 0.0000000000000000e+00  1.2174599412400346e+00 1.3037329621770805e-02 0.0000000000000000e+00  1.5195273589265876e+00 5.5010646760158391e-02 0.0000000000000000e+00  0.0000000000000000e+00 0.0000000000000000e+00 0.0000000000000000e+00  0.0000000000000000e+00 0.0000000000000000e+00 0.0000000000000000e+00  0.0000000000000000e+00 0.0000000000000000e+00 0.0000000000000000e+00  0.0000000000000000e+00 0.0000000000000000e+00 0.0000000000000000e+00  0.0000000000000000e+00 0.0000000000000000e+00 0.0000000000000000e+00  0.0000000000000000e+00 0.0000000000000000e+00 0.0000000000000000e+00  0.0000000000000000e+00 0.0000000000000000e+00 0.0000000000000000e+00  0.0000000000000000e+00 0.0000000000000000e+00 0.0000000000000000e+00  0.0000000000000000e+00 0.0000000000000000e+00 0.0000000000000000e+00  0.0000000000000000e+00 0.0000000000000000e+00 0.0000000000000000e+00  0.0000000000000000e+00 0.0000000000000000e+00 0.0000000000000000e+00  0.0000000000000000e+00 0.0000000000000000e+00 0.0000000000000000e+00  0.0000000000000000e+00 0.0000000000000000e+00 0.0000000000000000e+00  0.0000000000000000e+00 0.0000000000000000e+00 0.0000000000000000e+00  0.0000000000000000e+00 0.0000000000000000e+00 0.0000000000000000e+00  0.0000000000000000e+00 0.0000000000000000e+00 0.0000000000000000e+00  0.0000000000000000e+00 0.0000000000000000e+00 0.0000000000000000e+00  0.0000000000000000e+00 0.0000000000000000e+00 0.0000000000000000e+00  0.0000000000000000e+00 0.0000000000000000e+00 0.0000000000000000e+00  0.0000000000000000e+00 0.0000000000000000e+00 0.0000000000000000e+00  0.0000000000000000e+00 0.0000000000000000e+00 0.0000000000000000e+00  0.0000000000000000e+00 0.0000000000000000e+00 0.0000000000000000e+00  0.0000000000000000e+00 0.0000000000000000e+00 0.0000000000000000e+00  0.0000000000000000e+00 0.0000000000000000e+00 0.0000000000000000e+00  0.0000000000000000e+00 0.0000000000000000e+00 0.0000000000000000e+00  0.0000000000000000e+00 0.0000000000000000e+00 0.0000000000000000e+00  0.0000000000000000e+00 0.0000000000000000e+00 0.0000000000000000e+00  0.0000000000000000e+00 0.0000000000000000e+00 0.0000000000000000e+00  0.0000000000000000e+00 0.0000000000000000e+00 0.0000000000000000e+00  0.0000000000000000e+00 0.0000000000000000e+00 0.0000000000000000e+00  0.0000000000000000e+00 0.0000000000000000e+00 0.0000000000000000e+00  0.0000000000000000e+00 0.0000000000000000e+00 0.0000000000000000e+00  0.0000000000000000e+00 0.0000000000000000e+00 0.0000000000000000e+00  0.0000000000000000e+00 0.0000000000000000e+00 0.0000000000000000e+00  0.0000000000000000e+00 0.0000000000000000e+00 0.0000000000000000e+00  0.0000000000000000e+00 0.0000000000000000e+00 0.0000000000000000e+00  0.0000000000000000e+00 0.0000000000000000e+00 0.0000000000000000e+00  0.0000000000000000e+00 0.0000000000000000e+00 0.0000000000000000e+00  0.0000000000000000e+00 0.0000000000000000e+00 0.0000000000000000e+00  0.0000000000000000e+00 0.0000000000000000e+00 0.0000000000000000e+00  0.0000000000000000e+00 0.0000000000000000e+00 0.0000000000000000e+00  0.0000000000000000e+00 0.0000000000000000e+00 0.0000000000000000e+00  0.0000000000000000e+00 0.0000000000000000e+00 0.0000000000000000e+00  0.0000000000000000e+00 0.0000000000000000e+00 0.0000000000000000e+00  0.0000000000000000e+00 0.0000000000000000e+00 0.0000000000000000e+00  0.0000000000000000e+00 0.0000000000000000e+00 0.0000000000000000e+00  0.0000000000000000e+00 0.0000000000000000e+00 0.0000000000000000e+00  0.0000000000000000e+00 0.0000000000000000e+00 0.0000000000000000e+00  0.0000000000000000e+00 0.0000000000000000e+00 0.0000000000000000e+00  0.0000000000000000e+00 0.0000000000000000e+00 0.0000000000000000e+00  0.0000000000000000e+00 0.0000000000000000e+00 0.0000000000000000e+00  0.0000000000000000e+00 0.0000000000000000e+00 0.0000000000000000e+00  0.0000000000000000e+00 0.0000000000000000e+00 0.0000000000000000e+00  0.0000000000000000e+00 0.0000000000000000e+00 0.0000000000000000e+00  0.0000000000000000e+00 0.0000000000000000e+00 0.0000000000000000e+00  0.0000000000000000e+00 0.0000000000000000e+00 0.0000000000000000e+00  0.0000000000000000e+00 0.0000000000000000e+00 0.0000000000000000e+00  0.0000000000000000e+00 0.0000000000000000e+00 0.0000000000000000e+00  0.0000000000000000e+00 0.0000000000000000e+00 0.0000000000000000e+00  0.0000000000000000e+00 0.0000000000000000e+00 0.0000000000000000e+00  0.0000000000000000e+00 0.0000000000000000e+00 0.0000000000000000e+00  0.0000000000000000e+00 0.0000000000000000e+00 0.0000000000000000e+00  0.0000000000000000e+00 0.0000000000000000e+00 0.0000000000000000e+00  0.0000000000000000e+00 0.0000000000000000e+00 0.0000000000000000e+00  0.0000000000000000e+00 0.0000000000000000e+00 0.0000000000000000e+00  0.0000000000000000e+00 0.0000000000000000e+00 0.0000000000000000e+00  0.0000000000000000e+00 0.0000000000000000e+00 0.0000000000000000e+00  0.0000000000000000e+00 0.0000000000000000e+00 0.0000000000000000e+00  0.0000000000000000e+00 0.0000000000000000e+00 0.0000000000000000e+00  0.0000000000000000e+00 0.0000000000000000e+00 0.0000000000000000e+00  0.0000000000000000e+00 0.0000000000000000e+00 0.0000000000000000e+00  0.0000000000000000e+00 0.0000000000000000e+00 0.0000000000000000e+00  0.0000000000000000e+00 0.0000000000000000e+00 0.0000000000000000e+00  0.0000000000000000e+00 0.0000000000000000e+00 0.0000000000000000e+00  0.0000000000000000e+00 0.0000000000000000e+00 0.0000000000000000e+00  0.0000000000000000e+00 0.0000000000000000e+00 0.0000000000000000e+00  0.0000000000000000e+00 0.0000000000000000e+00 0.0000000000000000e+00  0.0000000000000000e+00 0.0000000000000000e+00 0.0000000000000000e+00  -1.0255691638787093e-05 1.1339386306350997e-05 0.0000000000000000e+00  -2.1140571774963894e-05 2.1563669407241295e-05 0.0000000000000000e+00  -3.0724682766027437e-05 3.6596726822862224e-05 0.0000000000000000e+00  -4.0312667321578546e-05 5.6739174504631922e-05 0.0000000000000000e+00  -4.8335023129116065e-05 8.0485671605758487e-05 0.0000000000000000e+00  -5.6318283568512447e-05 1.0805440417693582e-04 0.0000000000000000e+00  -6.2878205420165080e-05 1.3796501224083184e-04 0.0000000000000000e+00  -6.8799626275878247e-05 1.7058540544284987e-04 0.0000000000000000e+00  -7.4566434808849669e-05 2.0490157660616034e-04 0.0000000000000000e+00  -7.9166869813495489e-05 2.4047936104369005e-04 0.0000000000000000e+00  -8.3482743850114843e-05 2.7712030305670105e-04 0.0000000000000000e+00  -8.7004236463623336e-05 3.1406325262055366e-04 0.0000000000000000e+00  -8.9973332909417089e-05 3.5113171324497146e-04 0.0000000000000000e+00  -9.2522821772362878e-05 3.8789987718913874e-04 0.0000000000000000e+00  -9.4592781432655120e-05 4.2393963586469837e-04 0.0000000000000000e+00  -9.6012402902008958e-05 4.5914417468080062e-04 0.0000000000000000e+00  -9.7332784933593528e-05 4.9302251214186296e-04 0.0000000000000000e+00  -9.7793823933013861e-05 5.2555366980339873e-04 0.0000000000000000e+00  -9.8453798723875099e-05 5.5623514104696792e-04 0.0000000000000000e+00  -9.8241170262246518e-05 5.8528510554175541e-04 0.0000000000000000e+00  -9.8232478735023823e-05 6.1212384057267755e-04 0.0000000000000000e+00  -9.7443795728259511e-05 6.3685053931387850e-04 0.0000000000000000e+00  -9.7042779313012475e-05 6.5972794700227958e-04 0.0000000000000000e+00  -9.6401036184241625e-05 6.8003766906430047e-04 0.0000000000000000e+00  -9.5151027814451965e-05 6.9852151121366343e-04 0.0000000000000000e+00  -9.4134298306619753e-05 7.1449721050938577e-04 0.0000000000000000e+00  -9.2808508421101033e-05 7.2843890898614556e-04 0.0000000000000000e+00  -9.1614457293634350e-05 7.4018049035451947e-04 0.0000000000000000e+00  -9.0176105268841887e-05 7.4993322749279429e-04 0.0000000000000000e+00  -8.8900394224912080e-05 7.5768870161794849e-04 0.0000000000000000e+00  -8.7435692383806490e-05 7.6361603810886074e-04 0.0000000000000000e+00  -8.6148351001996893e-05 7.6777596649632183e-04 0.0000000000000000e+00  -8.4735992994233682e-05 7.7032904030581494e-04 0.0000000000000000e+00  -8.3494919171721345e-05 7.7137216794034716e-04 0.0000000000000000e+00  -8.2175653670793727e-05 7.7107971013251728e-04 0.0000000000000000e+00  -8.1048048478927741e-05 7.6958433928754914e-04 0.0000000000000000e+00  -7.9891341964054754e-05 7.6701636324242423e-04 0.0000000000000000e+00  -7.8916694877984988e-05 7.6354928845096426e-04 0.0000000000000000e+00  -7.7944504030718825e-05 7.5928618865930548e-04 0.0000000000000000e+00  -7.7144951166361079e-05 7.5442804463648290e-04 0.0000000000000000e+00  -7.6358986056708239e-05 7.4899320059154282e-04 0.0000000000000000e+00  -7.5766969998025877e-05 7.4326817524001981e-04 0.0000000000000000e+00  -7.5250695304727029e-05 7.3722335078585659e-04 0.0000000000000000e+00  -7.4754188340920004e-05 7.3105103462338655e-04 0.0000000000000000e+00  -7.4384937116694558e-05 7.2478431466176986e-04 0.0000000000000000e+00  -7.4042166419747307e-05 7.1845441569649826e-04 0.0000000000000000e+00  -7.8139962235630143e-05 7.1202412039157942e-04 0.0000000000000000e+00  -8.6564165625848221e-05 7.1197166313266948e-04 0.0000000000000000e+00  -9.0846307855510416e-05 7.1816601902591974e-04 0.0000000000000000e+00  -9.0997359832163018e-05 7.2447082202802113e-04 0.0000000000000000e+00  -9.1082226711897702e-05 7.3070376912705997e-04 0.0000000000000000e+00  -9.1015417318981193e-05 7.3679829072280053e-04 0.0000000000000000e+00  -9.0883226644391369e-05 7.4272086079786744e-04 0.0000000000000000e+00  -9.0567744615176866e-05 7.4829200523193675e-04 0.0000000000000000e+00  -8.9971186540765537e-05 7.5350960256000284e-04 0.0000000000000000e+00  -8.9293647466803073e-05 7.5814147734560168e-04 0.0000000000000000e+00  -8.8149403833675144e-05 7.6218406247687779e-04 0.0000000000000000e+00  -8.7006677688252493e-05 7.6532235892056214e-04 0.0000000000000000e+00  -8.5267349179075366e-05 7.6762427878783728e-04 0.0000000000000000e+00  -8.3586930120112436e-05 7.6872624297781914e-04 0.0000000000000000e+00  -8.1186602730983713e-05 7.6872881125019386e-04 0.0000000000000000e+00  -7.8938213725734439e-05 7.6723956474278776e-04 0.0000000000000000e+00  -7.5876438857296481e-05 7.6437315281860331e-04 0.0000000000000000e+00  -7.3062955904661605e-05 7.5974751761543225e-04 0.0000000000000000e+00  -6.9360129810477891e-05 7.5349467539731734e-04 0.0000000000000000e+00  -6.6003223786459102e-05 7.4525261495343503e-04 0.0000000000000000e+00  -6.1705937411618171e-05 7.3518282152334449e-04 0.0000000000000000e+00  -5.7858955578052539e-05 7.2295792306587025e-04 0.0000000000000000e+00  -5.3044164053889718e-05 7.0871948014983690e-04 0.0000000000000000e+00  -4.8764358401695314e-05 6.9219751392216391e-04 0.0000000000000000e+00  -4.3601831785726008e-05 6.7350961971781621e-04 0.0000000000000000e+00  -3.8906947182305228e-05 6.5278799959075289e-04 0.0000000000000000e+00  -3.4124701288992183e-05 6.2955946385084794e-04 0.0000000000000000e+00  -2.8822645585491546e-05 6.0459385678803153e-04 0.0000000000000000e+00  -2.3880264093903696e-05 5.7732700917271552e-04 0.0000000000000000e+00  -1.8750646230522160e-05 5.4817403949252493e-04 0.0000000000000000e+00  -1.3924087303183480e-05 5.1716773149559816e-04 0.0000000000000000e+00  -9.0976468617573089e-06 4.8448082087027873e-04 0.0000000000000000e+00  -4.6127670083403013e-06 4.5041698080745091e-04 0.0000000000000000e+00  -2.3646926885991162e-07 4.1500998677674542e-04 0.0000000000000000e+00  3.6512222692238489e-06 3.7884846795649971e-04 0.0000000000000000e+00  7.1999445327113481e-06 3.4198127528835986e-04 0.0000000000000000e+00  1.0466517880061454e-05 3.0481897382510632e-04 0.0000000000000000e+00  1.3212499710466208e-05 2.6780760171201469e-04 0.0000000000000000e+00  1.5413531253193634e-05 2.3110164365164608e-04 0.0000000000000000e+00  1.7164899299719762e-05 1.9542298331937303e-04 0.0000000000000000e+00  1.7951325376756911e-05 1.6116708885957151e-04 0.0000000000000000e+00  1.8622073781572481e-05 1.2850579593562129e-04 0.0000000000000000e+00  1.8707917829464309e-05 9.8588136240626892e-05 0.0000000000000000e+00  1.7486197511312618e-05 7.0911947687319921e-05 0.0000000000000000e+00  1.6037494378120397e-05 4.7011765392329480e-05 0.0000000000000000e+00  1.3018444053343314e-05 2.7023061706630831e-05 0.0000000000000000e+00  9.9962192797593560e-06 1.2085757660269664e-05 0.0000000000000000e+00  4.9803722812229309e-06 2.4632850352408464e-06 0.0000000000000000e+00  -3.5322960466004751e-06 8.0286696481124910e-06 0.0000000000000000e+00  -8.2572600729997913e-05 7.2154127048879111e-04 0.0000000000000000e+00  -8.2892863569766090e-05 7.3356798772697851e-04 0.0000000000000000e+00  -8.3466328277575686e-05 7.5188541446381590e-04 0.0000000000000000e+00  -1.0394292676272948e-05 3.8391196264033690e-05 0.0000000000000000e+00  -8.3565968099850017e-05 7.6135655258682735e-04 0.0000000000000000e+00  -1.6404905747257094e-05 8.4605238505816544e-05 0.0000000000000000e+00  -8.3273021586358068e-05 7.6816415956828892e-04 0.0000000000000000e+00  -2.6550745974791119e-05 1.8309817616114307e-04 0.0000000000000000e+00  -3.3475085082505786e-05 2.5355980059689373e-04 0.0000000000000000e+00  -8.2556231951507101e-05 7.7097374931456818e-04 0.0000000000000000e+00  -4.8315852306572704e-05 4.3936784846623338e-04 0.0000000000000000e+00  -7.9595591687588437e-05 7.6001921693237692e-04 0.0000000000000000e+00  -3.8898502003063751e-05 3.2497011012601318e-04 0.0000000000000000e+00  -5.4439672734726600e-05 5.0621040571352321e-04 0.0000000000000000e+00  -7.7268236745616918e-05 7.4417130890120373e-04 0.0000000000000000e+00  -8.1347362979269504e-05 7.6862778288474263e-04 0.0000000000000000e+00  -5.9709787232168160e-05 5.6818890200478972e-04 0.0000000000000000e+00  -7.4360333896337038e-05 7.2028299480882422e-04 0.0000000000000000e+00  -6.3943901031185719e-05 6.2037876660224727e-04 0.0000000000000000e+00  -7.1258895018033131e-05 6.8857982425152742e-04 0.0000000000000000e+00  -6.7625871022262241e-05 6.5547355677026873e-04 0.0000000000000000e+00  -4.4178233053705440e-05 3.8042010761700062e-04 0.0000000000000000e+00  -8.3347670096652835e-05 7.4263315854764683e-04 0.0000000000000000e+00  -2.1790031184131154e-05 1.2948217174878017e-04 0.0000000000000000e+00  -8.5611788346890132e-05 7.2754968966447123e-04 0.0000000000000000e+00  -2.5815519542272721e-07 1.9194771161439918e-05 0.0000000000000000e+00  -8.4634384630293832e-05 7.6488669834951048e-04 0.0000000000000000e+00  -8.5314690147885187e-05 7.5660337412470995e-04 0.0000000000000000e+00  -2.4400836857682730e-05 6.2667254108621990e-05 0.0000000000000000e+00  -4.3775681826271346e-05 2.1856123656128451e-04 0.0000000000000000e+00  -7.8731660335402720e-05 7.6449266946820762e-04 0.0000000000000000e+00  -8.3359471058959498e-05 7.6972312738969486e-04 0.0000000000000000e+00  -6.4679318269812843e-05 4.7389723115766634e-04 0.0000000000000000e+00  -7.5312787038459524e-05 7.5223920383793430e-04 0.0000000000000000e+00  -5.0717580971756085e-05 2.9207118008811188e-04 0.0000000000000000e+00  -6.9004251455470207e-05 5.3913737711692945e-04 0.0000000000000000e+00  -7.1158528634386223e-05 7.3233292282801109e-04 0.0000000000000000e+00  -8.1407019970878888e-05 7.6997249500637514e-04 0.0000000000000000e+00  -7.4960963273047659e-05 5.9722041271964793e-04 0.0000000000000000e+00  -6.6350346953448014e-05 7.0407117066036823e-04 0.0000000000000000e+00  -2.4295126748592321e-06 3.2028244179162089e-06 0.0000000000000000e+00  6.2235170899536029e-08 9.5806279619022488e-07 0.0000000000000000e+00  -8.0489289927862921e-05 7.1657944388747914e-04 0.0000000000000000e+00  -1.4401196435985096e-05 2.3012998837433898e-05 0.0000000000000000e+00  -5.9698453487367046e