<?xml version="1.0"?>
<VTKFile type="UnstructuredGrid"  version="0.1"  >
<UnstructuredGrid>
<Piece  NumberOfPoints="1419" NumberOfCells="2698">
<Points>
<DataArray  type="Float64"  NumberOfComponents="3"  format="ascii">0 0 0  0 0.41 0  2.5 0 0  2.5 0.41 0  0.6 0.19 0  0.6 0.21 0  0.25 0.2 0  0.15 0.2 0  0.2489897948556636 0.21 0  0.2489897948556636 0.19 0  0.6 0.2 0  0 0.3807142857143437 0  0 0.3514285714286952 0  0 0.3221428571430699 0  0 0.29285714285744 0  0 0.2635714285718054 0  0 0.2342857142861561 0  0 0.2050000000005308 0  0 0.175714285714732 0  0 0.1464285714289574 0  0 0.1171428571431897 0  0 0.08785714285737878 0  0 0.05857142857161107 0  0 0.02928571428580012 0  0.03015443760436003 0 0  0.06140001986583606 0 0  0.09377624077125973 0 0  0.1273239957535082 0 0  0.1620856860351972 0 0  0.1981052433264291 0 0  0.235428184091502 0 0  0.2741016576309132 0 0  0.3141745521465447 0 0  0.3556974926295285 0 0  0.3987229542472677 0 0  0.4433053055141081 0 0  0.4895008759286886 0 0  0.5373680609405097 0 0  0.5869673343216626 0 0  0.6383613676634521 0 0  0.6916151138468254 0 0  0.7467958595648856 0 0  0.8039733463919316 0 0  0.8632198139502143 0 0  0.9246101326867038 0 0  0.9882218810934433 0 0  1.054135445558498 0 0  1.122434100542598 0 0  1.193204177141305 0 0  1.266535089879536 0 0  1.342519516046404 0 0  1.421253448503939 0 0  1.502836389106271 0 0  1.587371439758838 0 0  1.674965418777374 0 0  1.765729001825544 0 0  1.859776908880082 0 0  1.957227977487062 0 0  2.058205329869943 0 0  2.162836591189951 0 0  2.271253957290865 0 0  2.383594446803425 0 0  2.5 0.1024999999997612 0  2.5 0.2049999999994743 0  2.5 0.3074999999997183 0  2.383594446803656 0.41 0  2.271253957291315 0.41 0  2.162836591190598 0.41 0  2.058205329870775 0.41 0  1.957227977488067 0.41 0  1.859776908881246 0.41 0  1.765729001826854 0.41 0  1.674965418778818 0.41 0  1.58737143976041 0.41 0  1.502836389107956 0.41 0  1.421253448505726 0.41 0  1.342519516048286 0.41 0  1.266535089881505 0.41 0  1.193204177143353 0.41 0  1.122434100544716 0.41 0  1.05413544556068 0.41 0  0.9882218810956305 0.41 0  0.9246101326886647 0.41 0  0.8632198139519631 0.41 0  0.8039733463934788 0.41 0  0.7467958595662458 0.41 0  0.6916151138480078 0.41 0  0.6383613676644679 0.41 0  0.5869673343225223 0.41 0  0.5373680609412221 0.41 0  0.4895008759292634 0.41 0  0.4433053055145528 0.41 0  0.3987229542475914 0.41 0  0.3556974926297398 0.41 0  0.3141745521466497 0.41 0  0.2741016576310038 0.41 0  0.2354281840915826 0.41 0  0.1981052433265003 0.41 0  0.1620856860352591 0.41 0  0.1273239957535623 0.41 0  0.09377624077128965 0.41 0  0.06140001986584975 0.41 0  0.03015443760436654 0.41 0  0.2497468076502589 0.2050254481002335 0  0.2497468076502614 0.1949745518997913 0  0.2469965252529372 0.1829317073451959 0  0.2439893735792749 0.1762316384219906 0  0.2400332147834255 0.1700443375285386 0  0.2352133972704371 0.1645032867342007 0  0.2296339016332438 0.1597280261969788 0  0.2234150974217223 0.1558215752574715 0  0.2166911463437691 0.1528682099456123 0  0.2096071079204251 0.1509316448471593 0  0.2023158100364996 0.1500536585536553 0  0.194974551899914 0.1502531923497262 0  0.1877417105387872 0.1515259415822739 0  0.1807733240461124 0.153844448527136 0  0.1742197252835808 0.15715869474974 0  0.1682222986673531 0.1613971801805478 0  0.162910430003803 0.1664684656256651 0  0.1583987151779087 0.1722631454351573 0  0.1547844879126891 0.178656207771761 0  0.1521457199348551 0.1855097315605723 0  0.1505393388476355 0.1926758619366523 0  0.1505393388476328 0.2073241380633295 0  0.1521457199348437 0.2144902684393899 0  0.1547844879126531 0.221343792228163 0  0.1583987151778488 0.2277368545647528 0  0.1629104300036858 0.2335315343742052 0  0.1682222986671726 0.2386028198193036 0  0.1742197252833576 0.2428413052501257 0  0.1807733240458683 0.2461555514727623 0  0.1877417105384929 0.2484740584176516 0  0.1949745518995776 0.2497468076502398 0  0.202315810036185 0.2499463414463592 0  0.2096071079201568 0.2490683551528932 0  0.2166911463435495 0.2471317900544655 0  0.2234150974215506 0.2441784247426195 0  0.2296339016331197 0.2402719738031125 0  0.2352133972703547 0.2354967132658811 0  0.2400332147833751 0.2299556624715287 0  0.2439893735792577 0.2237683615780412 0  0.246996525252926 0.2170682926548348 0  0.25645809709277 0.21 0  0.2639263993298655 0.21 0  0.271394701566961 0.21 0  0.2788630038040554 0.21 0  0.2863313060411479 0.21 0  0.2937996082782405 0.21 0  0.301267910515333 0.21 0  0.3087362127524279 0.21 0  0.3162045149895234 0.21 0  0.3236728172265972 0.21 0  0.3311411194636928 0.21 0  0.3386094217007701 0.21 0  0.3460777239378666 0.21 0  0.3535460261749672 0.21 0  0.3610143284120516 0.21 0  0.3684826306491596 0.21 0  0.3759509328862226 0.21 0  0.383419235123329 0.21 0  0.3908875373604028 0.21 0  0.3983558395975142 0.21 0  0.4058241418345938 0.21 0  0.4132924440716992 0.21 0  0.4207607463087888 0.21 0  0.4282290485459029 0.21 0  0.4356973507830418 0.21 0  0.4431656530201649 0.21 0  0.4506339552573136 0.21 0  0.4581022574944306 0.21 0  0.4655705597315852 0.21 0  0.4730388619686996 0.21 0  0.480507164205851 0.21 0  0.4879754664429498 0.21 0  0.4954437686800938 0.21 0  0.502912070917267 0.21 0  0.5103803731544119 0.21 0  0.5178486753915261 0.21 0  0.5253169776286404 0.21 0  0.5327852798657868 0.21 0  0.5402535821029386 0.21 0  0.54772188434007 0.21 0  0.5551901865771842 0.21 0  0.5626584888143201 0.21 0  0.5701267910514778 0.21 0  0.5775950932886138 0.21 0  0.5850633955257281 0.21 0  0.5925316977628483 0.21 0  0.6 0.2050000000000054 0  0.6 0.1950000000000217 0  0.5925316977628897 0.19 0  0.5850633955257988 0.19 0  0.5775950932887378 0.19 0  0.5701267910515998 0.19 0  0.5626584888145268 0.19 0  0.5551901865773963 0.19 0  0.547721884340339 0.19 0  0.5402535821032429 0.19 0  0.5327852798661811 0.19 0  0.5253169776290537 0.19 0  0.5178486753919799 0.19 0  0.5103803731549078 0.19 0  0.502912070917822 0.19 0  0.4954437686807294 0.19 0  0.4879754664436223 0.19 0  0.4805071642065402 0.19 0  0.4730388619694271 0.19 0  0.4655705597323621 0.19 0  0.4581022574952563 0.19 0  0.4506339552581777 0.19 0  0.4431656530210671 0.19 0  0.4356973507839815 0.19 0  0.4282290485468779 0.19 0  0.4207607463097617 0.19 0  0.4132924440726327 0.19 0  0.4058241418354857 0.19 0  0.3983558395983636 0.19 0  0.3908875373612097 0.19 0  0.3834192351240934 0.19 0  0.3759509328869369 0.19 0  0.3684826306498175 0.19 0  0.361014328412667 0.19 0  0.3535460261755617 0.19 0  0.3460777239384295 0.19 0  0.3386094217012945 0.19 0  0.3311411194641595 0.19 0  0.3236728172270245 0.19 0  0.3162045149898895 0.19 0  0.3087362127527544 0.19 0  0.3012679105156187 0.19 0  0.2937996082784807 0.19 0  0.2863313060413428 0.19 0  0.2788630038042048 0.19 0  0.2713947015670686 0.19 0  0.2639263993299336 0.19 0  0.2564580970927985 0.19 0  0.2607803159922026 0.2000727136295815 0  0.5887803774232762 0.2001272386983733 0  0.5745072403740523 0.2002044435018727 0  0.5511891430099709 0.2001122610077113 0  0.2751288526855082 0.20000000000002 0  0.5365194309847112 0.1999999999999436 0  0.2894621222999649 0.1998691686390484 0  0.5215828265105155 0.1999999999999228 0  0.3127789816668748 0.1998657885438805 0  0.3274069683451451 0.2000000000000796 0  0.5066462220363641 0.199999999999908 0  0.3650630746574081 0.199866017807523 0  0.476773013087985 0.1999999999998713 0  0.3417402379596385 0.1998691686391011 0  0.3796850840047755 0.200000000000134 0  0.4618364086138087 0.1999999999998546 0  0.4917096175621762 0.1999999999998808 0  0.3946216884789568 0.2000000000001512 0  0.446899804139621 0.1999999999998389 0  0.4089549580935208 0.1998691686391595 0  0.4322718174608562 0.200127451265745 0  0.4201487168029707 0.1999966199048527 0  0.3528922713220932 0.2000185703532356 0  0.5633122436674589 0.1999814296467508 0  0.3006558810093873 0.1999966199048318 0  0.5815926498168407 0.1966545283159175 0  0.2677053789419034 0.1964246479135325 0  0.5290511287476175 0.1970915826863981 0  0.5439877332217911 0.197091582686394 0  0.2825131256993216 0.2035478995978015 0  0.3199386661080599 0.202908417313604 0  0.4842413153250809 0.1970915826863873 0  0.5141145242734466 0.1970915826863843 0  0.3722167817676917 0.2029084173136195 0  0.4693047108508938 0.1970915826863783 0  0.3348752705822316 0.202908417313609 0  0.3871533862418661 0.2029084173136212 0  0.4543681063767183 0.1970915826863795 0  0.4991779197992749 0.1970915826863902 0  0.4020059614928624 0.203547899597858 0  0.4394315019025246 0.1970915826863714 0  0.2550657455369551 0.2034088125358657 0  0.2548908499171161 0.1966940311614271 0  0.5946539510196798 0.2024302972968126 0  0.267698176732111 0.2039977513680092 0  0.4261685417851465 0.196409292431739 0  0.3590076176283495 0.196411355804271 0  0.5571672426447437 0.2036011176410121 0  0.3066757059912147 0.1964092924317024 0  0.594380730180568 0.1966558399668133 0  0.4842413153245942 0.2040749161535287 0  0.4693047108503577 0.2040749161535231 0  0.3871533862424271 0.1959250838464788 0  0.372246743208829 0.1959123236376545 0  0.5141145242731028 0.2040749161535395 0  0.4543681063761134 0.2040749161535186 0  0.4019979587101454 0.1959834479682427 0  0.4394608940728603 0.2040870543693135 0  0.5439623148931173 0.2040856076781014 0  0.5290511287473298 0.2040749161535501 0  0.4991779197988497 0.2040749161535382 0  0.3347912413592433 0.1959225448935183 0  0.3199680582793816 0.1959123018030061 0  0.2825051229162361 0.1959834479681729 0  0.3590471196690275 0.2036304442587945 0  0.5571594006495384 0.1963685282145804 0  0.3067669986803285 0.203627750582736 0  0.4262598344738712 0.2036568242185335 0  0.5814408164431408 0.2041285596160068 0  0.5688286748170428 0.1961819304477386 0  0.4145905603063645 0.2038180695522843 0  0.3473758401724931 0.2038180695522752 0  0.2950977245128307 0.2038180695522663 0  0.5688286748170693 0.203818069552238 0  0.2950977245127906 0.1961819304477774 0  0.3473758401723931 0.1961819304478349 0  0.4145905603061963 0.1961819304479011 0  0.2601812407614425 0.2056861609747042
[...]
<PointData  Vectors="f_40-0"> 
<DataArray  type="Float64"  Name="f_40-0"  NumberOfComponents="3" format="ascii">0.0000000000000000e+00 0.0000000000000000e+00 0.0000000000000000e+00  0.0000000000000000e+00 0.0000000000000000e+00 0.0000000000000000e+00  0.0000000000000000e+00 0.0000000000000000e+00 0.0000000000000000e+00  0.0000000000000000e+00 0.0000000000000000e+00 0.0000000000000000e+00  -1.0043012459704251e-06 -7.3482868189545560e-06 0.0000000000000000e+00  -2.3019080252288521e-07 -7.3830033397294383e-06 0.0000000000000000e+00  0.0000000000000000e+00 0.0000000000000000e+00 0.0000000000000000e+00  0.0000000000000000e+00 0.0000000000000000e+00 0.0000000000000000e+00  0.0000000000000000e+00 0.0000000000000000e+00 0.0000000000000000e+00  0.0000000000000000e+00 0.0000000000000000e+00 0.0000000000000000e+00  -6.1703172005464247e-07 -7.3807472876132642e-06 0.0000000000000000e+00  7.9591836734548405e-01 0.0000000000000000e+00 0.0000000000000000e+00  1.4693877550994523e+00 0.0000000000000000e+00 0.0000000000000000e+00  2.0204081632617479e+00 0.0000000000000000e+00 0.0000000000000000e+00  2.4489795918330071e+00 0.0000000000000000e+00 0.0000000000000000e+00  2.7551020408131754e+00 0.0000000000000000e+00 0.0000000000000000e+00  2.9387755102022344e+00 0.0000000000000000e+00 0.0000000000000000e+00  3.0000000000000004e+00 0.0000000000000000e+00 0.0000000000000000e+00  2.9387755102059474e+00 0.0000000000000000e+00 0.0000000000000000e+00  2.7551020408195543e+00 0.0000000000000000e+00 0.0000000000000000e+00  2.4489795918409065e+00 0.0000000000000000e+00 0.0000000000000000e+00  2.0204081632692521e+00 0.0000000000000000e+00 0.0000000000000000e+00  1.4693877551058563e+00 0.0000000000000000e+00 0.0000000000000000e+00  7.9591836734909216e-01 0.0000000000000000e+00 0.0000000000000000e+00  0.0000000000000000e+00 0.0000000000000000e+00 0.0000000000000000e+00  0.0000000000000000e+00 0.0000000000000000e+00 0.0000000000000000e+00  0.0000000000000000e+00 0.0000000000000000e+00 0.0000000000000000e+00  0.0000000000000000e+00 0.0000000000000000e+00 0.0000000000000000e+00  0.0000000000000000e+00 0.0000000000000000e+00 0.0000000000000000e+00  0.0000000000000000e+00 0.0000000000000000e+00 0.0000000000000000e+00  0.0000000000000000e+00 0.0000000000000000e+00 0.0000000000000000e+00  0.0000000000000000e+00 0.0000000000000000e+00 0.0000000000000000e+00  0.0000000000000000e+00 0.0000000000000000e+00 0.0000000000000000e+00  0.0000000000000000e+00 0.0000000000000000e+00 0.0000000000000000e+00  0.0000000000000000e+00 0.0000000000000000e+00 0.0000000000000000e+00  0.0000000000000000e+00 0.0000000000000000e+00 0.0000000000000000e+00  0.0000000000000000e+00 0.0000000000000000e+00 0.0000000000000000e+00  0.0000000000000000e+00 0.0000000000000000e+00 0.0000000000000000e+00  0.0000000000000000e+00 0.0000000000000000e+00 0.0000000000000000e+00  0.0000000000000000e+00 0.0000000000000000e+00 0.0000000000000000e+00  0.0000000000000000e+00 0.0000000000000000e+00 0.0000000000000000e+00  0.0000000000000000e+00 0.0000000000000000e+00 0.0000000000000000e+00  0.0000000000000000e+00 0.0000000000000000e+00 0.0000000000000000e+00  0.0000000000000000e+00 0.0000000000000000e+00 0.0000000000000000e+00  0.0000000000000000e+00 0.0000000000000000e+00 0.0000000000000000e+00  0.0000000000000000e+00 0.0000000000000000e+00 0.0000000000000000e+00  0.0000000000000000e+00 0.0000000000000000e+00 0.0000000000000000e+00  0.0000000000000000e+00 0.0000000000000000e+00 0.0000000000000000e+00  0.0000000000000000e+00 0.0000000000000000e+00 0.0000000000000000e+00  0.0000000000000000e+00 0.0000000000000000e+00 0.0000000000000000e+00  0.0000000000000000e+00 0.0000000000000000e+00 0.0000000000000000e+00  0.0000000000000000e+00 0.0000000000000000e+00 0.0000000000000000e+00  0.0000000000000000e+00 0.0000000000000000e+00 0.0000000000000000e+00  0.0000000000000000e+00 0.0000000000000000e+00 0.0000000000000000e+00  0.0000000000000000e+00 0.0000000000000000e+00 0.0000000000000000e+00  0.0000000000000000e+00 0.0000000000000000e+00 0.0000000000000000e+00  0.0000000000000000e+00 0.0000000000000000e+00 0.0000000000000000e+00  0.0000000000000000e+00 0.0000000000000000e+00 0.0000000000000000e+00  0.0000000000000000e+00 0.0000000000000000e+00 0.0000000000000000e+00  0.0000000000000000e+00 0.0000000000000000e+00 0.0000000000000000e+00  0.0000000000000000e+00 0.0000000000000000e+00 0.0000000000000000e+00  0.0000000000000000e+00 0.0000000000000000e+00 0.0000000000000000e+00  2.6472951087527163e+00 1.0924749793088901e-02 0.0000000000000000e+00  2.3764916797527746e+00 1.3572249551592001e-02 0.0000000000000000e+00  2.8000049352203606e+00 6.1278422682405159e-02 0.0000000000000000e+00  0.0000000000000000e+00 0.0000000000000000e+00 0.0000000000000000e+00  0.0000000000000000e+00 0.0000000000000000e+00 0.0000000000000000e+00  0.0000000000000000e+00 0.0000000000000000e+00 0.0000000000000000e+00  0.0000000000000000e+00 0.0000000000000000e+00 0.0000000000000000e+00  0.0000000000000000e+00 0.0000000000000000e+00 0.0000000000000000e+00  0.0000000000000000e+00 0.0000000000000000e+00 0.0000000000000000e+00  0.0000000000000000e+00 0.0000000000000000e+00 0.0000000000000000e+00  0.0000000000000000e+00 0.0000000000000000e+00 0.0000000000000000e+00  0.0000000000000000e+00 0.0000000000000000e+00 0.0000000000000000e+00  0.0000000000000000e+00 0.0000000000000000e+00 0.0000000000000000e+00  0.0000000000000000e+00 0.0000000000000000e+00 0.0000000000000000e+00  0.0000000000000000e+00 0.0000000000000000e+00 0.0000000000000000e+00  0.0000000000000000e+00 0.0000000000000000e+00 0.0000000000000000e+00  0.0000000000000000e+00 0.0000000000000000e+00 0.0000000000000000e+00  0.0000000000000000e+00 0.0000000000000000e+00 0.0000000000000000e+00  0.0000000000000000e+00 0.0000000000000000e+00 0.0000000000000000e+00  0.0000000000000000e+00 0.0000000000000000e+00 0.0000000000000000e+00  0.0000000000000000e+00 0.0000000000000000e+00 0.0000000000000000e+00  0.0000000000000000e+00 0.0000000000000000e+00 0.0000000000000000e+00  0.0000000000000000e+00 0.0000000000000000e+00 0.0000000000000000e+00  0.0000000000000000e+00 0.0000000000000000e+00 0.0000000000000000e+00  0.0000000000000000e+00 0.0000000000000000e+00 0.0000000000000000e+00  0.0000000000000000e+00 0.0000000000000000e+00 0.0000000000000000e+00  0.0000000000000000e+00 0.0000000000000000e+00 0.0000000000000000e+00  0.0000000000000000e+00 0.0000000000000000e+00 0.0000000000000000e+00  0.0000000000000000e+00 0.0000000000000000e+00 0.0000000000000000e+00  0.0000000000000000e+00 0.0000000000000000e+00 0.0000000000000000e+00  0.0000000000000000e+00 0.0000000000000000e+00 0.0000000000000000e+00  0.0000000000000000e+00 0.0000000000000000e+00 0.0000000000000000e+00  0.0000000000000000e+00 0.0000000000000000e+00 0.0000000000000000e+00  0.0000000000000000e+00 0.0000000000000000e+00 0.0000000000000000e+00  0.0000000000000000e+00 0.0000000000000000e+00 0.0000000000000000e+00  0.0000000000000000e+00 0.0000000000000000e+00 0.0000000000000000e+00  0.0000000000000000e+00 0.0000000000000000e+00 0.0000000000000000e+00  0.0000000000000000e+00 0.0000000000000000e+00 0.0000000000000000e+00  0.0000000000000000e+00 0.0000000000000000e+00 0.0000000000000000e+00  0.0000000000000000e+00 0.0000000000000000e+00 0.0000000000000000e+00  0.0000000000000000e+00 0.0000000000000000e+00 0.0000000000000000e+00  0.0000000000000000e+00 0.0000000000000000e+00 0.0000000000000000e+00  0.0000000000000000e+00 0.0000000000000000e+00 0.0000000000000000e+00  0.0000000000000000e+00 0.0000000000000000e+00 0.0000000000000000e+00  0.0000000000000000e+00 0.0000000000000000e+00 0.0000000000000000e+00  0.0000000000000000e+00 0.0000000000000000e+00 0.0000000000000000e+00  0.0000000000000000e+00 0.0000000000000000e+00 0.0000000000000000e+00  0.0000000000000000e+00 0.0000000000000000e+00 0.0000000000000000e+00  0.0000000000000000e+00 0.0000000000000000e+00 0.0000000000000000e+00  0.0000000000000000e+00 0.0000000000000000e+00 0.0000000000000000e+00  0.0000000000000000e+00 0.0000000000000000e+00 0.0000000000000000e+00  0.0000000000000000e+00 0.0000000000000000e+00 0.0000000000000000e+00  0.0000000000000000e+00 0.0000000000000000e+00 0.0000000000000000e+00  0.0000000000000000e+00 0.0000000000000000e+00 0.0000000000000000e+00  0.0000000000000000e+00 0.0000000000000000e+00 0.0000000000000000e+00  0.0000000000000000e+00 0.0000000000000000e+00 0.0000000000000000e+00  0.0000000000000000e+00 0.0000000000000000e+00 0.0000000000000000e+00  0.0000000000000000e+00 0.0000000000000000e+00 0.0000000000000000e+00  0.0000000000000000e+00 0.0000000000000000e+00 0.0000000000000000e+00  0.0000000000000000e+00 0.0000000000000000e+00 0.0000000000000000e+00  0.0000000000000000e+00 0.0000000000000000e+00 0.0000000000000000e+00  0.0000000000000000e+00 0.0000000000000000e+00 0.0000000000000000e+00  0.0000000000000000e+00 0.0000000000000000e+00 0.0000000000000000e+00  0.0000000000000000e+00 0.0000000000000000e+00 0.0000000000000000e+00  0.0000000000000000e+00 0.0000000000000000e+00 0.0000000000000000e+00  0.0000000000000000e+00 0.0000000000000000e+00 0.0000000000000000e+00  0.0000000000000000e+00 0.0000000000000000e+00 0.0000000000000000e+00  0.0000000000000000e+00 0.0000000000000000e+00 0.0000000000000000e+00  0.0000000000000000e+00 0.0000000000000000e+00 0.0000000000000000e+00  0.0000000000000000e+00 0.0000000000000000e+00 0.0000000000000000e+00  0.0000000000000000e+00 0.0000000000000000e+00 0.0000000000000000e+00  0.0000000000000000e+00 0.0000000000000000e+00 0.0000000000000000e+00  0.0000000000000000e+00 0.0000000000000000e+00 0.0000000000000000e+00  0.0000000000000000e+00 0.0000000000000000e+00 0.0000000000000000e+00  0.0000000000000000e+00 0.0000000000000000e+00 0.0000000000000000e+00  0.0000000000000000e+00 0.0000000000000000e+00 0.0000000000000000e+00  0.0000000000000000e+00 0.0000000000000000e+00 0.0000000000000000e+00  0.0000000000000000e+00 0.0000000000000000e+00 0.0000000000000000e+00  0.0000000000000000e+00 0.0000000000000000e+00 0.0000000000000000e+00  0.0000000000000000e+00 0.0000000000000000e+00 0.0000000000000000e+00  0.0000000000000000e+00 0.0000000000000000e+00 0.0000000000000000e+00  -3.1099122237966083e-08 1.1507943182185604e-09 0.0000000000000000e+00  -5.9798871303672548e-08 2.3665451844903800e-08 0.0000000000000000e+00  -8.2058556405930519e-08 5.2817214425146203e-08 0.0000000000000000e+00  -1.0013770612456003e-07 8.8092968880429931e-08 0.0000000000000000e+00  -1.1403547059066544e-07 1.2253960825590948e-07 0.0000000000000000e+00  -1.2368048077808182e-07 1.5520329241263426e-07 0.0000000000000000e+00  -1.3163716064953896e-07 1.8377265272752411e-07 0.0000000000000000e+00  -1.3694620725171995e-07 2.0463352054735458e-07 0.0000000000000000e+00  -1.3783403496409553e-07 2.1779904809532460e-07 0.0000000000000000e+00  -1.3954825603611008e-07 2.2032460775238566e-07 0.0000000000000000e+00  -1.3552309518553792e-07 2.1141901921396053e-07 0.0000000000000000e+00  -1.3429401489548450e-07 1.8901825494533504e-07 0.0000000000000000e+00  -1.2761992262068881e-07 1.5282180816498683e-07 0.0000000000000000e+00  -1.2395547587944768e-07 1.0378643617403040e-07 0.0000000000000000e+00  -1.1938633574476323e-07 3.7729782812138060e-08 0.0000000000000000e+00  -1.1050305745042894e-07 -4.2268675629814351e-08 0.0000000000000000e+00  -1.0624433339104474e-07 -1.3788306945938607e-07 0.0000000000000000e+00  -9.6773341597991902e-08 -2.4908491575739351e-07 0.0000000000000000e+00  -9.2779348748756087e-08 -3.7571101589866437e-07 0.0000000000000000e+00  -8.4389771586523603e-08 -5.1672681699938849e-07 0.0000000000000000e+00  -8.0262586370653693e-08 -6.7285191571941632e-07 0.0000000000000000e+00  -7.3448101401683822e-08 -8.4344224718470357e-07 0.0000000000000000e+00  -7.0761105260418087e-08 -1.0254836422951693e-06 0.0000000000000000e+00  -6.8668541042190083e-08 -1.2217611665203572e-06 0.0000000000000000e+00  -6.4712440725912687e-08 -1.4282173509976892e-06 0.0000000000000000e+00  -6.3924727314099299e-08 -1.6465595787314525e-06 0.0000000000000000e+00  -6.3191242776859038e-08 -1.8751124539274761e-06 0.0000000000000000e+00  -6.4454321402151896e-08 -2.1123804639138268e-06 0.0000000000000000e+00  -6.6037918779726550e-08 -2.3584063296602344e-06 0.0000000000000000e+00  -6.9429381262514673e-08 -2.6113399239125721e-06 0.0000000000000000e+00  -7.3281254362983477e-08 -2.8712180811110032e-06 0.0000000000000000e+00  -7.8725797648950340e-08 -3.1362738891494107e-06 0.0000000000000000e+00  -8.4693423205748500e-08 -3.4065615990008198e-06 0.0000000000000000e+00  -9.1985426647484740e-08 -3.6804782569698214e-06 0.0000000000000000e+00  -9.9788743908626988e-08 -3.9581369071559163e-06 0.0000000000000000e+00  -1.0862052256321799e-07 -4.2381819232646572e-06 0.0000000000000000e+00  -1.1789003811813803e-07 -4.5206804015318352e-06 0.0000000000000000e+00  -1.2790448392818364e-07 -4.8046479055717406e-06 0.0000000000000000e+00  -1.3823086411947953e-07 -5.0901106303209963e-06 0.0000000000000000e+00  -1.4902920348445149e-07 -5.3764291379547679e-06 0.0000000000000000e+00  -1.5995291547724117e-07 -5.6635675010124421e-06 0.0000000000000000e+00  -1.7116419405275782e-07 -5.9518574254106041e-06 0.0000000000000000e+00  -1.8255264075736305e-07 -6.2394262160559518e-06 0.0000000000000000e+00  -1.9382129768351955e-07 -6.5280303787503406e-06 0.0000000000000000e+00  -2.0521731137516010e-07 -6.8173454930677174e-06 0.0000000000000000e+00  -2.1652352668277956e-07 -7.1062939674015731e-06 0.0000000000000000e+00  -4.2261073302702645e-07 -7.3890700208170372e-06 0.0000000000000000e+00  -8.1153958563487904e-07 -7.3727413887987939e-06 0.0000000000000000e+00  -9.9405257334103659e-07 -7.0747359835931060e-06 0.0000000000000000e+00  -9.8135424881635711e-07 -6.7854878136290188e-06 0.0000000000000000e+00  -9.6879306552958563e-07 -6.4965944368900219e-06 0.0000000000000000e+00  -9.5594075827026351e-07 -6.2077645281121685e-06 0.0000000000000000e+00  -9.4318788673228860e-07 -5.9202221600754075e-06 0.0000000000000000e+00  -9.3023935090345637e-07 -5.6319191139533589e-06 0.0000000000000000e+00  -9.1691531221194948e-07 -5.3449308821362735e-06 0.0000000000000000e+00  -9.0359543697764678e-07 -5.0585207388588927e-06 0.0000000000000000e+00  -8.8946057687390639e-07 -4.7730243510703535e-06 0.0000000000000000e+00  -8.7538713593542342e-07 -4.4889815010642155e-06 0.0000000000000000e+00  -8.6004765409377405e-07 -4.2064554701652306e-06 0.0000000000000000e+00  -8.4485387296054279e-07 -3.9262917017206381e-06 0.0000000000000000e+00  -8.2783848727992702e-07 -3.6486041314843291e-06 0.0000000000000000e+00  -8.1116607584242014e-07 -3.3745192376122700e-06 0.0000000000000000e+00  -7.9203372610853790e-07 -3.1041786429081117e-06 0.0000000000000000e+00  -7.7356045352854390e-07 -2.8389423830159096e-06 0.0000000000000000e+00  -7.5194330653867730e-07 -2.5789745064356441e-06 0.0000000000000000e+00  -7.3142828100965691e-07 -2.3258126251803145e-06 0.0000000000000000e+00  -7.0709673693549145e-07 -2.0796473918731898e-06 0.0000000000000000e+00  -6.8441210095037427e-07 -1.8420826912970950e-06 0.0000000000000000e+00  -6.5718096692129923e-07 -1.6133737572023482e-06 0.0000000000000000e+00  -6.3218801144667158e-07 -1.3951463922620092e-06 0.0000000000000000e+00  -6.0239201141640031e-07 -1.1877409305591401e-06 0.0000000000000000e+00  -5.7460472156901614e-07 -9.9138627077676765e-07 0.0000000000000000e+00  -5.4594860479387618e-07 -8.0924216133521770e-07 0.0000000000000000e+00  -5.1334904312830024e-07 -6.3794925136540927e-07 0.0000000000000000e+00  -4.8219788054522881e-07 -4.8213392986233963e-07 0.0000000000000000e+00  -4.4858799344257376e-07 -3.4010142363684951e-07 0.0000000000000000e+00  -4.1600933523004806e-07 -2.1348971010026159e-07 0.0000000000000000e+00  -3.8157343224265620e-07 -1.0192486377511008e-07 0.0000000000000000e+00  -3.4840601721989159e-07 -5.4557532428943929e-09 0.0000000000000000e+00  -3.1249789907136070e-07 7.3904082346264995e-08 0.0000000000000000e+00  -2.8034569835361032e-07 1.4044718700294887e-07 0.0000000000000000e+00  -2.4882548448663453e-07 1.8956485678498437e-07 0.0000000000000000e+00  -2.1464990762473673e-07 2.2683061408853181e-07 0.0000000000000000e+00  -1.8380448526086599e-07 2.4897984433185148e-07 0.0000000000000000e+00  -1.5306293919542709e-07 2.5800066558241566e-07 0.0000000000000000e+00  -1.2515365103185761e-07 2.5602273137671197e-07 0.0000000000000000e+00  -9.7920219331038879e-08 2.4237740760871149e-07 0.0000000000000000e+00  -7.4658619035398541e-08 2.2177490356417623e-07 0.0000000000000000e+00  -5.4052278657728921e-08 1.9325401953526736e-07 0.0000000000000000e+00  -3.5115796545375837e-08 1.6064519508141695e-07 0.0000000000000000e+00  -2.0474546778653957e-08 1.2627747869509276e-07 0.0000000000000000e+00  -9.8519256774049534e-09 9.1461318969723396e-08 0.0000000000000000e+00  -2.1540654953618151e-09 6.1218431289530897e-08 0.0000000000000000e+00  3.3418514935845409e-10 3.5717813921202851e-08 0.0000000000000000e+00  -2.7621452349675663e-08 2.4739507370299882e-08 0.0000000000000000e+00  -5.9417624987931855e-07 -6.9466868995724773e-06 0.0000000000000000e+00  -5.6832757484237807e-07 -6.3938126581146532e-06 0.0000000000000000e+00  -5.3424990825607097e-07 -5.4941484791087106e-06 0.0000000000000000e+00  -5.3138310825838133e-08 8.7620537129115074e-08 0.0000000000000000e+00  -5.1475304537537161e-07 -4.9310988793278212e-06 0.0000000000000000e+00  -8.0056253040675770e-08 1.5776384336874645e-07 0.0000000000000000e+00  -4.9046595883125121e-07 -4.3624120268683978e-06 0.0000000000000000e+00  -1.2506299460111527e-07 2.3824525509531654e-07 0.0000000000000000e+00  -1.5307182633070216e-07 2.4381705582964451e-07 0.0000000000000000e+00  -4.6611373928814398e-07 -3.8013166718689533e-06 0.0000000000000000e+00  -2.2501635270703350e-07 2.4719919153934586e-08 0.0000000000000000e+00  -4.1708203338198808e-07 -2.7206766410999922e-06 0.0000000000000000e+00  -1.8077227453698690e-07 2.0378777822864809e-07 0.0000000000000000e+00  -2.5014949941941581e-07 -1.6403960954034984e-07 0.0000000000000000e+00  -3.9229766911655459e-07 -2.2132510584237678e-06 0.0000000000000000e+00  -4.4166787144413290e-07 -3.2522126791959008e-06 0.0000000000000000e+00  -2.7691312441750419e-07 -4.1746340439612575e-07 0.0000000000000000e+00  -3.6731549505842542e-07 -1.7371060909420234e-06 0.0000000000000000e+00  -3.0516108804407969e-07 -7.1611824070154498e-07 0.0000000000000000e+00  -3.3896938801473438e-07 -1.3083183953296529e-06 0.0000000000000000e+00  -3.2169967908413121e-07 -9.8711142293299575e-07 0.0000000000000000e+00  -2.0088622798613317e-07 1.3388522711836890e-07 0.0000000000000000e+00  -5.5888354253518164e-07 -5.9614845923260429e-06 0.0000000000000000e+00  -1.0205893275125837e-07 2.0348414027734000e-07 0.0000000000000000e+00  -7.1742988835560413e-07 -6.6631128267615338e-06 0.0000000000000000e+00  -2.8223689583849787e-08 6.0816944537172761e-08 0.0000000000000000e+00  -6.1303588786407943e-07 -4.6419522489047991e-06 0.0000000000000000e+00  -6.3834030953781986e-07 -5.2131909082446011e-06 0.0000000000000000e+00  -8.0906622729834494e-08 1.1747082308977412e-07 0.0000000000000000e+00  -1.3844065828174332e-07 2.3985940558123760e-07 0.0000000000000000e+00  -5.3208557609043553e-07 -2.9799158558527793e-06 0.0000000000000000e+00  -5.8705429132832147e-07 -4.0766152161147596e-06 0.0000000000000000e+00  -1.9902657547126890e-07 -6.6912483059270114e-08 0.0000000000000000e+00  -5.0261963641086258e-07 -2.4596380207427691e-06 0.0000000000000000e+00  -1.5801323021443562e-07 2.2246777124468717e-07 0.0000000000000000e+00  -2.1459924739430755e-07 -2.8973223387928827e-07 0.0000000000000000e+00  -4.7161476340884654e-07 -1.9669890693970963e-06 0.0000000000000000e+00  -5.6015525436980511e-07 -3.5209327082083999e-06 0.0000000000000000e+00  -2.1673292945121609e-07 -5.7263167667668568e-07 0.0000000000000000e+00  -4.3914671837606608e-07 -1.5092622853806598e-06 0.0000000000000000e+00  -1.7627663749890331e-08 4.4487950021831694e-09 0.0000000000000000e+00  -1.2647896250546799e-08 1.1592846608393849e-08 0.0000000000000000e+00  -5.1409582013820799e-07 -7.1788209213620055e-06 0.0000