<?xml version="1.0"?>
<VTKFile type="UnstructuredGrid"  version="0.1"  >
<UnstructuredGrid>
<Piece  NumberOfPoints="841" NumberOfCells="1600">
<Points>
<DataArray  type="Float64"  NumberOfComponents="3"  format="ascii">0 0 0  0.1 0 0  0.2 0 0  0.3 0 0  0.4 0 0  0.5 0 0  0.6 0 0  0.7 0 0  0.8 0 0  0.9 0 0  1 0 0  1.1 0 0  1.2 0 0  1.3 0 0  1.4 0 0  1.5 0 0  1.6 0 0  1.7 0 0  1.8 0 0  1.9 0 0  2 0 0  0 0.05 0  0.1 0.05 0  0.2 0.05 0  0.3 0.05 0  0.4 0.05 0  0.5 0.05 0  0.6 0.05 0  0.7 0.05 0  0.8 0.05 0  0.9 0.05 0  1 0.05 0  1.1 0.05 0  1.2 0.05 0  1.3 0.05 0  1.4 0.05 0  1.5 0.05 0  1.6 0.05 0  1.7 0.05 0  1.8 0.05 0  1.9 0.05 0  2 0.05 0  0 0.1 0  0.1 0.1 0  0.2 0.1 0  0.3 0.1 0  0.4 0.1 0  0.5 0.1 0  0.6 0.1 0  0.7 0.1 0  0.8 0.1 0  0.9 0.1 0  1 0.1 0  1.1 0.1 0  1.2 0.1 0  1.3 0.1 0  1.4 0.1 0  1.5 0.1 0  1.6 0.1 0  1.7 0.1 0  1.8 0.1 0  1.9 0.1 0  2 0.1 0  0 0.15 0  0.1 0.15 0  0.2 0.15 0  0.3 0.15 0  0.4 0.15 0  0.5 0.15 0  0.6 0.15 0  0.7 0.15 0  0.8 0.15 0  0.9 0.15 0  1 0.15 0  1.1 0.15 0  1.2 0.15 0  1.3 0.15 0  1.4 0.15 0  1.5 0.15 0  1.6 0.15 0  1.7 0.15 0  1.8 0.15 0  1.9 0.15 0  2 0.15 0  0 0.2 0  0.1 0.2 0  0.2 0.2 0  0.3 0.2 0  0.4 0.2 0  0.5 0.2 0  0.6 0.2 0  0.7 0.2 0  0.8 0.2 0  0.9 0.2 0  1 0.2 0  1.1 0.2 0  1.2 0.2 0  1.3 0.2 0  1.4 0.2 0  1.5 0.2 0  1.6 0.2 0  1.7 0.2 0  1.8 0.2 0  1.9 0.2 0  2 0.2 0  0 0.25 0  0.1 0.25 0  0.2 0.25 0  0.3 0.25 0  0.4 0.25 0  0.5 0.25 0  0.6 0.25 0  0.7 0.25 0  0.8 0.25 0  0.9 0.25 0  1 0.25 0  1.1 0.25 0  1.2 0.25 0  1.3 0.25 0  1.4 0.25 0  1.5 0.25 0  1.6 0.25 0  1.7 0.25 0  1.8 0.25 0  1.9 0.25 0  2 0.25 0  0 0.3 0  0.1 0.3 0  0.2 0.3 0  0.3 0.3 0  0.4 0.3 0  0.5 0.3 0  0.6 0.3 0  0.7 0.3 0  0.8 0.3 0  0.9 0.3 0  1 0.3 0  1.1 0.3 0  1.2 0.3 0  1.3 0.3 0  1.4 0.3 0  1.5 0.3 0  1.6 0.3 0  1.7 0.3 0  1.8 0.3 0  1.9 0.3 0  2 0.3 0  0 0.35 0  0.1 0.35 0  0.2 0.35 0  0.3 0.35 0  0.4 0.35 0  0.5 0.35 0  0.6 0.35 0  0.7 0.35 0  0.8 0.35 0  0.9 0.35 0  1 0.35 0  1.1 0.35 0  1.2 0.35 0  1.3 0.35 0  1.4 0.35 0  1.5 0.35 0  1.6 0.35 0  1.7 0.35 0  1.8 0.35 0  1.9 0.35 0  2 0.35 0  0 0.4 0  0.1 0.4 0  0.2 0.4 0  0.3 0.4 0  0.4 0.4 0  0.5 0.4 0  0.6 0.4 0  0.7 0.4 0  0.8 0.4 0  0.9 0.4 0  1 0.4 0  1.1 0.4 0  1.2 0.4 0  1.3 0.4 0  1.4 0.4 0  1.5 0.4 0  1.6 0.4 0  1.7 0.4 0  1.8 0.4 0  1.9 0.4 0  2 0.4 0  0 0.45 0  0.1 0.45 0  0.2 0.45 0  0.3 0.45 0  0.4 0.45 0  0.5 0.45 0  0.6 0.45 0  0.7 0.45 0  0.8 0.45 0  0.9 0.45 0  1 0.45 0  1.1 0.45 0  1.2 0.45 0  1.3 0.45 0  1.4 0.45 0  1.5 0.45 0  1.6 0.45 0  1.7 0.45 0  1.8 0.45 0  1.9 0.45 0  2 0.45 0  0 0.5 0  0.1 0.5 0  0.2 0.5 0  0.3 0.5 0  0.4 0.5 0  0.5 0.5 0  0.6 0.5 0  0.7 0.5 0  0.8 0.5 0  0.9 0.5 0  1 0.5 0  1.1 0.5 0  1.2 0.5 0  1.3 0.5 0  1.4 0.5 0  1.5 0.5 0  1.6 0.5 0  1.7 0.5 0  1.8 0.5 0  1.9 0.5 0  2 0.5 0  0 0.55 0  0.1 0.55 0  0.2 0.55 0  0.3 0.55 0  0.4 0.55 0  0.5 0.55 0  0.6 0.55 0  0.7 0.55 0  0.8 0.55 0  0.9 0.55 0  1 0.55 0  1.1 0.55 0  1.2 0.55 0  1.3 0.55 0  1.4 0.55 0  1.5 0.55 0  1.6 0.55 0  1.7 0.55 0  1.8 0.55 0  1.9 0.55 0  2 0.55 0  0 0.6 0  0.1 0.6 0  0.2 0.6 0  0.3 0.6 0  0.4 0.6 0  0.5 0.6 0  0.6 0.6 0  0.7 0.6 0  0.8 0.6 0  0.9 0.6 0  1 0.6 0  1.1 0.6 0  1.2 0.6 0  1.3 0.6 0  1.4 0.6 0  1.5 0.6 0  1.6 0.6 0  1.7 0.6 0  1.8 0.6 0  1.9 0.6 0  2 0.6 0  0 0.65 0  0.1 0.65 0  0.2 0.65 0  0.3 0.65 0  0.4 0.65 0  0.5 0.65 0  0.6 0.65 0  0.7 0.65 0  0.8 0.65 0  0.9 0.65 0  1 0.65 0  1.1 0.65 0  1.2 0.65 0  1.3 0.65 0  1.4 0.65 0  1.5 0.65 0  1.6 0.65 0  1.7 0.65 0  1.8 0.65 0  1.9 0.65 0  2 0.65 0  0 0.7 0  0.1 0.7 0  0.2 0.7 0  0.3 0.7 0  0.4 0.7 0  0.5 0.7 0  0.6 0.7 0  0.7 0.7 0  0.8 0.7 0  0.9 0.7 0  1 0.7 0  1.1 0.7 0  1.2 0.7 0  1.3 0.7 0  1.4 0.7 0  1.5 0.7 0  1.6 0.7 0  1.7 0.7 0  1.8 0.7 0  1.9 0.7 0  2 0.7 0  0 0.75 0  0.1 0.75 0  0.2 0.75 0  0.3 0.75 0  0.4 0.75 0  0.5 0.75 0  0.6 0.75 0  0.7 0.75 0  0.8 0.75 0  0.9 0.75 0  1 0.75 0  1.1 0.75 0  1.2 0.75 0  1.3 0.75 0  1.4 0.75 0  1.5 0.75 0  1.6 0.75 0  1.7 0.75 0  1.8 0.75 0  1.9 0.75 0  2 0.75 0  0 0.8 0  0.1 0.8 0  0.2 0.8 0  0.3 0.8 0  0.4 0.8 0  0.5 0.8 0  0.6 0.8 0  0.7 0.8 0  0.8 0.8 0  0.9 0.8 0  1 0.8 0  1.1 0.8 0  1.2 0.8 0  1.3 0.8 0  1.4 0.8 0  1.5 0.8 0  1.6 0.8 0  1.7 0.8 0  1.8 0.8 0  1.9 0.8 0  2 0.8 0  0 0.85 0  0.1 0.85 0  0.2 0.85 0  0.3 0.85 0  0.4 0.85 0  0.5 0.85 0  0.6 0.85 0  0.7 0.85 0  0.8 0.85 0  0.9 0.85 0  1 0.85 0  1.1 0.85 0  1.2 0.85 0  1.3 0.85 0  1.4 0.85 0  1.5 0.85 0  1.6 0.85 0  1.7 0.85 0  1.8 0.85 0  1.9 0.85 0  2 0.85 0  0 0.9 0  0.1 0.9 0  0.2 0.9 0  0.3 0.9 0  0.4 0.9 0  0.5 0.9 0  0.6 0.9 0  0.7 0.9 0  0.8 0.9 0  0.9 0.9 0  1 0.9 0  1.1 0.9 0  1.2 0.9 0  1.3 0.9 0  1.4 0.9 0  1.5 0.9 0  1.6 0.9 0  1.7 0.9 0  1.8 0.9 0  1.9 0.9 0  2 0.9 0  0 0.95 0  0.1 0.95 0  0.2 0.95 0  0.3 0.95 0  0.4 0.95 0  0.5 0.95 0  0.6 0.95 0  0.7 0.95 0  0.8 0.95 0  0.9 0.95 0  1 0.95 0  1.1 0.95 0  1.2 0.95 0  1.3 0.95 0  1.4 0.95 0  1.5 0.95 0  1.6 0.95 0  1.7 0.95 0  1.8 0.95 0  1.9 0.95 0  2 0.95 0  0 1 0  0.1 1 0  0.2 1 0  0.3 1 0  0.4 1 0  0.5 1 0  0.6 1 0  0.7 1 0  0.8 1 0  0.9 1 0  1 1 0  1.1 1 0  1.2 1 0  1.3 1 0  1.4 1 0  1.5 1 0  1.6 1 0  1.7 1 0  1.8 1 0  1.9 1 0  2 1 0  0.05 0.025 0  0.15 0.025 0  0.25 0.025 0  0.35 0.025 0  0.45 0.025 0  0.55 0.025 0  0.65 0.025 0  0.75 0.025 0  0.85 0.025 0  0.95 0.025 0  1.05 0.025 0  1.15 0.025 0  1.25 0.025 0  1.35 0.025 0  1.45 0.025 0  1.55 0.025 0  1.65 0.025 0  1.75 0.025 0  1.85 0.025 0  1.95 0.025 0  0.05 0.075 0  0.15 0.075 0  0.25 0.075 0  0.35 0.075 0  0.45 0.075 0  0.55 0.075 0  0.65 0.075 0  0.75 0.075 0  0.85 0.075 0  0.95 0.075 0  1.05 0.075 0  1.15 0.075 0  1.25 0.075 0  1.35 0.075 0  1.45 0.075 0  1.55 0.075 0  1.65 0.075 0  1.75 0.075 0  1.85 0.075 0  1.95 0.075 0  0.05 0.125 0  0.15 0.125 0  0.25 0.125 0  0.35 0.125 0  0.45 0.125 0  0.55 0.125 0  0.65 0.125 0  0.75 0.125 0  0.85 0.125 0  0.95 0.125 0  1.05 0.125 0  1.15 0.125 0  1.25 0.125 0  1.35 0.125 0  1.45 0.125 0  1.55 0.125 0  1.65 0.125 0  1.75 0.125 0  1.85 0.125 0  1.95 0.125 0  0.05 0.175 0  0.15 0.175 0  0.25 0.175 0  0.35 0.175 0  0.45 0.175 0  0.55 0.175 0  0.65 0.175 0  0.75 0.175 0  0.85 0.175 0  0.95 0.175 0  1.05 0.175 0  1.15 0.175 0  1.25 0.175 0  1.35 0.175 0  1.45 0.175 0  1.55 0.175 0  1.65 0.175 0  1.75 0.175 0  1.85 0.175 0  1.95 0.175 0  0.05 0.225 0  0.15 0.225 0  0.25 0.225 0  0.35 0.225 0  0.45 0.225 0  0.55 0.225 0  0.65 0.225 0  0.75 0.225 0  0.85 0.225 0  0.95 0.225 0  1.05 0.225 0  1.15 0.225 0  1.25 0.225 0  1.35 0.225 0  1.45 0.225 0  1.55 0.225 0  1.65 0.225 0  1.75 0.225 0  1.85 0.225 0  1.95 0.225 0  0.05 0.275 0  0.15 0.275 0  0.25 0.275 0  0.35 0.275 0  0.45 0.275 0  0.55 0.275 0  0.65 0.275 0  0.75 0.275 0  0.85 0.275 0  0.95 0.275 0  1.05 0.275 0  1.15 0.275 0  1.25 0.275 0  1.35 0.275 0  1.45 0.275 0  1.55 0.275 0  1.65 0.275 0  1.75 0.275 0  1.85 0.275 0  1.95 0.275 0  0.05 0.325 0  0.15 0.325 0  0.25 0.325 0  0.35 0.325 0  0.45 0.325 0  0.55 0.325 0  0.65 0.325 0  0.75 0.325 0  0.85 0.325 0  0.95 0.325 0  1.05 0.325 0  1.15 0.325 0  1.25 0.325 0  1.35 0.325 0  1.45 0.325 0  1.55 0.325 0  1.65 0.325 0  1.75 0.325 0  1.85 0.325 0  1.95 0.325 0  0.05 0.375 0  0.15 0.375 0  0.25 0.375 0  0.35 0.375 0  0.45 0.375 0  0.55 0.375 0  0.65 0.375 0  0.75 0.375 0  0.85 0.375 0  0.95 0.375 0  1.05 0.375 0  1.15 0.375 0  1.25 0.375 0  1.35 0.375 0  1.45 0.375 0  1.55 0.375 0  1.65 0.375 0  1.75 0.375 0  1.85 0.375 0  1.95 0.375 0  0.05 0.425 0  0.15 0.425 0  0.25 0.425 0  0.35 0.425 0  0.45 0.425 0  0.55 0.425 0  0.65 0.425 0  0.75 0.425 0  0.85 0.425 0  0.95 0.425 0  1.05 0.425 0  1.15 0.425 0  1.25 0.425 0  1.35 0.425 0  1.45 0.425 0  1.55 0.425 0  1.65 0.425 0  1.75 0.425 0  1.85 0.425 0  1.95 0.425 0  0.05 0.475 0  0.15 0.475 0  0.25 0.475 0  0.35 0.475 0  0.45 0.475 0  0.55 0.475 0  0.65 0.475 0  0.75 0.475 0  0.85 0.475 0  0.95 0.475 0  1.05 0.475 0  1.15 0.475 0  1.25 0.475 0  1.35 0.475 0  1.45 0.475 0  1.55 0.475 0  1.65 0.475 0  1.75 0.475 0  1.85 0.475 0  1.95 0.475 0  0.05 0.525 0  0.15 0.525 0  0.25 0.525 0  0.35 0.525 0  0.45 0.525 0  0.55 0.525 0  0.65 0.525 0  0.75 0.525 0  0.85 0.525 0  0.95 0.525 0  1.05 0.525 0  1.15 0.525 0  1.25 0.525 0  1.35 0.525 0  1.45 0.525 0  1.55 0.525 0  1.65 0.525 0  1.75 0.525 0  1.85 0.525 0  1.95 0.525 0  0.05 0.575 0  0.15 0.575 0  0.25 0.575 0  0.35 0.575 0  0.45 0.575 0  0.55 0.575 0  0.65 0.575 0  0.75 0.575 0  0.85 0.575 0  0.95 0.575 0  1.05 0.575 0  1.15 0.575 0  1.25 0.575 0  1.35 0.575 0  1.45 0.575 0  1.55 0.575 0  1.65 0.575 0  1.75 0.575 0  1.85 0.575 0  1.95 0.575 0  0.05 0.625 0  0.15 0.625 0  0.25 0.625 0  0.35 0.625 0  0.45 0.625 0  0.55 0.625 0  0.65 0.625 0  0.75 0.625 0  0.85 0.625 0  0.95 0.625 0  1.05 0.625 0  1.15 0.625 0  1.25 0.625 0  1.35 0.625 0  1.45 0.625 0  1.55 0.625 0  1.65 0.625 0  1.75 0.625 0  1.85 0.625 0  1.95 0.625 0  0.05 0.675 0  0.15 0.675 0  0.25 0.675 0  0.35 0.675 0  0.45 0.675 0  0.55 0.675 0  0.65 0.675 0  0.75 0.675 0  0.85 0.675 0  0.95 0.675 0  1.05 0.675 0  1.15 0.675 0  1.25 0.675 0  1.35 0.675 0  1.45 0.675 0  1.55 0.675 0  1.65 0.675 0  1.75 0.675 0  1.85 0.675 0  1.95 0.675 0  0.05 0.725 0  0.15 0.725 0  0.25 0.725 0  0.35 0.725 0  0.45 0.725 0  0.55 0.725 0  0.65 0.725 0  0.75 0.725 0  0.85 0.725 0  0.95 0.725 0  1.05 0.725 0  1.15 0.725 0  1.25 0.725 0  1.35 0.725 0  1.45 0.725 0  1.55 0.725 0  1.65 0.725 0  1.75 0.725 0  1.85 0.725 0  1.95 0.725 0  0.05 0.775 0  0.15 0.775 0  0.25 0.775 0  0.35 0.775 0  0.45 0.775 0  0.55 0.775 0  0.65 0.775 0  0.75 0.775 0  0.85 0.775 0  0.95 0.775 0  1.05 0.775 0  1.15 0.775 0  1.25 0.775 0  1.35 0.775 0  1.45 0.775 0  1.55 0.775 0  1.65 0.775 0  1.75 0.775 0  1.85 0.775 0  1.95 0.775 0  0.05 0.825 0  0.15 0.825 0  0.25 0.825 0  0.35 0.825 0  0.45 0.825 0  0.55 0.825 0  0.65 0.825 0  0.75 0.825 0  0.85 0.825 0  0.95 0.825 0  1.05 0.825 0  1.15 0.825 0  1.25 0.825 0  1.35 0.825 0  1.45 0.825 0  1.55 0.825 0  1.65 0.825 0  1.75 0.825 0  1.85 0.825 0  1.95 0.825 0  0.05 0.875 0  0.15 0.875 0  0.25 0.875 0  0.35 0.875 0  0.45 0.875 0  0.55 0.875 0  0.65 0.875 0  0.75 0.875 0  0.85 0.875 0  0.95 0.875 0  1.05 0.875 0  1.15 0.875 0  1.
[...]
<PointData  Vectors="f_25-0"> 
<DataArray  type="Float64"  Name="f_25-0"  NumberOfComponents="3" format="ascii">1.6058455803390539e-01 0.0000000000000000e+00 0.0000000000000000e+00  1.5255533013221073e-01 0.0000000000000000e+00 0.0000000000000000e+00  1.4452610223051604e-01 0.0000000000000000e+00 0.0000000000000000e+00  1.3649687432882110e-01 0.0000000000000000e+00 0.0000000000000000e+00  1.2846764642712605e-01 0.0000000000000000e+00 0.0000000000000000e+00  1.2043841852543105e-01 0.0000000000000000e+00 0.0000000000000000e+00  1.1240919062373590e-01 0.0000000000000000e+00 0.0000000000000000e+00  1.0437996272204071e-01 0.0000000000000000e+00 0.0000000000000000e+00  9.6350734820345341e-02 0.0000000000000000e+00 0.0000000000000000e+00  8.8321506918649970e-02 0.0000000000000000e+00 0.0000000000000000e+00  8.0292279016954779e-02 0.0000000000000000e+00 0.0000000000000000e+00  7.2263051115259588e-02 0.0000000000000000e+00 0.0000000000000000e+00  6.4233823213564356e-02 0.0000000000000000e+00 0.0000000000000000e+00  5.6204595311869034e-02 0.0000000000000000e+00 0.0000000000000000e+00  4.8175367410173621e-02 0.0000000000000000e+00 0.0000000000000000e+00  4.0146139508478160e-02 0.0000000000000000e+00 0.0000000000000000e+00  3.2116911606782643e-02 0.0000000000000000e+00 0.0000000000000000e+00  2.4087683705087071e-02 0.0000000000000000e+00 0.0000000000000000e+00  1.6058455803391450e-02 0.0000000000000000e+00 0.0000000000000000e+00  8.0292279016957648e-03 0.0000000000000000e+00 0.0000000000000000e+00  1.4262773898280560e-17 0.0000000000000000e+00 0.0000000000000000e+00  1.6058455803390512e-01 0.0000000000000000e+00 0.0000000000000000e+00  1.5712165106161360e-01 3.4869461440463221e-03 0.0000000000000000e+00  1.5084960579573894e-01 3.6293016005873222e-03 0.0000000000000000e+00  1.4463314459531651e-01 3.5314896766458974e-03 0.0000000000000000e+00  1.3867673033146144e-01 3.4666855184440001e-03 0.0000000000000000e+00  1.3290081789847089e-01 3.4283973147148502e-03 0.0000000000000000e+00  1.2722842486993272e-01 3.4083253549377045e-03 0.0000000000000000e+00  1.2160998577015217e-01 3.3984343253353282e-03 0.0000000000000000e+00  1.1601765995533339e-01 3.3939144854725463e-03 0.0000000000000000e+00  1.1043692118890049e-01 3.3920723032994874e-03 0.0000000000000000e+00  1.0486047237724938e-01 3.3915668076907016e-03 0.0000000000000000e+00  9.9284499633462642e-02 3.3918186847863587e-03 0.0000000000000000e+00  9.3706635122548121e-02 3.3926256173400643e-03 0.0000000000000000e+00  8.8125248311335572e-02 3.3938192695524561e-03 0.0000000000000000e+00  8.2540475681053799e-02 3.3946604678624062e-03 0.0000000000000000e+00  7.6959020827492355e-02 3.3924634227553373e-03 0.0000000000000000e+00  7.1408844850912548e-02 3.3781670622954570e-03 0.0000000000000000e+00  6.5980704395904741e-02 3.3280463914824067e-03 0.0000000000000000e+00  6.0957629633364430e-02 3.1405083204121827e-03 0.0000000000000000e+00  5.7296567287215917e-02 2.5691109348231554e-03 0.0000000000000000e+00  5.7751684774029102e-02 -1.7757805690990223e-03 0.0000000000000000e+00  1.6058455803390512e-01 0.0000000000000000e+00 0.0000000000000000e+00  1.5932748722064657e-01 5.8325219220440499e-03 0.0000000000000000e+00  1.5550221030669248e-01 6.2687020271089558e-03 0.0000000000000000e+00  1.5131380399190855e-01 6.0821321079743218e-03 0.0000000000000000e+00  1.4732756031351055e-01 5.8911365867624008e-03 0.0000000000000000e+00  1.4356217386370540e-01 5.7693814585005176e-03 0.0000000000000000e+00  1.3994206167983955e-01 5.7017660133674595e-03 0.0000000000000000e+00  1.3640359900297069e-01 5.6673964845658995e-03 0.0000000000000000e+00  1.3290670030828411e-01 5.6512514826285850e-03 0.0000000000000000e+00  1.2942908156442776e-01 5.6444831620493059e-03 0.0000000000000000e+00  1.2595906088375089e-01 5.6424812779846930e-03 0.0000000000000000e+00  1.2249046414953388e-01 5.6431417956501299e-03 0.0000000000000000e+00  1.1901976413534530e-01 5.6455650817041642e-03 0.0000000000000000e+00  1.1554538196419228e-01 5.6487563354919047e-03 0.0000000000000000e+00  1.1207016283278144e-01 5.6493201928098430e-03 0.0000000000000000e+00  1.0861078810169146e-01 5.6358487601696474e-03 0.0000000000000000e+00  1.0522390921020905e-01 5.5745960875122147e-03 0.0000000000000000e+00  1.0207660609043624e-01 5.3677269933193033e-03 0.0000000000000000e+00  9.9624837292268689e-02 4.7322245570132716e-03 0.0000000000000000e+00  9.9091698597795264e-02 2.6417881507450232e-03 0.0000000000000000e+00  1.0219145814150808e-01 -4.5559844204412945e-03 0.0000000000000000e+00  1.6058455803390512e-01 0.0000000000000000e+00 0.0000000000000000e+00  1.6043442448769951e-01 6.7810288576163717e-03 0.0000000000000000e+00  1.5883435831429193e-01 7.8342444150059903e-03 0.0000000000000000e+00  1.5665302331399106e-01 7.6587946314743563e-03 0.0000000000000000e+00  1.5451663496020651e-01 7.3651657774129551e-03 0.0000000000000000e+00  1.5254675767480291e-01 7.1550162255722555e-03 0.0000000000000000e+00  1.5071043915445420e-01 7.0320102879740899e-03 0.0000000000000000e+00  1.4895620519069069e-01 6.9673393151371416e-03 0.0000000000000000e+00  1.4724615701034477e-01 6.9361681220610283e-03 0.0000000000000000e+00  1.4555751441973008e-01 6.9227478871604726e-03 0.0000000000000000e+00  1.4387777639575169e-01 6.9185104925492931e-03 0.0000000000000000e+00  1.4220025270176148e-01 6.9193365989920277e-03 0.0000000000000000e+00  1.4052143501228001e-01 6.9231846192517122e-03 0.0000000000000000e+00  1.3884070197774068e-01 6.9274742030017442e-03 0.0000000000000000e+00  1.3716382496715632e-01 6.9243067670635462e-03 0.0000000000000000e+00  1.3551454507512967e-01 6.8892175624173406e-03 0.0000000000000000e+00  1.3396446963937214e-01 6.7531054380919470e-03 0.0000000000000000e+00  1.3270317776852447e-01 6.3299587693590193e-03 0.0000000000000000e+00  1.3218088083297233e-01 5.1199128703357955e-03 0.0000000000000000e+00  1.3325054680724557e-01 1.7277032964386223e-03 0.0000000000000000e+00  1.3630932784997513e-01 -6.7996395568404172e-03 0.0000000000000000e+00  1.6058455803390512e-01 0.0000000000000000e+00 0.0000000000000000e+00  1.6109735634863515e-01 6.8472646234690833e-03 0.0000000000000000e+00  1.6121193834352601e-01 8.3932020905566739e-03 0.0000000000000000e+00  1.6083396733315219e-01 8.3201233126393836e-03 0.0000000000000000e+00  1.6037314730430510e-01 7.9792175641855752e-03 0.0000000000000000e+00  1.5998638260527459e-01 7.7048324085216783e-03 0.0000000000000000e+00  1.5968600072936406e-01 7.5354223067402720e-03 0.0000000000000000e+00  1.5944613445943678e-01 7.4434563318622436e-03 0.0000000000000000e+00  1.5924125883539672e-01 7.3980702207569757e-03 0.0000000000000000e+00  1.5905421403862993e-01 7.3780761756925810e-03 0.0000000000000000e+00  1.5887501294096501e-01 7.3714301264636859e-03 0.0000000000000000e+00  1.5869822520940238e-01 7.3720640985468081e-03 0.0000000000000000e+00  1.5852128865810761e-01 7.3766219749294764e-03 0.0000000000000000e+00  1.5834469444209026e-01 7.3805183456443950e-03 0.0000000000000000e+00  1.5817554198596254e-01 7.3706220247702669e-03 0.0000000000000000e+00  1.5803798355862772e-01 7.3084846048353065e-03 0.0000000000000000e+00  1.5799751079111166e-01 7.0907332386979096e-03 0.0000000000000000e+00  1.5820789503969476e-01 6.4559137340350087e-03 0.0000000000000000e+00  1.5896571380012370e-01 4.7723259374043807e-03 0.0000000000000000e+00  1.6058635802256813e-01 6.3986841965956083e-04 0.0000000000000000e+00  1.6257370533752141e-01 -8.0155057573498729e-03 0.0000000000000000e+00  1.6058455803390512e-01 0.0000000000000000e+00 0.0000000000000000e+00  1.6153917909332810e-01 6.3484534442269716e-03 0.0000000000000000e+00  1.6291957306940466e-01 8.1171895440422057e-03 0.0000000000000000e+00  1.6404945553652164e-01 8.1680865177952561e-03 0.0000000000000000e+00  1.6504009621553040e-01 7.8354544563672048e-03 0.0000000000000000e+00  1.6601379620000423e-01 7.5341889078367674e-03 0.0000000000000000e+00  1.6701105900873670e-01 7.3386075430810554e-03 0.0000000000000000e+00  1.6803358545458491e-01 7.2292527363632432e-03 0.0000000000000000e+00  1.6907332552861487e-01 7.1741438182771396e-03 0.0000000000000000e+00  1.7012273441908718e-01 7.1493894977576154e-03 0.0000000000000000e+00  1.7117680856538023e-01 7.1408233483191697e-03 0.0000000000000000e+00  1.7223273739476758e-01 7.1410060435649000e-03 0.0000000000000000e+00  1.7328947360320429e-01 7.1454657604360346e-03 0.0000000000000000e+00  1.7434824308430344e-01 7.1477864498678406e-03 0.0000000000000000e+00  1.7541504950853162e-01 7.1303953319245611e-03 0.0000000000000000e+00  1.7650692887524366e-01 7.0440724786789144e-03 0.0000000000000000e+00  1.7766381214232665e-01 6.7621334926940687e-03 0.0000000000000000e+00  1.7896113265190525e-01 5.9835604871385740e-03 0.0000000000000000e+00  1.8047988624308331e-01 4.0538622675839707e-03 0.0000000000000000e+00  1.8206771878076858e-01 -2.2521800507389845e-04 0.0000000000000000e+00  1.8276290547193977e-01 -8.1970172744681939e-03 0.0000000000000000e+00  1.6058455803390512e-01 0.0000000000000000e+00 0.0000000000000000e+00  1.6184612118281896e-01 5.4618609456038008e-03 0.0000000000000000e+00  1.6414626855633846e-01 7.1920945047065435e-03 0.0000000000000000e+00  1.6646867441912599e-01 7.3343879120533334e-03 0.0000000000000000e+00  1.6865532525548885e-01 7.0484542140487301e-03 0.0000000000000000e+00  1.7075444600768888e-01 6.7589691997617576e-03 0.0000000000000000e+00  1.7281414856227117e-01 6.5624194151004053e-03 0.0000000000000000e+00  1.7485885897049347e-01 6.4496496271379570e-03 0.0000000000000000e+00  1.7689867312588692e-01 6.3917941325460125e-03 0.0000000000000000e+00  1.7893729757539892e-01 6.3653862827394549e-03 0.0000000000000000e+00  1.8097600006967696e-01 6.3559591949288261e-03 0.0000000000000000e+00  1.8301533921755109e-01 6.3556417352903100e-03 0.0000000000000000e+00  1.8505598550379604e-01 6.3593945957083620e-03 0.0000000000000000e+00  1.8709930551457168e-01 6.3597518496739929e-03 0.0000000000000000e+00  1.8914795989419417e-01 6.3369088901143109e-03 0.0000000000000000e+00  1.9120605661455681e-01 6.2372936876712885e-03 0.0000000000000000e+00  1.9327566080077094e-01 5.9282544328014466e-03 0.0000000000000000e+00  1.9533580165356110e-01 5.1119830279116145e-03 0.0000000000000000e+00  1.9725721140084637e-01 3.1994625337770817e-03 0.0000000000000000e+00  1.9855689147764380e-01 -7.3405817670753662e-04 0.0000000000000000e+00  1.9808591010522864e-01 -7.5118327912347387e-03 0.0000000000000000e+00  1.6058455803390512e-01 0.0000000000000000e+00 0.0000000000000000e+00  1.6205913652792941e-01 4.3052317628036766e-03 0.0000000000000000e+00  1.6501036643481978e-01 5.7841069557591192e-03 0.0000000000000000e+00  1.6822483110923261e-01 5.9613908262282590e-03 0.0000000000000000e+00  1.7133905086677165e-01 5.7420504006123621e-03 0.0000000000000000e+00  1.7431908997031137e-01 5.4971769174789438e-03 0.0000000000000000e+00  1.7720617273142261e-01 5.3246133238964936e-03 0.0000000000000000e+00  1.8004031020108935e-01 5.2234881182969678e-03 0.0000000000000000e+00  1.8284739238334580e-01 5.1708533682060225e-03 0.0000000000000000e+00  1.8564191400768407e-01 5.1465243295296670e-03 0.0000000000000000e+00  1.8843147912430613e-01 5.1376349598395441e-03 0.0000000000000000e+00  1.9122010299289025e-01 5.1369812443926213e-03 0.0000000000000000e+00  1.9401006912339822e-01 5.1397315671522902e-03 0.0000000000000000e+00  1.9680236765864001e-01 5.1385755743389864e-03 0.0000000000000000e+00  1.9959500834810720e-01 5.1145616597518010e-03 0.0000000000000000e+00  2.0237661885253883e-01 5.0177872785392239e-03 0.0000000000000000e+00  2.0510829286879592e-01 4.7285763204966838e-03 0.0000000000000000e+00  2.0767642771601097e-01 3.9908069737885979e-03 0.0000000000000000e+00  2.0978155864961215e-01 2.3356711135985690e-03 0.0000000000000000e+00  2.1073549120863605e-01 -8.8974541081373107e-04 0.0000000000000000e+00  2.0934620828021103e-01 -6.1659199174354529e-03 0.0000000000000000e+00  1.6058455803390512e-01 0.0000000000000000e+00 0.0000000000000000e+00  1.6219986224446403e-01 2.9649669134085041e-03 0.0000000000000000e+00  1.6558502401134004e-01 4.0357095761352230e-03 0.0000000000000000e+00  1.6941504686153175e-01 4.1909240683955015e-03 0.0000000000000000e+00  1.7318716934205200e-01 4.0449457076475051e-03 0.0000000000000000e+00  1.7679825902203763e-01 3.8689248768287799e-03 0.0000000000000000e+00  1.8027695080671644e-01 3.7413799385332784e-03 0.0000000000000000e+00  1.8367234550722958e-01 3.6654533682625307e-03 0.0000000000000000e+00  1.8702214188955690e-01 3.6255136852140629e-03 0.0000000000000000e+00  1.9034956448397228e-01 3.6068844378093086e-03 0.0000000000000000e+00  1.9366755009869355e-01 3.5999666000582687e-03 0.0000000000000000e+00  1.9698305652246031e-01 3.5992703239881210e-03 0.0000000000000000e+00  2.0029965294024119e-01 3.6009938588600831e-03 0.0000000000000000e+00  2.0361770523091394e-01 3.5993082748870418e-03 0.0000000000000000e+00  2.0693056883322605e-01 3.5793381362047858e-03 0.0000000000000000e+00  2.1021252286795547e-01 3.5026630454640631e-03 0.0000000000000000e+00  2.1338906752189613e-01 3.2793252108051702e-03 0.0000000000000000e+00  2.1627268698206717e-01 2.7236252691556061e-03 0.0000000000000000e+00  2.1844469858363350e-01 1.5145402947302636e-03 0.0000000000000000e+00  2.1910268706403324e-01 -7.5790416331246392e-04 0.0000000000000000e+00  2.1706873464012402e-01 -4.3540071354902397e-03 0.0000000000000000e+00  1.6058455803390512e-01 0.0000000000000000e+00 0.0000000000000000e+00  1.6228023476776998e-01 1.5100716520326559e-03 0.0000000000000000e+00  1.6591420128048850e-01 2.0705513560576039e-03 0.0000000000000000e+00  1.7010442087603905e-01 2.1598634534235528e-03 0.0000000000000000e+00  1.7426855680802850e-01 2.0874796565275287e-03 0.0000000000000000e+00  1.7825861673230176e-01 1.9957631983255350e-03 0.0000000000000000e+00  1.8209250323681070e-01 1.9281516107218562e-03 0.0000000000000000e+00  1.8582370099663933e-01 1.8875122318999273e-03 0.0000000000000000e+00  1.8949708424062814e-01 1.8659958957594975e-03 0.0000000000000000e+00  1.9314149686879190e-01 1.8559047919627402e-03 0.0000000000000000e+00  1.9677340198150228e-01 1.8521215455533241e-03 0.0000000000000000e+00  2.0040171823656266e-01 1.8516811012396473e-03 0.0000000000000000e+00  2.0403083392320595e-01 1.8524911975505080e-03 0.0000000000000000e+00  2.0766056852004014e-01 1.8513203600307394e-03 0.0000000000000000e+00  2.1128088352658592e-01 1.8399975694198098e-03 0.0000000000000000e+00  2.1485603387200819e-01 1.7976634000963323e-03 0.0000000000000000e+00  2.1828764887815841e-01 1.6761967822573832e-03 0.0000000000000000e+00  2.2134137676928362e-01 1.3784605059116047e-03 0.0000000000000000e+00  2.2352952029767997e-01 7.4230596351090579e-04 0.0000000000000000e+00  2.2399465155553538e-01 -4.2870147319532941e-04 0.0000000000000000e+00  2.2158219870326559e-01 -2.2479125914086628e-03 0.0000000000000000e+00  1.6058455803390512e-01 0.0000000000000000e+00 0.0000000000000000e+00  1.6230639082429771e-01 7.5715461281687097e-16 0.0000000000000000e+00  1.6602145153190062e-01 1.1321753439695343e-15 0.0000000000000000e+00  1.7033017977884582e-01 1.2333066025013743e-15 0.0000000000000000e+00  1.7462444988465656e-01 1.2001150274528267e-15 0.0000000000000000e+00  1.7874084792805747e-01 1.0223778086505503e-15 0.0000000000000000e+00  1.8269316627101054e-01 8.3992495462155063e-16 0.0000000000000000e+00  1.8653614850496891e-01 6.0389892814616258e-16 0.0000000000000000e+00  1.9031706283533154e-01 4.2354457544918942e-16 0.0000000000000000e+00  1.9406668645380062e-01 2.6810302315846487e-16 0.0000000000000000e+00  1.9780271247407574e-01 1.1427492011698825e-16 0.0000000000000000e+00  2.0153474622972004e-01 4.8143730468372165e-17 0.0000000000000000e+00  2.0526745631997054e-01 -5.3983327668633917e-17 0.0000000000000000e+00  2.0900044832056011e-01 -2.0626051362103476e-16 0.0000000000000000e+00  2.1272244528971138e-01 -5.4914352352368176e-16 0.0000000000000000e+00  2.1639411603959802e-01 -1.3143783952256386e-15 0.0000000000000000e+00  2.1990871977885582e-01 -2.9401613718342205e-15 0.0000000000000000e+00  2.2301594592850629e-01 -6.0617716150656123e-15 0.0000000000000000e+00  2.2520565794281683e-01 -1.1590214461677309e-14 0.0000000000000000e+00  2.2560435962374681e-01 -2.0675875757139553e-14 0.0000000000000000e+00  2.2306743583559338e-01 -3.4757990963859471e-14 0.0000000000000000e+00  1.6058455803390512e-01 0.0000000000000000e+00 0.0000000000000000e+00  1.6228023476776998e-01 -1.5100716520311669e-03 0.0000000000000000e+00  1.6591420128048853e-01 -2.0705513560553596e-03 0.0000000000000000e+00  1.7010442087603911e-01 -2.1598634534210994e-03 0.0000000000000000e+00  1.7426855680802861e-01 -2.0874796565251534e-03 0.0000000000000000e+00  1.7825861673230195e-01 -1.9957631983235015e-03 0.0000000000000000e+00  1.8209250323681095e-01 -1.9281516107202224e-03 0.0000000000000000e+00  1.8582370099663967e-01 -1.8875122318987589e-03 0.0000000000000000e+00  1.8949708424062850e-01 -1.8659958957586620e-03 0.0000000000000000e+00  1.9314149686879228e-01 -1.8559047919622278e-03 0.0000000000000000e+00  1.9677340198150278e-01 -1.8521215455531090e-03 0.0000000000000000e+00  2.0040171823656316e-01 -1.8516811012395877e-03 0.0000000000000000e+00  2.0403083392320651e-01 -1.8524911975506331e-03 0.0000000000000000e+00  2.0766056852004072e-01 -1.8513203600311456e-03 0.0000000000000000e+00  2.1128088352658644e-01 -1.8399975694208905e-03 0.0000000000000000e+00  2.1485603387200855e-01 -1.7976634000988945e-03 0.0000000000000000e+00  2.1828764887815844e-01 -1.6761967822631430e-03 0.0000000000000000e+00  2.2134137676928292e-01 -1.3784605059234886e-03 0.0000000000000000e+00  2.2352952029767811e-01 -7.4230596353372380e-04 0.0000000000000000e+00  2.2399465155553178e-01 4.2870147315448063e-04 0.0000000000000000e+00  2.2158219870325971e-01 2.2479125913397874e-03 0.0000000000000000e+00  1.6058455803390512e-01 0.0000000000000000e+00 0.0000000000000000e+00  1.6219986224446403e-01 -2.9649669134070135e-03 0.0000000000000000e+00  1.6558502401134007e-01 -4.0357095761330260e-03 0.0000000000000000e+00  1.6941504686153183e-01 -4.1909240683930928e-03 0.0000000000000000e+00  1.7318716934205219e-01 -4.0449457076451876e-03 0.0000000000000000e+00  1.7679825902203805e-01 -3.8689248768267984e-03 0.0000000000000000e+00  1.8027695080671696e-01 -3.7413799385317024e-03 0.0000000000000000e+00  1.8367234550723024e-01 -3.6654533682614022e-03 0.0000000000000000e+00  1.8702214188955762e-01 -3.6255136852132710e-03 0.0000000000000000e+00  1.9034956448397317e-01 -3.6068844378088177e-03 0.0000000000000000e+00  1.9366755009869449e-01 -3.5999666000580649e-03 0.0000000000000000e+00  1.9698305652246134e-01 -3.5992703239880884e-03 0.0000000000000000e+00  2.0029965294024230e-01 -3.6009938588602375e-03 0.0000000000000000e+00  2.0361770523091513e-01 -3.5993082748874451e-03 0.0000000000000000e+00  2.0693056883322711e-01 -3.5793381362057997e-03 0.0000000000000000e+00  2.1021252286795625e-01 -3.5026630454664653e-03 0.0000000000000000e+00  2.1338906752189624e-01 -3.2793252108105457e-03 0.0000000000000000e+00  2.1627268698206589e-01 -2.7236252691667938e-03 0.0000000000000000e+00  2.1844469858362989e-01 -1.5145402947519895e-03 0.0000000000000000e+00  2.1910268706402625e-01 7.5790416327308331e-04 0.0000000000000000e+00  2.1706873464011253e-01 4.3540071354233089e-03 0.0000000000000000e+00  1.6058455803390512e-01 0.0000000000000000e+00 0.0000000000000000e+00  1.6205913652792941e-01 -4.3052317628021787e-03 0.0000000000000000e+00  1.6501036643481981e-01 -5.7841069557569283e-03 0.0000000000000000e+00  1.6822483110923278e-01 -5.9613908262259024e-03 0.0000000000000000e+00  1.7133905086677204e-01 -5.7420504006101452e-03 0.0000000000000000e+00  1.7431908997031201e-01 -5.4971769174770669e-03 0.0000000000000000e+00  1.7720617273142347e-01 -5.3246133238950104e-03 0.0000000000000000e+00  1.8004031020109043e-01 -5.2234881182958853e-03 0.0000000000000000e+00  1.8284739238334696e-01 -5.1708533682053026e-03 0.0000000000000000e+00  1.8564191400768540e-01 -5.1465243295292402e-03 0.0000000000000000e+00  1.88431479