<?xml version="1.0"?>
<VTKFile type="UnstructuredGrid"  version="0.1"  >
<UnstructuredGrid>
<Piece  NumberOfPoints="121" NumberOfCells="200">
<Points>
<DataArray  type="Float64"  NumberOfComponents="3"  format="ascii">0.012 0 0  0.2108000000000001 0 0  0.4096000000000001 0 0  0.6084000000000001 0 0  0.8072000000000003 0 0  1.006 0 0  1.2048 0 0  1.4036 0 0  1.6024 0 0  1.8012 0 0  2 0 0  0.012 0.1 0  0.2108000000000001 0.1 0  0.4096000000000001 0.1 0  0.6084000000000001 0.1 0  0.8072000000000003 0.1 0  1.006 0.1 0  1.2048 0.1 0  1.4036 0.1 0  1.6024 0.1 0  1.8012 0.1 0  2 0.1 0  0.012 0.2 0  0.2108000000000001 0.2 0  0.4096000000000001 0.2 0  0.6084000000000001 0.2 0  0.8072000000000003 0.2 0  1.006 0.2 0  1.2048 0.2 0  1.4036 0.2 0  1.6024 0.2 0  1.8012 0.2 0  2 0.2 0  0.012 0.3 0  0.2108000000000001 0.3 0  0.4096000000000001 0.3 0  0.6084000000000001 0.3 0  0.8072000000000003 0.3 0  1.006 0.3 0  1.2048 0.3 0  1.4036 0.3 0  1.6024 0.3 0  1.8012 0.3 0  2 0.3 0  0.012 0.4 0  0.2108000000000001 0.4 0  0.4096000000000001 0.4 0  0.6084000000000001 0.4 0  0.8072000000000003 0.4 0  1.006 0.4 0  1.2048 0.4 0  1.4036 0.4 0  1.6024 0.4 0  1.8012 0.4 0  2 0.4 0  0.012 0.5 0  0.2108000000000001 0.5 0  0.4096000000000001 0.5 0  0.6084000000000001 0.5 0  0.8072000000000003 0.5 0  1.006 0.5 0  1.2048 0.5 0  1.4036 0.5 0  1.6024 0.5 0  1.8012 0.5 0  2 0.5 0  0.012 0.6 0  0.2108000000000001 0.6 0  0.4096000000000001 0.6 0  0.6084000000000001 0.6 0  0.8072000000000003 0.6 0  1.006 0.6 0  1.2048 0.6 0  1.4036 0.6 0  1.6024 0.6 0  1.8012 0.6 0  2 0.6 0  0.012 0.7 0  0.2108000000000001 0.7 0  0.4096000000000001 0.7 0  0.6084000000000001 0.7 0  0.8072000000000003 0.7 0  1.006 0.7 0  1.2048 0.7 0  1.4036 0.7 0  1.6024 0.7 0  1.8012 0.7 0  2 0.7 0  0.012 0.8 0  0.2108000000000001 0.8 0  0.4096000000000001 0.8 0  0.6084000000000001 0.8 0  0.8071999999999999 0.8 0  1.006 0.8 0  1.2048 0.8 0  1.4036 0.8 0  1.6024 0.8 0  1.8012 0.8 0  2 0.8 0  0.012 0.9 0  0.2108000000000001 0.9 0  0.4096000000000001 0.9 0  0.6084000000000001 0.9 0  0.8071999999999999 0.9 0  1.006 0.9 0  1.2048 0.9 0  1.4036 0.9 0  1.6024 0.9 0  1.8012 0.9 0  2 0.9 0  0.012 1 0  0.2108000000000001 1 0  0.4096000000000001 1 0  0.6084000000000001 1 0  0.8071999999999999 1 0  1.006 1 0  1.2048 1 0  1.4036 1 0  1.6024 1 0  1.8012 1 0  2 1 0  </DataArray>
</Points>
<Cells>
<DataArray  type="UInt32"  Name="connectivity"  format="ascii">0 1 12  0 11 12  1 2 13  1 12 13  2 3 14  2 13 14  3 4 15  3 14 15  4 5 16  4 15 16  5 6 17  5 16 17  6 7 18  6 17 18  7 8 19  7 18 19  8 9 20  8 19 20  9 10 21  9 20 21  11 12 23  11 22 23  12 13 24  12 23 24  13 14 25  13 24 25  14 15 26  14 25 26  15 16 27  15 26 27  16 17 28  16 27 28  17 18 29  17 28 29  18 19 30  18 29 30  19 20 31  19 30 31  20 21 32  20 31 32  22 23 34  22 33 34  23 24 35  23 34 35  24 25 36  24 35 36  25 26 37  25 36 37  26 27 38  26 37 38  27 28 39  27 38 39  28 29 40  28 39 40  29 30 41  29 40 41  30 31 42  30 41 42  31 32 43  31 42 43  33 34 45  33 44 45  34 35 46  34 45 46  35 36 47  35 46 47  36 37 48  36 47 48  37 38 49  37 48 49  38 39 50  38 49 50  39 40 51  39 50 51  40 41 52  40 51 52  41 42 53  41 52 53  42 43 54  42 53 54  44 45 56  44 55 56  45 46 57  45 56 57  46 47 58  46 57 58  47 48 59  47 58 59  48 49 60  48 59 60  49 50 61  49 60 61  50 51 62  50 61 62  51 52 63  51 62 63  52 53 64  52 63 64  53 54 65  53 64 65  55 56 67  55 66 67  56 57 68  56 67 68  57 58 69  57 68 69  58 59 70  58 69 70  59 60 71  59 70 71  60 61 72  60 71 72  61 62 73  61 72 73  62 63 74  62 73 74  63 64 75  63 74 75  64 65 76  64 75 76  66 67 78  66 77 78  67 68 79  67 78 79  68 69 80  68 79 80  69 70 81  69 80 81  70 71 82  70 81 82  71 72 83  71 82 83  72 73 84  72 83 84  73 74 85  73 84 85  74 75 86  74 85 86  75 76 87  75 86 87  77 78 89  77 88 89  78 79 90  78 89 90  79 80 91  79 90 91  80 81 92  80 91 92  81 82 93  81 92 93  82 83 94  82 93 94  83 84 95  83 94 95  84 85 96  84 95 96  85 86 97  85 96 97  86 87 98  86 97 98  88 89 100  88 99 100  89 90 101  89 100 101  90 91 102  90 101 102  91 92 103  91 102 103  92 93 104  92 103 104  93 94 105  93 104 105  94 95 106  94 105 106  95 96 107  95 106 107  96 97 108  96 107 108  97 98 109  97 108 109  99 100 111  99 110 111  100 101 112  100 111 112  101 102 113  101 112 113  102 103 114  102 113 114  103 104 115  103 114 115  104 105 116  104 115 116  105 106 117  105 116 117  106 107 118  106 117 118  107 108 119  107 118 119  108 109 120  108 119 120  </DataArray>
<DataArray  type="UInt32"  Name="offsets"  format="ascii">3 6 9 12 15 18 21 24 27 30 33 36 39 42 45 48 51 54 57 60 63 66 69 72 75 78 81 84 87 90 93 96 99 102 105 108 111 114 117 120 123 126 129 132 135 138 141 144 147 150 153 156 159 162 165 168 171 174 177 180 183 186 189 192 195 198 201 204 207 210 213 216 219 222 225 228 231 234 237 240 243 246 249 252 255 258 261 264 267 270 273 276 279 282 285 288 291 294 297 300 303 306 309 312 315 318 321 324 327 330 333 336 339 342 345 348 351 354 357 360 363 366 369 372 375 378 381 384 387 390 393 396 399 402 405 408 411 414 417 420 423 426 429 432 435 438 441 444 447 450 453 456 459 462 465 468 471 474 477 480 483 486 489 492 495 498 501 504 507 510 513 516 519 522 525 528 531 534 537 540 543 546 549 552 555 558 561 564 567 570 573 576 579 582 585 588 591 594 597 600 </DataArray>
<DataArray  type="UInt8"  Name="types"  format="ascii">5 5 5 5 5 5 5 5 5 5 5 5 5 5 5 5 5 5 5 5 5 5 5 5 5 5 5 5 5 5 5 5 5 5 5 5 5 5 5 5 5 5 5 5 5 5 5 5 5 5 5 5 5 5 5 5 5 5 5 5 5 5 5 5 5 5 5 5 5 5 5 5 5 5 5 5 5 5 5 5 5 5 5 5 5 5 5 5 5 5 5 5 5 5 5 5 5 5 5 5 5 5 5 5 5 5 5 5 5 5 5 5 5 5 5 5 5 5 5 5 5 5 5 5 5 5 5 5 5 5 5 5 5 5 5 5 5 5 5 5 5 5 5 5 5 5 5 5 5 5 5 5 5 5 5 5 5 5 5 5 5 5 5 5 5 5 5 5 5 5 5 5 5 5 5 5 5 5 5 5 5 5 5 5 5 5 5 5 5 5 5 5 5 5 5 5 5 5 5 5 </DataArray>
</Cells>
<PointData  Vectors="f_24-0"> 
<DataArray  type="Float64"  Name="f_24-0"  NumberOfComponents="3" format="ascii">4.0000000000000070e-03 0.0000000000000000e+00 0.0000000000000000e+00  3.6000000000000190e-03 0.0000000000000000e+00 0.0000000000000000e+00  3.2000000000000257e-03 0.0000000000000000e+00 0.0000000000000000e+00  2.8000000000000286e-03 0.0000000000000000e+00 0.0000000000000000e+00  2.4000000000000301e-03 0.0000000000000000e+00 0.0000000000000000e+00  2.0000000000000295e-03 0.0000000000000000e+00 0.0000000000000000e+00  1.6000000000000283e-03 0.0000000000000000e+00 0.0000000000000000e+00  1.2000000000000222e-03 0.0000000000000000e+00 0.0000000000000000e+00  8.0000000000001554e-04 0.0000000000000000e+00 0.0000000000000000e+00  4.0000000000000772e-04 0.0000000000000000e+00 0.0000000000000000e+00  1.8873791418628009e-19 0.0000000000000000e+00 0.0000000000000000e+00  1.0000000000000001e-01 0.0000000000000000e+00 0.0000000000000000e+00  8.0230729737190198e-02 1.2656496094351823e-02 0.0000000000000000e+00  5.8268747671233495e-02 3.1116554233313770e-03 0.0000000000000000e+00  5.4810573094523897e-02 7.4463542372623162e-04 0.0000000000000000e+00  5.3476329486341047e-02 2.0636967402632580e-04 0.0000000000000000e+00  5.3271907185013102e-02 1.5019318610825296e-04 0.0000000000000000e+00  5.3070245973662257e-02 1.4474278661003899e-04 0.0000000000000000e+00  5.2868267473471321e-02 1.5494362001820594e-04 0.0000000000000000e+00  5.2643680282008491e-02 1.4226458452398083e-04 0.0000000000000000e+00  5.2524454352093575e-02 1.5136487474163047e-04 0.0000000000000000e+00  5.2666641026861673e-02 -4.4669299355863478e-04 0.0000000000000000e+00  1.0000000000000001e-01 0.0000000000000000e+00 0.0000000000000000e+00  1.0659313024514316e-01 2.2203038147432474e-02 0.0000000000000000e+00  9.7430090054863569e-02 7.1148620060199810e-03 0.0000000000000000e+00  9.4274970354563309e-02 1.7294475935993462e-03 0.0000000000000000e+00  9.3182364871002732e-02 4.1014600262467875e-04 0.0000000000000000e+00  9.3101923936686218e-02 2.1489019129105263e-04 0.0000000000000000e+00  9.3045957308603031e-02 2.0073252859495133e-04 0.0000000000000000e+00  9.3004323479956824e-02 2.1725666095855073e-04 0.0000000000000000e+00  9.2963783715750523e-02 2.1669048061614336e-04 0.0000000000000000e+00  9.3003727166231884e-02 8.3349665086025754e-05 0.0000000000000000e+00  9.3310901766517337e-02 -8.3647324183645658e-04 0.0000000000000000e+00  1.0000000000000001e-01 0.0000000000000000e+00 0.0000000000000000e+00  1.1396941206339112e-01 2.0220424854140540e-02 0.0000000000000000e+00  1.2049981249708296e-01 8.0914843394202934e-03 0.0000000000000000e+00  1.2124064955871783e-01 2.0728271536319476e-03 0.0000000000000000e+00  1.2134482204289267e-01 4.8970008622077588e-04 0.0000000000000000e+00  1.2145291223317048e-01 2.0292298286813312e-04 0.0000000000000000e+00  1.2152570457643982e-01 1.8767681113650395e-04 0.0000000000000000e+00  1.2160420325174617e-01 2.0818846791454673e-04 0.0000000000000000e+00  1.2171275957599062e-01 1.9776481871636620e-04 0.0000000000000000e+00  1.2180675279345686e-01 -2.1341794861295650e-05 0.0000000000000000e+00  1.2216858545849588e-01 -1.0491406502636687e-03 0.0000000000000000e+00  1.0000000000000001e-01 0.0000000000000000e+00 0.0000000000000000e+00  1.1635196633144716e-01 1.1659221463183539e-02 0.0000000000000000e+00  1.3180579099503675e-01 5.1729663395028375e-03 0.0000000000000000e+00  1.3675191639894374e-01 1.3826612285044125e-03 0.0000000000000000e+00  1.3807414803251791e-01 3.1748073883085547e-04 0.0000000000000000e+00  1.3839472284131363e-01 1.2439027154228309e-04 0.0000000000000000e+00  1.3857116319343915e-01 1.2557489224367712e-04 0.0000000000000000e+00  1.3872687803678646e-01 1.4465023970544001e-04 0.0000000000000000e+00  1.3892963825535612e-01 1.2201567789614775e-04 0.0000000000000000e+00  1.3902558016024386e-01 -1.2128165167101815e-04 0.0000000000000000e+00  1.3939182202482150e-01 -1.0668464425227452e-03 0.0000000000000000e+00  1.0000000000000001e-01 0.0000000000000000e+00 0.0000000000000000e+00  1.1688370299043144e-01 1.5041440243796457e-04 0.0000000000000000e+00  1.3508043926978350e-01 -1.9307576940577302e-04 0.0000000000000000e+00  1.4183445149384566e-01 -1.0665413462133892e-04 0.0000000000000000e+00  1.4360983319552481e-01 -3.8402198852829008e-05 0.0000000000000000e+00  1.4403310454793117e-01 5.6350149009040074e-06 0.0000000000000000e+00  1.4425366903535547e-01 3.3977350706657302e-05 0.0000000000000000e+00  1.4444324203183265e-01 5.0001748453511202e-05 0.0000000000000000e+00  1.4468216679189239e-01 1.9803747196290433e-05 0.0000000000000000e+00  1.4475728959620282e-01 -2.0054723456112641e-04 0.0000000000000000e+00  1.4509372554984146e-01 -9.2554401292362001e-04 0.0000000000000000e+00  1.0000000000000001e-01 0.0000000000000000e+00 0.0000000000000000e+00  1.1610725023296802e-01 -1.1339425756382193e-02 0.0000000000000000e+00  1.3171826094015510e-01 -5.5902787207957674e-03 0.0000000000000000e+00  1.3685369385570811e-01 -1.5743923382893468e-03 0.0000000000000000e+00  1.3808680334535733e-01 -3.7867584352046537e-04 0.0000000000000000e+00  1.3840931123403863e-01 -1.1373906694446747e-04 0.0000000000000000e+00  1.3860186536711841e-01 -6.3130521791464515e-05 0.0000000000000000e+00  1.3878120001382774e-01 -5.0972702318287741e-05 0.0000000000000000e+00  1.3899846584558023e-01 -8.2295257850216951e-05 0.0000000000000000e+00  1.3904100238689798e-01 -2.5287085713648487e-04 0.0000000000000000e+00  1.3931290145420419e-01 -6.9094761922357782e-04 0.0000000000000000e+00  1.0000000000000001e-01 0.0000000000000000e+00 0.0000000000000000e+00  1.1327751940070897e-01 -2.0758243836615464e-02 0.0000000000000000e+00  1.2062213553003541e-01 -8.4792296464551858e-03 0.0000000000000000e+00  1.2132930728558515e-01 -2.2001840858884049e-03 0.0000000000000000e+00  1.2139558850424657e-01 -5.2782882012497893e-04 0.0000000000000000e+00  1.2147108018493132e-01 -1.9082848244914775e-04 0.0000000000000000e+00  1.2157906423983660e-01 -1.4038288131770906e-04 0.0000000000000000e+00  1.2170078217822994e-01 -1.3316263201862104e-04 0.0000000000000000e+00  1.2184072749910062e-01 -1.5957703975613585e-04 0.0000000000000000e+00  1.2183510611797178e-01 -2.7252825604503919e-04 0.0000000000000000e+00  1.2200214696904177e-01 -4.3762156607321393e-04 0.0000000000000000e+00  1.0000000000000001e-01 0.0000000000000000e+00 0.0000000000000000e+00  1.0510660743972891e-01 -2.3114464090422317e-02 0.0000000000000000e+00  9.8312631583157964e-02 -7.0949122640434565e-03 0.0000000000000000e+00  9.4171110981014716e-02 -1.7494319613048312e-03 0.0000000000000000e+00  9.3284097096739543e-02 -4.3101805724037642e-04 0.0000000000000000e+00  9.3116921053185919e-02 -2.0375696634608557e-04 0.0000000000000000e+00  9.3104315259258219e-02 -1.7373620429909906e-04 0.0000000000000000e+00  9.3116151346835929e-02 -1.7085972050052148e-04 0.0000000000000000e+00  9.3126671670243327e-02 -1.8826120033348163e-04 0.0000000000000000e+00  9.3042761712398864e-02 -2.4884672747563501e-04 0.0000000000000000e+00  9.3060461094383443e-02 -2.2832256676551312e-04 0.0000000000000000e+00  1.0000000000000001e-01 0.0000000000000000e+00 0.0000000000000000e+00  7.9472261201102928e-02 -1.1253249573926915e-02 0.0000000000000000e+00  5.9671896805393553e-02 -3.0969127386012746e-03 0.0000000000000000e+00  5.4530231760290954e-02 -6.7380449818780889e-04 0.0000000000000000e+00  5.3595112864116182e-02 -2.0322488341601724e-04 0.0000000000000000e+00  5.3278471234704396e-02 -1.5059961806431336e-04 0.0000000000000000e+00  5.3110775187595334e-02 -1.3579882820848122e-04 0.0000000000000000e+00  5.2952113884257697e-02 -1.3674661640511679e-04 0.0000000000000000e+00  5.2784243217143922e-02 -1.4305443944665351e-04 0.0000000000000000e+00  5.2572245384816856e-02 -1.6228001081088647e-04 0.0000000000000000e+00  5.2398201592024116e-02 -9.2052004163664875e-05 0.0000000000000000e+00  4.0000000000000079e-03 0.0000000000000000e+00 0.0000000000000000e+00  3.6000000000000159e-03 0.0000000000000000e+00 0.0000000000000000e+00  3.2000000000000179e-03 0.0000000000000000e+00 0.0000000000000000e+00  2.8000000000000143e-03 0.0000000000000000e+00 0.0000000000000000e+00  2.4000000000000119e-03 0.0000000000000000e+00 0.0000000000000000e+00  2.0000000000000096e-03 0.0000000000000000e+00 0.0000000000000000e+00  1.6000000000000059e-03 0.0000000000000000e+00 0.0000000000000000e+00  1.2000000000000012e-03 0.0000000000000000e+00 0.0000000000000000e+00  7.9999999999999906e-04 0.0000000000000000e+00 0.0000000000000000e+00  3.9999999999999763e-04 0.0000000000000000e+00 0.0000000000000000e+00  -1.3322676295501858e-19 0.0000000000000000e+00 0.0000000000000000e+00  </DataArray> 
</PointData> 
</Piece>
</UnstructuredGrid>
</VTKFile>