<?xml version="1.0"?>
<VTKFile type="UnstructuredGrid"  version="0.1"  >
<UnstructuredGrid>
<Piece  NumberOfPoints="2601" NumberOfCells="5000">
<Points>
<DataArray  type="Float64"  NumberOfComponents="3"  format="ascii">0 0 0  0.04 0 0  0.08 0 0  0.12 0 0  0.16 0 0  0.2 0 0  0.24 0 0  0.28 0 0  0.32 0 0  0.36 0 0  0.4 0 0  0.44 0 0  0.48 0 0  0.52 0 0  0.5600000000000001 0 0  0.6 0 0  0.64 0 0  0.68 0 0  0.72 0 0  0.76 0 0  0.8 0 0  0.84 0 0  0.88 0 0  0.92 0 0  0.96 0 0  1 0 0  1.04 0 0  1.08 0 0  1.12 0 0  1.16 0 0  1.2 0 0  1.24 0 0  1.28 0 0  1.32 0 0  1.36 0 0  1.4 0 0  1.44 0 0  1.48 0 0  1.52 0 0  1.56 0 0  1.6 0 0  1.64 0 0  1.68 0 0  1.72 0 0  1.76 0 0  1.8 0 0  1.84 0 0  1.88 0 0  1.92 0 0  1.96 0 0  2 0 0  0 0.02 0  0.04 0.02 0  0.08 0.02 0  0.12 0.02 0  0.16 0.02 0  0.2 0.02 0  0.24 0.02 0  0.28 0.02 0  0.32 0.02 0  0.36 0.02 0  0.4 0.02 0  0.44 0.02 0  0.48 0.02 0  0.52 0.02 0  0.5600000000000001 0.02 0  0.6 0.02 0  0.64 0.02 0  0.68 0.02 0  0.72 0.02 0  0.76 0.02 0  0.8 0.02 0  0.84 0.02 0  0.88 0.02 0  0.92 0.02 0  0.96 0.02 0  1 0.02 0  1.04 0.02 0  1.08 0.02 0  1.12 0.02 0  1.16 0.02 0  1.2 0.02 0  1.24 0.02 0  1.28 0.02 0  1.32 0.02 0  1.36 0.02 0  1.4 0.02 0  1.44 0.02 0  1.48 0.02 0  1.52 0.02 0  1.56 0.02 0  1.6 0.02 0  1.64 0.02 0  1.68 0.02 0  1.72 0.02 0  1.76 0.02 0  1.8 0.02 0  1.84 0.02 0  1.88 0.02 0  1.92 0.02 0  1.96 0.02 0  2 0.02 0  0 0.04 0  0.04 0.04 0  0.08 0.04 0  0.12 0.04 0  0.16 0.04 0  0.2 0.04 0  0.24 0.04 0  0.28 0.04 0  0.32 0.04 0  0.36 0.04 0  0.4 0.04 0  0.44 0.04 0  0.48 0.04 0  0.52 0.04 0  0.5600000000000001 0.04 0  0.6 0.04 0  0.64 0.04 0  0.68 0.04 0  0.72 0.04 0  0.76 0.04 0  0.8 0.04 0  0.84 0.04 0  0.88 0.04 0  0.92 0.04 0  0.96 0.04 0  1 0.04 0  1.04 0.04 0  1.08 0.04 0  1.12 0.04 0  1.16 0.04 0  1.2 0.04 0  1.24 0.04 0  1.28 0.04 0  1.32 0.04 0  1.36 0.04 0  1.4 0.04 0  1.44 0.04 0  1.48 0.04 0  1.52 0.04 0  1.56 0.04 0  1.6 0.04 0  1.64 0.04 0  1.68 0.04 0  1.72 0.04 0  1.76 0.04 0  1.8 0.04 0  1.84 0.04 0  1.88 0.04 0  1.92 0.04 0  1.96 0.04 0  2 0.04 0  0 0.06 0  0.04 0.06 0  0.08 0.06 0  0.12 0.06 0  0.16 0.06 0  0.2 0.06 0  0.24 0.06 0  0.28 0.06 0  0.32 0.06 0  0.36 0.06 0  0.4 0.06 0  0.44 0.06 0  0.48 0.06 0  0.52 0.06 0  0.5600000000000001 0.06 0  0.6 0.06 0  0.64 0.06 0  0.68 0.06 0  0.72 0.06 0  0.76 0.06 0  0.8 0.06 0  0.84 0.06 0  0.88 0.06 0  0.92 0.06 0  0.96 0.06 0  1 0.06 0  1.04 0.06 0  1.08 0.06 0  1.12 0.06 0  1.16 0.06 0  1.2 0.06 0  1.24 0.06 0  1.28 0.06 0  1.32 0.06 0  1.36 0.06 0  1.4 0.06 0  1.44 0.06 0  1.48 0.06 0  1.52 0.06 0  1.56 0.06 0  1.6 0.06 0  1.64 0.06 0  1.68 0.06 0  1.72 0.06 0  1.76 0.06 0  1.8 0.06 0  1.84 0.06 0  1.88 0.06 0  1.92 0.06 0  1.96 0.06 0  2 0.06 0  0 0.08 0  0.04 0.08 0  0.08 0.08 0  0.12 0.08 0  0.16 0.08 0  0.2 0.08 0  0.24 0.08 0  0.28 0.08 0  0.32 0.08 0  0.36 0.08 0  0.4 0.08 0  0.44 0.08 0  0.48 0.08 0  0.52 0.08 0  0.5600000000000001 0.08 0  0.6 0.08 0  0.64 0.08 0  0.68 0.08 0  0.72 0.08 0  0.76 0.08 0  0.8 0.08 0  0.84 0.08 0  0.88 0.08 0  0.92 0.08 0  0.96 0.08 0  1 0.08 0  1.04 0.08 0  1.08 0.08 0  1.12 0.08 0  1.16 0.08 0  1.2 0.08 0  1.24 0.08 0  1.28 0.08 0  1.32 0.08 0  1.36 0.08 0  1.4 0.08 0  1.44 0.08 0  1.48 0.08 0  1.52 0.08 0  1.56 0.08 0  1.6 0.08 0  1.64 0.08 0  1.68 0.08 0  1.72 0.08 0  1.76 0.08 0  1.8 0.08 0  1.84 0.08 0  1.88 0.08 0  1.92 0.08 0  1.96 0.08 0  2 0.08 0  0 0.1 0  0.04 0.1 0  0.08 0.1 0  0.12 0.1 0  0.16 0.1 0  0.2 0.1 0  0.24 0.1 0  0.28 0.1 0  0.32 0.1 0  0.36 0.1 0  0.4 0.1 0  0.44 0.1 0  0.48 0.1 0  0.52 0.1 0  0.5600000000000001 0.1 0  0.6 0.1 0  0.64 0.1 0  0.68 0.1 0  0.72 0.1 0  0.76 0.1 0  0.8 0.1 0  0.84 0.1 0  0.88 0.1 0  0.92 0.1 0  0.96 0.1 0  1 0.1 0  1.04 0.1 0  1.08 0.1 0  1.12 0.1 0  1.16 0.1 0  1.2 0.1 0  1.24 0.1 0  1.28 0.1 0  1.32 0.1 0  1.36 0.1 0  1.4 0.1 0  1.44 0.1 0  1.48 0.1 0  1.52 0.1 0  1.56 0.1 0  1.6 0.1 0  1.64 0.1 0  1.68 0.1 0  1.72 0.1 0  1.76 0.1 0  1.8 0.1 0  1.84 0.1 0  1.88 0.1 0  1.92 0.1 0  1.96 0.1 0  2 0.1 0  0 0.12 0  0.04 0.12 0  0.08 0.12 0  0.12 0.12 0  0.16 0.12 0  0.2 0.12 0  0.24 0.12 0  0.28 0.12 0  0.32 0.12 0  0.36 0.12 0  0.4 0.12 0  0.44 0.12 0  0.48 0.12 0  0.52 0.12 0  0.5600000000000001 0.12 0  0.6 0.12 0  0.64 0.12 0  0.68 0.12 0  0.72 0.12 0  0.76 0.12 0  0.8 0.12 0  0.84 0.12 0  0.88 0.12 0  0.92 0.12 0  0.96 0.12 0  1 0.12 0  1.04 0.12 0  1.08 0.12 0  1.12 0.12 0  1.16 0.12 0  1.2 0.12 0  1.24 0.12 0  1.28 0.12 0  1.32 0.12 0  1.36 0.12 0  1.4 0.12 0  1.44 0.12 0  1.48 0.12 0  1.52 0.12 0  1.56 0.12 0  1.6 0.12 0  1.64 0.12 0  1.68 0.12 0  1.72 0.12 0  1.76 0.12 0  1.8 0.12 0  1.84 0.12 0  1.88 0.12 0  1.92 0.12 0  1.96 0.12 0  2 0.12 0  0 0.14 0  0.04 0.14 0  0.08 0.14 0  0.12 0.14 0  0.16 0.14 0  0.2 0.14 0  0.24 0.14 0  0.28 0.14 0  0.32 0.14 0  0.36 0.14 0  0.4 0.14 0  0.44 0.14 0  0.48 0.14 0  0.52 0.14 0  0.5600000000000001 0.14 0  0.6 0.14 0  0.64 0.14 0  0.68 0.14 0  0.72 0.14 0  0.76 0.14 0  0.8 0.14 0  0.84 0.14 0  0.88 0.14 0  0.92 0.14 0  0.96 0.14 0  1 0.14 0  1.04 0.14 0  1.08 0.14 0  1.12 0.14 0  1.16 0.14 0  1.2 0.14 0  1.24 0.14 0  1.28 0.14 0  1.32 0.14 0  1.36 0.14 0  1.4 0.14 0  1.44 0.14 0  1.48 0.14 0  1.52 0.14 0  1.56 0.14 0  1.6 0.14 0  1.64 0.14 0  1.68 0.14 0  1.72 0.14 0  1.76 0.14 0  1.8 0.14 0  1.84 0.14 0  1.88 0.14 0  1.92 0.14 0  1.96 0.14 0  2 0.14 0  0 0.16 0  0.04 0.16 0  0.08 0.16 0  0.12 0.16 0  0.16 0.16 0  0.2 0.16 0  0.24 0.16 0  0.28 0.16 0  0.32 0.16 0  0.36 0.16 0  0.4 0.16 0  0.44 0.16 0  0.48 0.16 0  0.52 0.16 0  0.5600000000000001 0.16 0  0.6 0.16 0  0.64 0.16 0  0.68 0.16 0  0.72 0.16 0  0.76 0.16 0  0.8 0.16 0  0.84 0.16 0  0.88 0.16 0  0.92 0.16 0  0.96 0.16 0  1 0.16 0  1.04 0.16 0  1.08 0.16 0  1.12 0.16 0  1.16 0.16 0  1.2 0.16 0  1.24 0.16 0  1.28 0.16 0  1.32 0.16 0  1.36 0.16 0  1.4 0.16 0  1.44 0.16 0  1.48 0.16 0  1.52 0.16 0  1.56 0.16 0  1.6 0.16 0  1.64 0.16 0  1.68 0.16 0  1.72 0.16 0  1.76 0.16 0  1.8 0.16 0  1.84 0.16 0  1.88 0.16 0  1.92 0.16 0  1.96 0.16 0  2 0.16 0  0 0.18 0  0.04 0.18 0  0.08 0.18 0  0.12 0.18 0  0.16 0.18 0  0.2 0.18 0  0.24 0.18 0  0.28 0.18 0  0.32 0.18 0  0.36 0.18 0  0.4 0.18 0  0.44 0.18 0  0.48 0.18 0  0.52 0.18 0  0.5600000000000001 0.18 0  0.6 0.18 0  0.64 0.18 0  0.68 0.18 0  0.72 0.18 0  0.76 0.18 0  0.8 0.18 0  0.84 0.18 0  0.88 0.18 0  0.92 0.18 0  0.96 0.18 0  1 0.18 0  1.04 0.18 0  1.08 0.18 0  1.12 0.18 0  1.16 0.18 0  1.2 0.18 0  1.24 0.18 0  1.28 0.18 0  1.32 0.18 0  1.36 0.18 0  1.4 0.18 0  1.44 0.18 0  1.48 0.18 0  1.52 0.18 0  1.56 0.18 0  1.6 0.18 0  1.64 0.18 0  1.68 0.18 0  1.72 0.18 0  1.76 0.18 0  1.8 0.18 0  1.84 0.18 0  1.88 0.18 0  1.92 0.18 0  1.96 0.18 0  2 0.18 0  0 0.2 0  0.04 0.2 0  0.08 0.2 0  0.12 0.2 0  0.16 0.2 0  0.2 0.2 0  0.24 0.2 0  0.28 0.2 0  0.32 0.2 0  0.36 0.2 0  0.4 0.2 0  0.44 0.2 0  0.48 0.2 0  0.52 0.2 0  0.5600000000000001 0.2 0  0.6 0.2 0  0.64 0.2 0  0.68 0.2 0  0.72 0.2 0  0.76 0.2 0  0.8 0.2 0  0.84 0.2 0  0.88 0.2 0  0.92 0.2 0  0.96 0.2 0  1 0.2 0  1.04 0.2 0  1.08 0.2 0  1.12 0.2 0  1.16 0.2 0  1.2 0.2 0  1.24 0.2 0  1.28 0.2 0  1.32 0.2 0  1.36 0.2 0  1.4 0.2 0  1.44 0.2 0  1.48 0.2 0  1.52 0.2 0  1.56 0.2 0  1.6 0.2 0  1.64 0.2 0  1.68 0.2 0  1.72 0.2 0  1.76 0.2 0  1.8 0.2 0  1.84 0.2 0  1.88 0.2 0  1.92 0.2 0  1.96 0.2 0  2 0.2 0  0 0.22 0  0.04 0.22 0  0.08 0.22 0  0.12 0.22 0  0.16 0.22 0  0.2 0.22 0  0.24 0.22 0  0.28 0.22 0  0.32 0.22 0  0.36 0.22 0  0.4 0.22 0  0.44 0.22 0  0.48 0.22 0  0.52 0.22 0  0.5600000000000001 0.22 0  0.6 0.22 0  0.64 0.22 0  0.68 0.22 0  0.72 0.22 0  0.76 0.22 0  0.8 0.22 0  0.84 0.22 0  0.88 0.22 0  0.92 0.22 0  0.96 0.22 0  1 0.22 0  1.04 0.22 0  1.08 0.22 0  1.12 0.22 0  1.16 0.22 0  1.2 0.22 0  1.24 0.22 0  1.28 0.22 0  1.32 0.22 0  1.36 0.22 0  1.4 0.22 0  1.44 0.22 0  1.48 0.22 0  1.52 0.22 0  1.56 0.22 0  1.6 0.22 0  1.64 0.22 0  1.68 0.22 0  1.72 0.22 0  1.76 0.22 0  1.8 0.22 0  1.84 0.22 0  1.88 0.22 0  1.92 0.22 0  1.96 0.22 0  2 0.22 0  0 0.24 0  0.04 0.24 0  0.08 0.24 0  0.12 0.24 0  0.16 0.24 0  0.2 0.24 0  0.24 0.24 0  0.28 0.24 0  0.32 0.24 0  0.36 0.24 0  0.4 0.24 0  0.44 0.24 0  0.48 0.24 0  0.52 0.24 0  0.5600000000000001 0.24 0  0.6 0.24 0  0.64 0.24 0  0.68 0.24 0  0.72 0.24 0  0.76 0.24 0  0.8 0.24 0  0.84 0.24 0  0.88 0.24 0  0.92 0.24 0  0.96 0.24 0  1 0.24 0  1.04 0.24 0  1.08 0.24 0  1.12 0.24 0  1.16 0.24 0  1.2 0.24 0  1.24 0.24 0  1.28 0.24 0  1.32 0.24 0  1.36 0.24 0  1.4 0.24 0  1.44 0.24 0  1.48 0.24 0  1.52 0.24 0  1.56 0.24 0  1.6 0.24 0  1.64 0.24 0  1.68 0.24 0  1.72 0.24 0  1.76 0.24 0  1.8 0.24 0  1.84 0.24 0  1.88 0.24 0  1.92 0.24 0  1.96 0.24 0  2 0.24 0  0 0.26 0  0.04 0.26 0  0.08 0.26 0  0.12 0.26 0  0.16 0.26 0  0.2 0.26 0  0.24 0.26 0  0.28 0.26 0  0.32 0.26 0  0.36 0.26 0  0.4 0.26 0  0.44 0.26 0  0.48 0.26 0  0.52 0.26 0  0.5600000000000001 0.26 0  0.6 0.26 0  0.64 0.26 0  0.68 0.26 0  0.72 0.26 0  0.76 0.26 0  0.8 0.26 0  0.84 0.26 0  0.88 0.26 0  0.92 0.26 0  0.96 0.26 0  1 0.26 0  1.04 0.26 0  1.08 0.26 0  1.12 0.26 0  1.16 0.26 0  1.2 0.26 0  1.24 0.26 0  1.28 0.26 0  1.32 0.26 0  1.36 0.26 0  1.4 0.26 0  1.44 0.26 0  1.48 0.26 0  1.52 0.26 0  1.56 0.26 0  1.6 0.26 0  1.64 0.26 0  1.68 0.26 0  1.72 0.26 0  1.76 0.26 0  1.8 0.26 0  1.84 0.26 0  1.88 0.26 0  1.92 0.26 0  1.96 0.26 0  2 0.26 0  0 0.28 0  0.04 0.28 0  0.08 0.28 0  0.12 0.28 0  0.16 0.28 0  0.2 0.28 0  0.24 0.28 0  0.28 0.28 0  0.32 0.28 0  0.36 0.28 0  0.4 0.28 0  0.44 0.28 0  0.48 0.28 0  0.52 0.28 0  0.5600000000000001 0.28 0  0.6 0.28 0  0.64 0.28 0  0.68 0.28 0  0.72 0.28 0  0.76 0.28 0  0.8 0.28 0  0.84 0.28 0  0.88 0.28 0  0.92 0.28 0  0.96 0.28 0  1 0.28 0  1.04 0.28 0  1.08 0.28 0  1.12 0.28 0  1.16 0.28 0  1.2 0.28 0  1.24 0.28 0  1.28 0.28 0  1.32 0.28 0  1.36 0.28 0  1.4 0.28 0  1.44 0.28 0  1.48 0.28 0  1.52 0.28 0  1.56 0.28 0  1.6 0.28 0  1.64 0.28 0  1.68 0.28 0  1.72 0.28 0  1.76 0.28 0  1.8 0.28 0  1.84 0.28 0  1.88 0.28 0  1.92 0.28 0  1.96 0.28 0  2 0.28 0  0 0.3 0  0.04 0.3 0  0.08 0.3 0  0.12 0.3 0  0.16 0.3 0  0.2 0.3 0  0.24 0.3 0  0.28 0.3 0  0.32 0.3 0  0.36 0.3 0  0.4 0.3 0  0.44 0.3
[...]
<PointData  Vectors="f_24-0"> 
<DataArray  type="Float64"  Name="f_24-0"  NumberOfComponents="3" format="ascii">1.0000000000000017e-01 0.0000000000000000e+00 0.0000000000000000e+00  9.8000000000000878e-02 0.0000000000000000e+00 0.0000000000000000e+00  9.6000000000001501e-02 0.0000000000000000e+00 0.0000000000000000e+00  9.4000000000001943e-02 0.0000000000000000e+00 0.0000000000000000e+00  9.2000000000002385e-02 0.0000000000000000e+00 0.0000000000000000e+00  9.0000000000002883e-02 0.0000000000000000e+00 0.0000000000000000e+00  8.8000000000003339e-02 0.0000000000000000e+00 0.0000000000000000e+00  8.6000000000003810e-02 0.0000000000000000e+00 0.0000000000000000e+00  8.4000000000004071e-02 0.0000000000000000e+00 0.0000000000000000e+00  8.2000000000004222e-02 0.0000000000000000e+00 0.0000000000000000e+00  8.0000000000004470e-02 0.0000000000000000e+00 0.0000000000000000e+00  7.8000000000004566e-02 0.0000000000000000e+00 0.0000000000000000e+00  7.6000000000004647e-02 0.0000000000000000e+00 0.0000000000000000e+00  7.4000000000004770e-02 0.0000000000000000e+00 0.0000000000000000e+00  7.2000000000004866e-02 0.0000000000000000e+00 0.0000000000000000e+00  7.0000000000004919e-02 0.0000000000000000e+00 0.0000000000000000e+00  6.8000000000004931e-02 0.0000000000000000e+00 0.0000000000000000e+00  6.6000000000004930e-02 0.0000000000000000e+00 0.0000000000000000e+00  6.4000000000004886e-02 0.0000000000000000e+00 0.0000000000000000e+00  6.2000000000004774e-02 0.0000000000000000e+00 0.0000000000000000e+00  6.0000000000004640e-02 0.0000000000000000e+00 0.0000000000000000e+00  5.8000000000004492e-02 0.0000000000000000e+00 0.0000000000000000e+00  5.6000000000004331e-02 0.0000000000000000e+00 0.0000000000000000e+00  5.4000000000004128e-02 0.0000000000000000e+00 0.0000000000000000e+00  5.2000000000003904e-02 0.0000000000000000e+00 0.0000000000000000e+00  5.0000000000003646e-02 0.0000000000000000e+00 0.0000000000000000e+00  4.8000000000003352e-02 0.0000000000000000e+00 0.0000000000000000e+00  4.6000000000003045e-02 0.0000000000000000e+00 0.0000000000000000e+00  4.4000000000002752e-02 0.0000000000000000e+00 0.0000000000000000e+00  4.2000000000002494e-02 0.0000000000000000e+00 0.0000000000000000e+00  4.0000000000002256e-02 0.0000000000000000e+00 0.0000000000000000e+00  3.8000000000001991e-02 0.0000000000000000e+00 0.0000000000000000e+00  3.6000000000001739e-02 0.0000000000000000e+00 0.0000000000000000e+00  3.4000000000001487e-02 0.0000000000000000e+00 0.0000000000000000e+00  3.2000000000001270e-02 0.0000000000000000e+00 0.0000000000000000e+00  3.0000000000001088e-02 0.0000000000000000e+00 0.0000000000000000e+00  2.8000000000000927e-02 0.0000000000000000e+00 0.0000000000000000e+00  2.6000000000000772e-02 0.0000000000000000e+00 0.0000000000000000e+00  2.4000000000000639e-02 0.0000000000000000e+00 0.0000000000000000e+00  2.2000000000000505e-02 0.0000000000000000e+00 0.0000000000000000e+00  2.0000000000000396e-02 0.0000000000000000e+00 0.0000000000000000e+00  1.8000000000000304e-02 0.0000000000000000e+00 0.0000000000000000e+00  1.6000000000000233e-02 0.0000000000000000e+00 0.0000000000000000e+00  1.4000000000000165e-02 0.0000000000000000e+00 0.0000000000000000e+00  1.2000000000000106e-02 0.0000000000000000e+00 0.0000000000000000e+00  1.0000000000000054e-02 0.0000000000000000e+00 0.0000000000000000e+00  8.0000000000000210e-03 0.0000000000000000e+00 0.0000000000000000e+00  6.0000000000000123e-03 0.0000000000000000e+00 0.0000000000000000e+00  4.0000000000000044e-03 0.0000000000000000e+00 0.0000000000000000e+00  2.0000000000000000e-03 0.0000000000000000e+00 0.0000000000000000e+00  9.4368957093138101e-19 0.0000000000000000e+00 0.0000000000000000e+00  1.0000000000000001e-01 0.0000000000000000e+00 0.0000000000000000e+00  9.9121782210372017e-02 9.2105245213589643e-04 0.0000000000000000e+00  9.7305199145105173e-02 9.7916719602689889e-04 0.0000000000000000e+00  9.5422966250341856e-02 9.8261193310339575e-04 0.0000000000000000e+00  9.3521689382548304e-02 9.7709675867332316e-04 0.0000000000000000e+00  9.1640601687238185e-02 9.7117660138540960e-04 0.0000000000000000e+00  8.9779319250808690e-02 9.6531462752793315e-04 0.0000000000000000e+00  8.7937984894700755e-02 9.6015448700919562e-04 0.0000000000000000e+00  8.6114380943757299e-02 9.5572923335546071e-04 0.0000000000000000e+00  8.4306119985076436e-02 9.5198164587617738e-04 0.0000000000000000e+00  8.2510979684120161e-02 9.4881124540153571e-04 0.0000000000000000e+00  8.0727072945934078e-02 9.4610258688424985e-04 0.0000000000000000e+00  7.8952910473137877e-02 9.4374156765631529e-04 0.0000000000000000e+00  7.7187405182212857e-02 9.4161994059385474e-04 0.0000000000000000e+00  7.5429857602301448e-02 9.3963701257692377e-04 0.0000000000000000e+00  7.3679934233650254e-02 9.3769922951268149e-04 0.0000000000000000e+00  7.1937646816597103e-02 9.3571879167062444e-04 0.0000000000000000e+00  7.0203336381615189e-02 9.3361175547954664e-04 0.0000000000000000e+00  6.8477664177014022e-02 9.3129587145905017e-04 0.0000000000000000e+00  6.6761610597998539e-02 9.2868828592950164e-04 0.0000000000000000e+00  6.5056482757234385e-02 9.2570315534470633e-04 0.0000000000000000e+00  6.3363931164554674e-02 9.2224916851282705e-04 0.0000000000000000e+00  6.1685976030063740e-02 9.1822692776472720e-04 0.0000000000000000e+00  6.0025043934694010e-02 9.1352609803304924e-04 0.0000000000000000e+00  5.8384016019619955e-02 9.0802218696622579e-04 0.0000000000000000e+00  5.6766289448320337e-02 9.0157276479827138e-04 0.0000000000000000e+00  5.5175854728116688e-02 8.9401286553719738e-04 0.0000000000000000e+00  5.3617392590957408e-02 8.8514922796977718e-04 0.0000000000000000e+00  5.2096395581182460e-02 8.7475293514260985e-04 0.0000000000000000e+00  5.0619321326691898e-02 8.6254989848662408e-04 0.0000000000000000e+00  4.9193786684117238e-02 8.4820852136904715e-04 0.0000000000000000e+00  4.7828814455801283e-02 8.3132380005181638e-04 0.0000000000000000e+00  4.6535146867719868e-02 8.1139714460321346e-04 0.0000000000000000e+00  4.5325641773718735e-02 7.8781146791292230e-04 0.0000000000000000e+00  4.4215767049978955e-02 7.5980184156138086e-04 0.0000000000000000e+00  4.3224203049143942e-02 7.2642377072565476e-04 0.0000000000000000e+00  4.2373545965680055e-02 6.8652480219672646e-04 0.0000000000000000e+00  4.1691066798638668e-02 6.3873232871799242e-04 0.0000000000000000e+00  4.1209396309403221e-02 5.8148677534623728e-04 0.0000000000000000e+00  4.0966837472550463e-02 5.1316980647383135e-04 0.0000000000000000e+00  4.1006681253936257e-02 4.3248074966819276e-04 0.0000000000000000e+00  4.1374064215026291e-02 3.3914137413431516e-04 0.0000000000000000e+00  4.2108211280742470e-02 2.3617280219796481e-04 0.0000000000000000e+00  4.3220872378970251e-02 1.3171312384498588e-04 0.0000000000000000e+00  4.4662503555092756e-02 5.7660178274808856e-05 0.0000000000000000e+00  4.6175650250792545e-02 4.5729385736295412e-05 0.0000000000000000e+00  4.7273440032687748e-02 3.9061349169922392e-04 0.0000000000000000e+00  4.5610450303220036e-02 8.8533956528379955e-04 0.0000000000000000e+00  3.9827179461027200e-02 5.2856700360035831e-03 0.0000000000000000e+00  2.4362727166710885e-03 9.4017290452869332e-03 0.0000000000000000e+00  -6.3840928363409946e-02 7.1101105286161176e-02 0.0000000000000000e+00  1.0000000000000001e-01 0.0000000000000000e+00 0.0000000000000000e+00  9.9566700491024535e-02 1.5760763046515061e-03 0.0000000000000000e+00  9.8215667794500305e-02 1.8432084694556406e-03 0.0000000000000000e+00  9.6569362722855642e-02 1.8885210910063793e-03 0.0000000000000000e+00  9.4846751705682492e-02 1.8849691168352351e-03 0.0000000000000000e+00  9.3127369851466482e-02 1.8695015334249743e-03 0.0000000000000000e+00  9.1429491224378531e-02 1.8512808326239321e-03 0.0000000000000000e+00  8.9759930291126819e-02 1.8338990159424084e-03 0.0000000000000000e+00  8.8118241569993816e-02 1.8183485758583500e-03 0.0000000000000000e+00  8.6502142251718553e-02 1.8048304887643620e-03 0.0000000000000000e+00  8.4908736327172718e-02 1.7931797783782074e-03 0.0000000000000000e+00  8.3335274340039941e-02 1.7830870367545200e-03 0.0000000000000000e+00  8.1779454025535214e-02 1.7741938567855499e-03 0.0000000000000000e+00  8.0239545839004736e-02 1.7661344296506342e-03 0.0000000000000000e+00  7.8714432955458838e-02 1.7585537531438430e-03 0.0000000000000000e+00  7.7203612104397967e-02 1.7511130083039139e-03 0.0000000000000000e+00  7.5707180517426448e-02 1.7434884562889587e-03 0.0000000000000000e+00  7.4225822153982671e-02 1.7353667929868527e-03 0.0000000000000000e+00  7.2760800616780086e-02 1.7264385826155884e-03 0.0000000000000000e+00  7.1313962910334538e-02 1.7163906215455062e-03 0.0000000000000000e+00  6.9887756477700819e-02 1.7048976409257592e-03 0.0000000000000000e+00  6.8485261115609569e-02 1.6916134703764162e-03 0.0000000000000000e+00  6.7110237114195476e-02 1.6761615728662299e-03 0.0000000000000000e+00  6.5767191143532286e-02 1.6581246787661106e-03 0.0000000000000000e+00  6.4461461951904539e-02 1.6370330657901021e-03 0.0000000000000000e+00  6.3199328841583371e-02 1.6123508304727002e-03 0.0000000000000000e+00  6.1988147172546831e-02 1.5834592609963198e-03 0.0000000000000000e+00  6.0836516855444805e-02 1.5496361426514719e-03 0.0000000000000000e+00  5.9754491966269703e-02 1.5100295105997120e-03 0.0000000000000000e+00  5.8753842230035193e-02 1.4636240386054033e-03 0.0000000000000000e+00  5.7848380032966655e-02 1.4091979914092115e-03 0.0000000000000000e+00  5.7054369417858686e-02 1.3452686320356009e-03 0.0000000000000000e+00  5.6391035244274731e-02 1.2700244791630402e-03 0.0000000000000000e+00  5.5881189444551657e-02 1.1812444560190803e-03 0.0000000000000000e+00  5.5551983238184756e-02 1.0762078838673665e-03 0.0000000000000000e+00  5.5435772423729816e-02 9.5160756233740314e-04 0.0000000000000000e+00  5.5571033320828793e-02 8.0349475530447064e-04 0.0000000000000000e+00  5.6003167070069929e-02 6.2731748180184968e-04 0.0000000000000000e+00  5.6784825850248535e-02 4.1817639445982741e-04 0.0000000000000000e+00  5.7975011124719276e-02 1.7154773724869241e-04 0.0000000000000000e+00  5.9635425135345525e-02 -1.1503227627158113e-04 0.0000000000000000e+00  6.1820988368560301e-02 -4.3830060809276546e-04 0.0000000000000000e+00  6.4558951902020795e-02 -7.8153650519777228e-04 0.0000000000000000e+00  6.7801243893576682e-02 -1.0979288940205665e-03 0.0000000000000000e+00  7.1338205919947453e-02 -1.2752011768628695e-03 0.0000000000000000e+00  7.4544058705843588e-02 -1.0493435671818324e-03 0.0000000000000000e+00  7.6134864095476082e-02 1.8701573219740786e-04 0.0000000000000000e+00  7.2124822639863348e-02 3.9946199507196268e-03 0.0000000000000000e+00  5.7427242382545797e-02 1.4668066472220182e-02 0.0000000000000000e+00  7.4707799223288685e-04 4.5496779543303840e-02 0.0000000000000000e+00  -8.1383253940176051e-02 1.4626867667090038e-01 0.0000000000000000e+00  1.0000000000000001e-01 0.0000000000000000e+00 0.0000000000000000e+00  9.9759622519561317e-02 1.9794600255180579e-03 0.0000000000000000e+00  9.8823307873418240e-02 2.5365886721602504e-03 0.0000000000000000e+00  9.7473625408319942e-02 2.6784578543685668e-03 0.0000000000000000e+00  9.5982524905201164e-02 2.6988479862160614e-03 0.0000000000000000e+00  9.4459213975526632e-02 2.6799526279930068e-03 0.0000000000000000e+00  9.2946537964813697e-02 2.6493182424676223e-03 0.0000000000000000e+00  9.1461005990842725e-02 2.6169130446829910e-03 0.0000000000000000e+00  9.0006867570606941e-02 2.5864676433737088e-03 0.0000000000000000e+00  8.8583829572889822e-02 2.5592089291851853e-03 0.0000000000000000e+00  8.7189627180547041e-02 2.5352369716316117e-03 0.0000000000000000e+00  8.5821554546774259e-02 2.5141603796095062e-03 0.0000000000000000e+00  8.4477119360694214e-02 2.4953746487200133e-03 0.0000000000000000e+00  8.3154374268252979e-02 2.4781974419528919e-03 0.0000000000000000e+00  8.1852064208199182e-02 2.4619314526714820e-03 0.0000000000000000e+00  8.0569685761159651e-02 2.4458903996618896e-03 0.0000000000000000e+00  7.9307505791256463e-02 2.4294054374264045e-03 0.0000000000000000e+00  7.8066565709378449e-02 2.4118207403729798e-03 0.0000000000000000e+00  7.6848686354125353e-02 2.3924830529566559e-03 0.0000000000000000e+00  7.5656482101806782e-02 2.3707277861485434e-03 0.0000000000000000e+00  7.4493389322656312e-02 2.3458630019014587e-03 0.0000000000000000e+00  7.3363712425158975e-02 2.3171518475612884e-03 0.0000000000000000e+00  7.2272689891254654e-02 2.2837934591278591e-03 0.0000000000000000e+00  7.1226582579689848e-02 2.2449019191286739e-03 0.0000000000000000e+00  7.0232787003002187e-02 2.1994824562968922e-03 0.0000000000000000e+00  6.9299977195012949e-02 2.1464036620091670e-03 0.0000000000000000e+00  6.8438280157317968e-02 2.0843640433430423e-03 0.0000000000000000e+00  6.7659491692678639e-02 2.0118507273198020e-03 0.0000000000000000e+00  6.6977341650198127e-02 1.9270876031579028e-03 0.0000000000000000e+00  6.6407820056304481e-02 1.8279697301275639e-03 0.0000000000000000e+00  6.5969577870413659e-02 1.7119806543216026e-03 0.0000000000000000e+00  6.5684417284180466e-02 1.5760897844731309e-03 0.0000000000000000e+00  6.5577884762312244e-02 1.4166289689109303e-03 0.0000000000000000e+00  6.5679971979769380e-02 1.2291523684748620e-03 0.0000000000000000e+00  6.6025908945228404e-02 1.0082943431643724e-03 0.0000000000000000e+00  6.6656988544776571e-02 7.4766134952811223e-04 0.0000000000000000e+00  6.7621270099157305e-02 4.3983500343900366e-04 0.0000000000000000e+00  6.8973836035109898e-02 7.6642012542629440e-05 0.0000000000000000e+00  7.0775937297068367e-02 -3.5000392502374417e-04 0.0000000000000000e+00  7.3091759548254531e-02 -8.4609444080328150e-04 0.0000000000000000e+00  7.5980315819492203e-02 -1.4111960774248599e-03 0.0000000000000000e+00  7.9477858616875674e-02 -2.0294845630303717e-03 0.0000000000000000e+00  8.3561684082615897e-02 -2.6514525166662817e-03 0.0000000000000000e+00  8.8077035118575675e-02 -3.1561637758853972e-03 0.0000000000000000e+00  9.2597085043325950e-02 -3.2717824902463288e-03 0.0000000000000000e+00  9.6107957901318014e-02 -2.3991994235550867e-03 0.0000000000000000e+00  9.6545506615115365e-02 7.9329536594888758e-04 0.0000000000000000e+00  8.8974207017370646e-02 9.4406773296739875e-03 0.0000000000000000e+00  6.6055183076787191e-02 3.1131300269854095e-02 0.0000000000000000e+00  2.4808983040463905e-03 8.6316081858220844e-02 0.0000000000000000e+00  -8.1915234466977141e-02 2.1677712440830071e-01 0.0000000000000000e+00  1.0000000000000001e-01 0.0000000000000000e+00 0.0000000000000000e+00  9.9864867246281241e-02 2.2168865199892846e-03 0.0000000000000000e+00  9.9231064056632040e-02 3.0578145037133179e-03 0.0000000000000000e+00  9.8183727110302987e-02 3.3342691462402811e-03 0.0000000000000000e+00  9.6946951217153965e-02 3.4014597614776495e-03 0.0000000000000000e+00  9.5642521175498763e-02 3.3907789572565602e-03 0.0000000000000000e+00  9.4331377267369620e-02 3.3520722866962594e-03 0.0000000000000000e+00  9.3039729070406266e-02 3.3052552495931409e-03 0.0000000000000000e+00  9.1777862833040041e-02 3.2586923519828939e-03 0.0000000000000000e+00  9.0548563664701182e-02 3.2156089026650898e-03 0.0000000000000000e+00  8.9351148841246675e-02 3.1768859570822962e-03 0.0000000000000000e+00  8.8183667758455583e-02 3.1422957805227912e-03 0.0000000000000000e+00  8.7043962828792079e-02 3.1110870900603266e-03 0.0000000000000000e+00  8.5930243822844046e-02 3.0822776861864918e-03 0.0000000000000000e+00  8.4841373644192600e-02 3.0547977116460027e-03 0.0000000000000000e+00  8.3777010561533014e-02 3.0275565075326191e-03 0.0000000000000000e+00  8.2737676035090787e-02 2.9994676517296993e-03 0.0000000000000000e+00  8.1724789318941463e-02 2.9694506554109189e-03 0.0000000000000000e+00  8.0740692360825803e-02 2.9364193720391079e-03 0.0000000000000000e+00  7.9788678853483924e-02 2.8992626795236254e-03 0.0000000000000000e+00  7.8873035749317449e-02 2.8568204524102099e-03 0.0000000000000000e+00  7.7999102418525534e-02 2.8078562697090989e-03 0.0000000000000000e+00  7.7173351011660105e-02 2.7510272488267800e-03 0.0000000000000000e+00  7.6403490967118862e-02 2.6848505989452947e-03 0.0000000000000000e+00  7.5698600704936198e-02 2.6076658025069974e-03 0.0000000000000000e+00  7.5069290213082035e-02 2.5175906743239392e-03 0.0000000000000000e+00  7.4527899360508729e-02 2.4124688705407624e-03 0.0000000000000000e+00  7.4088738258408740e-02 2.2898057281615712e-03 0.0000000000000000e+00  7.3768377655733935e-02 2.1466886864967161e-03 0.0000000000000000e+00  7.3585998822106896e-02 1.9796881762212852e-03 0.0000000000000000e+00  7.3563812878048779e-02 1.7847351835534515e-03 0.0000000000000000e+00  7.3727557600970592e-02 1.5569735254933566e-03 0.0000000000000000e+00  7.4107072585010619e-02 1.2905897278254583e-03 0.0000000000000000e+00  7.4736936246305535e-02 9.7863404926555684e-04 0.0000000000000000e+00  7.5657111376161462e-02 6.1286764370011915e-04 0.0000000000000000e+00  7.6913474079957619e-02 1.8371215990627802e-04 0.0000000000000000e+00  7.8557964157417837e-02 -3.1954422416389231e-04 0.0000000000000000e+00  8.0647847276852230e-02 -9.0798538703272796e-04 0.0000000000000000e+00  8.3243114598210141e-02 -1.5911812326937999e-03 0.0000000000000000e+00  8.6400248895941695e-02 -2.3730961781530638e-03 0.0000000000000000e+00  9.0158996089452381e-02 -3.2437336278630540e-03 0.0000000000000000e+00  9.4516304227420217e-02 -4.1625017114836158e-03 0.0000000000000000e+00  9.9375787528341891e-02 -5.0253960374370089e-03 0.0000000000000000e+00  1.0445324881480864e-01 -5.5993958611414455e-03 0.0000000000000000e+00  1.0909883645866436e-01 -5.3898676215652329e-03 0.0000000000000000e+00  1.1195618246556294e-01 -3.3585681368291480e-03 0.0000000000000000e+00  1.1041561373605936e-01 2.6788023088861706e-03 0.0000000000000000e+00  9.9203628351542700e-02 1.7478112029765278e-02 0.0000000000000000e+00  7.0752750310916934e-02 5.1375130156941361e-02 0.0000000000000000e+00  6.8056542065868669e-03 1.2692893218297882e-01 0.0000000000000000e+00  -7.4981232762066849e-02 2.8030436532590197e-01 0.0000000000000000e+00  1.0000000000000001e-01 0.0000000000000000e+00 0.0000000000000000e+00  9.9930443961857796e-02 2.3562752062401796e-03 0.0000000000000000e+00  9.9517595232134506e-02 3.4318522701362554e-03 0.0000000000000000e+00  9.8744966686692928e-02 3.8524960098127521e-03 0.0000000000000000e+00  9.7763477515511302e-02 3.9844831246745481e-03 0.0000000000000000e+00  9.6688678049296900e-02 3.9943928818191162e-03 0.0000000000000000e+00  9.5588703661596802e-02 3.9541989606457694e-03 0.0000000000000000e+00  9.4497462782718741e-02 3.8959404694732021e-03 0.0000000000000000e+00  9.3430898935345633e-02 3.8340271440018164e-03 0.0000000000000000e+00  9.2395232599154220e-02 3.7746405528948138e-03 0.0000000000000000e+00  9.1391894319662895e-02 3.7200078717382350e-03 0.0000000000000000e+00  9.0420166469835764e-02 3.6703800048834244e-03 0.0000000000000000e+00  8.9478623401759383e-02 3.6250243437436795e-03 0.0000000000000000e+00  8.8565935178385707e-02 3.5827314664051229e-03 0.0000000000000000e+00  8.7681300388444808e-02 3.5420753563025014e-03 0.0000000000000000e+00  8.6824681751053803e-02 3.5015428459919092e-03 0.0000000000000000e+00  8.5996932938191245e-02 3.4595902946584207e-03 0.0000000000000000e+00  8.5199871384302683e-02 3.4146590295519746e-03 0.0000000000000000e+00  8.4436328734087518e-02 3.3651668949559554e-03 0.0000000000000000e+00  8.3710198076575898e-02 3.3094857347077365e-03 0.0000000000000000e+00  8.3026489552632213e-02 3.2459102975469062e-03 0.0000000000000000e+00  8.2391401507025341e-02 3.1726214075706973e-03 0.0000000000000000e+00  8.1812411865512136e-02 3.0876444998791355e-03 0.0000000000000000e+00  8.1298393175622027e-02 2.9888033585344568e-03 0.0000000000000000e+00  8.0859754358509506e-02 2.8736678729302054e-03 0.0000000000000000e+00  8.0508612423048687e-02 2.7394937158812843e-03 0.0000000000000000e+00  8.0258997995573136e-02 2.5831509868077260e-03 0.0000000000000000e+00  8.0127099299720686e-02 2.4010380858333863e-03 0.0000000000000000e+00  8.0131549837920493e-02 2.1889765442154197e-03 0.00