<?xml version="1.0"?>
<VTKFile type="UnstructuredGrid"  version="0.1"  >
<UnstructuredGrid>
<Piece  NumberOfPoints="2601" NumberOfCells="5000">
<Points>
<DataArray  type="Float64"  NumberOfComponents="3"  format="ascii">0 0 0  0.04 0 0  0.08 0 0  0.12 0 0  0.16 0 0  0.2 0 0  0.24 0 0  0.28 0 0  0.32 0 0  0.36 0 0  0.4 0 0  0.44 0 0  0.48 0 0  0.52 0 0  0.5600000000000001 0 0  0.6 0 0  0.64 0 0  0.68 0 0  0.72 0 0  0.76 0 0  0.8 0 0  0.84 0 0  0.88 0 0  0.92 0 0  0.96 0 0  1 0 0  1.04 0 0  1.08 0 0  1.12 0 0  1.16 0 0  1.2 0 0  1.24 0 0  1.28 0 0  1.32 0 0  1.36 0 0  1.4 0 0  1.44 0 0  1.48 0 0  1.52 0 0  1.56 0 0  1.6 0 0  1.64 0 0  1.68 0 0  1.72 0 0  1.76 0 0  1.8 0 0  1.84 0 0  1.88 0 0  1.92 0 0  1.96 0 0  2 0 0  0 0.02 0  0.04 0.02 0  0.08 0.02 0  0.12 0.02 0  0.16 0.02 0  0.2 0.02 0  0.24 0.02 0  0.28 0.02 0  0.32 0.02 0  0.36 0.02 0  0.4 0.02 0  0.44 0.02 0  0.48 0.02 0  0.52 0.02 0  0.5600000000000001 0.02 0  0.6 0.02 0  0.64 0.02 0  0.68 0.02 0  0.72 0.02 0  0.76 0.02 0  0.8 0.02 0  0.84 0.02 0  0.88 0.02 0  0.92 0.02 0  0.96 0.02 0  1 0.02 0  1.04 0.02 0  1.08 0.02 0  1.12 0.02 0  1.16 0.02 0  1.2 0.02 0  1.24 0.02 0  1.28 0.02 0  1.32 0.02 0  1.36 0.02 0  1.4 0.02 0  1.44 0.02 0  1.48 0.02 0  1.52 0.02 0  1.56 0.02 0  1.6 0.02 0  1.64 0.02 0  1.68 0.02 0  1.72 0.02 0  1.76 0.02 0  1.8 0.02 0  1.84 0.02 0  1.88 0.02 0  1.92 0.02 0  1.96 0.02 0  2 0.02 0  0 0.04 0  0.04 0.04 0  0.08 0.04 0  0.12 0.04 0  0.16 0.04 0  0.2 0.04 0  0.24 0.04 0  0.28 0.04 0  0.32 0.04 0  0.36 0.04 0  0.4 0.04 0  0.44 0.04 0  0.48 0.04 0  0.52 0.04 0  0.5600000000000001 0.04 0  0.6 0.04 0  0.64 0.04 0  0.68 0.04 0  0.72 0.04 0  0.76 0.04 0  0.8 0.04 0  0.84 0.04 0  0.88 0.04 0  0.92 0.04 0  0.96 0.04 0  1 0.04 0  1.04 0.04 0  1.08 0.04 0  1.12 0.04 0  1.16 0.04 0  1.2 0.04 0  1.24 0.04 0  1.28 0.04 0  1.32 0.04 0  1.36 0.04 0  1.4 0.04 0  1.44 0.04 0  1.48 0.04 0  1.52 0.04 0  1.56 0.04 0  1.6 0.04 0  1.64 0.04 0  1.68 0.04 0  1.72 0.04 0  1.76 0.04 0  1.8 0.04 0  1.84 0.04 0  1.88 0.04 0  1.92 0.04 0  1.96 0.04 0  2 0.04 0  0 0.06 0  0.04 0.06 0  0.08 0.06 0  0.12 0.06 0  0.16 0.06 0  0.2 0.06 0  0.24 0.06 0  0.28 0.06 0  0.32 0.06 0  0.36 0.06 0  0.4 0.06 0  0.44 0.06 0  0.48 0.06 0  0.52 0.06 0  0.5600000000000001 0.06 0  0.6 0.06 0  0.64 0.06 0  0.68 0.06 0  0.72 0.06 0  0.76 0.06 0  0.8 0.06 0  0.84 0.06 0  0.88 0.06 0  0.92 0.06 0  0.96 0.06 0  1 0.06 0  1.04 0.06 0  1.08 0.06 0  1.12 0.06 0  1.16 0.06 0  1.2 0.06 0  1.24 0.06 0  1.28 0.06 0  1.32 0.06 0  1.36 0.06 0  1.4 0.06 0  1.44 0.06 0  1.48 0.06 0  1.52 0.06 0  1.56 0.06 0  1.6 0.06 0  1.64 0.06 0  1.68 0.06 0  1.72 0.06 0  1.76 0.06 0  1.8 0.06 0  1.84 0.06 0  1.88 0.06 0  1.92 0.06 0  1.96 0.06 0  2 0.06 0  0 0.08 0  0.04 0.08 0  0.08 0.08 0  0.12 0.08 0  0.16 0.08 0  0.2 0.08 0  0.24 0.08 0  0.28 0.08 0  0.32 0.08 0  0.36 0.08 0  0.4 0.08 0  0.44 0.08 0  0.48 0.08 0  0.52 0.08 0  0.5600000000000001 0.08 0  0.6 0.08 0  0.64 0.08 0  0.68 0.08 0  0.72 0.08 0  0.76 0.08 0  0.8 0.08 0  0.84 0.08 0  0.88 0.08 0  0.92 0.08 0  0.96 0.08 0  1 0.08 0  1.04 0.08 0  1.08 0.08 0  1.12 0.08 0  1.16 0.08 0  1.2 0.08 0  1.24 0.08 0  1.28 0.08 0  1.32 0.08 0  1.36 0.08 0  1.4 0.08 0  1.44 0.08 0  1.48 0.08 0  1.52 0.08 0  1.56 0.08 0  1.6 0.08 0  1.64 0.08 0  1.68 0.08 0  1.72 0.08 0  1.76 0.08 0  1.8 0.08 0  1.84 0.08 0  1.88 0.08 0  1.92 0.08 0  1.96 0.08 0  2 0.08 0  0 0.1 0  0.04 0.1 0  0.08 0.1 0  0.12 0.1 0  0.16 0.1 0  0.2 0.1 0  0.24 0.1 0  0.28 0.1 0  0.32 0.1 0  0.36 0.1 0  0.4 0.1 0  0.44 0.1 0  0.48 0.1 0  0.52 0.1 0  0.5600000000000001 0.1 0  0.6 0.1 0  0.64 0.1 0  0.68 0.1 0  0.72 0.1 0  0.76 0.1 0  0.8 0.1 0  0.84 0.1 0  0.88 0.1 0  0.92 0.1 0  0.96 0.1 0  1 0.1 0  1.04 0.1 0  1.08 0.1 0  1.12 0.1 0  1.16 0.1 0  1.2 0.1 0  1.24 0.1 0  1.28 0.1 0  1.32 0.1 0  1.36 0.1 0  1.4 0.1 0  1.44 0.1 0  1.48 0.1 0  1.52 0.1 0  1.56 0.1 0  1.6 0.1 0  1.64 0.1 0  1.68 0.1 0  1.72 0.1 0  1.76 0.1 0  1.8 0.1 0  1.84 0.1 0  1.88 0.1 0  1.92 0.1 0  1.96 0.1 0  2 0.1 0  0 0.12 0  0.04 0.12 0  0.08 0.12 0  0.12 0.12 0  0.16 0.12 0  0.2 0.12 0  0.24 0.12 0  0.28 0.12 0  0.32 0.12 0  0.36 0.12 0  0.4 0.12 0  0.44 0.12 0  0.48 0.12 0  0.52 0.12 0  0.5600000000000001 0.12 0  0.6 0.12 0  0.64 0.12 0  0.68 0.12 0  0.72 0.12 0  0.76 0.12 0  0.8 0.12 0  0.84 0.12 0  0.88 0.12 0  0.92 0.12 0  0.96 0.12 0  1 0.12 0  1.04 0.12 0  1.08 0.12 0  1.12 0.12 0  1.16 0.12 0  1.2 0.12 0  1.24 0.12 0  1.28 0.12 0  1.32 0.12 0  1.36 0.12 0  1.4 0.12 0  1.44 0.12 0  1.48 0.12 0  1.52 0.12 0  1.56 0.12 0  1.6 0.12 0  1.64 0.12 0  1.68 0.12 0  1.72 0.12 0  1.76 0.12 0  1.8 0.12 0  1.84 0.12 0  1.88 0.12 0  1.92 0.12 0  1.96 0.12 0  2 0.12 0  0 0.14 0  0.04 0.14 0  0.08 0.14 0  0.12 0.14 0  0.16 0.14 0  0.2 0.14 0  0.24 0.14 0  0.28 0.14 0  0.32 0.14 0  0.36 0.14 0  0.4 0.14 0  0.44 0.14 0  0.48 0.14 0  0.52 0.14 0  0.5600000000000001 0.14 0  0.6 0.14 0  0.64 0.14 0  0.68 0.14 0  0.72 0.14 0  0.76 0.14 0  0.8 0.14 0  0.84 0.14 0  0.88 0.14 0  0.92 0.14 0  0.96 0.14 0  1 0.14 0  1.04 0.14 0  1.08 0.14 0  1.12 0.14 0  1.16 0.14 0  1.2 0.14 0  1.24 0.14 0  1.28 0.14 0  1.32 0.14 0  1.36 0.14 0  1.4 0.14 0  1.44 0.14 0  1.48 0.14 0  1.52 0.14 0  1.56 0.14 0  1.6 0.14 0  1.64 0.14 0  1.68 0.14 0  1.72 0.14 0  1.76 0.14 0  1.8 0.14 0  1.84 0.14 0  1.88 0.14 0  1.92 0.14 0  1.96 0.14 0  2 0.14 0  0 0.16 0  0.04 0.16 0  0.08 0.16 0  0.12 0.16 0  0.16 0.16 0  0.2 0.16 0  0.24 0.16 0  0.28 0.16 0  0.32 0.16 0  0.36 0.16 0  0.4 0.16 0  0.44 0.16 0  0.48 0.16 0  0.52 0.16 0  0.5600000000000001 0.16 0  0.6 0.16 0  0.64 0.16 0  0.68 0.16 0  0.72 0.16 0  0.76 0.16 0  0.8 0.16 0  0.84 0.16 0  0.88 0.16 0  0.92 0.16 0  0.96 0.16 0  1 0.16 0  1.04 0.16 0  1.08 0.16 0  1.12 0.16 0  1.16 0.16 0  1.2 0.16 0  1.24 0.16 0  1.28 0.16 0  1.32 0.16 0  1.36 0.16 0  1.4 0.16 0  1.44 0.16 0  1.48 0.16 0  1.52 0.16 0  1.56 0.16 0  1.6 0.16 0  1.64 0.16 0  1.68 0.16 0  1.72 0.16 0  1.76 0.16 0  1.8 0.16 0  1.84 0.16 0  1.88 0.16 0  1.92 0.16 0  1.96 0.16 0  2 0.16 0  0 0.18 0  0.04 0.18 0  0.08 0.18 0  0.12 0.18 0  0.16 0.18 0  0.2 0.18 0  0.24 0.18 0  0.28 0.18 0  0.32 0.18 0  0.36 0.18 0  0.4 0.18 0  0.44 0.18 0  0.48 0.18 0  0.52 0.18 0  0.5600000000000001 0.18 0  0.6 0.18 0  0.64 0.18 0  0.68 0.18 0  0.72 0.18 0  0.76 0.18 0  0.8 0.18 0  0.84 0.18 0  0.88 0.18 0  0.92 0.18 0  0.96 0.18 0  1 0.18 0  1.04 0.18 0  1.08 0.18 0  1.12 0.18 0  1.16 0.18 0  1.2 0.18 0  1.24 0.18 0  1.28 0.18 0  1.32 0.18 0  1.36 0.18 0  1.4 0.18 0  1.44 0.18 0  1.48 0.18 0  1.52 0.18 0  1.56 0.18 0  1.6 0.18 0  1.64 0.18 0  1.68 0.18 0  1.72 0.18 0  1.76 0.18 0  1.8 0.18 0  1.84 0.18 0  1.88 0.18 0  1.92 0.18 0  1.96 0.18 0  2 0.18 0  0 0.2 0  0.04 0.2 0  0.08 0.2 0  0.12 0.2 0  0.16 0.2 0  0.2 0.2 0  0.24 0.2 0  0.28 0.2 0  0.32 0.2 0  0.36 0.2 0  0.4 0.2 0  0.44 0.2 0  0.48 0.2 0  0.52 0.2 0  0.5600000000000001 0.2 0  0.6 0.2 0  0.64 0.2 0  0.68 0.2 0  0.72 0.2 0  0.76 0.2 0  0.8 0.2 0  0.84 0.2 0  0.88 0.2 0  0.92 0.2 0  0.96 0.2 0  1 0.2 0  1.04 0.2 0  1.08 0.2 0  1.12 0.2 0  1.16 0.2 0  1.2 0.2 0  1.24 0.2 0  1.28 0.2 0  1.32 0.2 0  1.36 0.2 0  1.4 0.2 0  1.44 0.2 0  1.48 0.2 0  1.52 0.2 0  1.56 0.2 0  1.6 0.2 0  1.64 0.2 0  1.68 0.2 0  1.72 0.2 0  1.76 0.2 0  1.8 0.2 0  1.84 0.2 0  1.88 0.2 0  1.92 0.2 0  1.96 0.2 0  2 0.2 0  0 0.22 0  0.04 0.22 0  0.08 0.22 0  0.12 0.22 0  0.16 0.22 0  0.2 0.22 0  0.24 0.22 0  0.28 0.22 0  0.32 0.22 0  0.36 0.22 0  0.4 0.22 0  0.44 0.22 0  0.48 0.22 0  0.52 0.22 0  0.5600000000000001 0.22 0  0.6 0.22 0  0.64 0.22 0  0.68 0.22 0  0.72 0.22 0  0.76 0.22 0  0.8 0.22 0  0.84 0.22 0  0.88 0.22 0  0.92 0.22 0  0.96 0.22 0  1 0.22 0  1.04 0.22 0  1.08 0.22 0  1.12 0.22 0  1.16 0.22 0  1.2 0.22 0  1.24 0.22 0  1.28 0.22 0  1.32 0.22 0  1.36 0.22 0  1.4 0.22 0  1.44 0.22 0  1.48 0.22 0  1.52 0.22 0  1.56 0.22 0  1.6 0.22 0  1.64 0.22 0  1.68 0.22 0  1.72 0.22 0  1.76 0.22 0  1.8 0.22 0  1.84 0.22 0  1.88 0.22 0  1.92 0.22 0  1.96 0.22 0  2 0.22 0  0 0.24 0  0.04 0.24 0  0.08 0.24 0  0.12 0.24 0  0.16 0.24 0  0.2 0.24 0  0.24 0.24 0  0.28 0.24 0  0.32 0.24 0  0.36 0.24 0  0.4 0.24 0  0.44 0.24 0  0.48 0.24 0  0.52 0.24 0  0.5600000000000001 0.24 0  0.6 0.24 0  0.64 0.24 0  0.68 0.24 0  0.72 0.24 0  0.76 0.24 0  0.8 0.24 0  0.84 0.24 0  0.88 0.24 0  0.92 0.24 0  0.96 0.24 0  1 0.24 0  1.04 0.24 0  1.08 0.24 0  1.12 0.24 0  1.16 0.24 0  1.2 0.24 0  1.24 0.24 0  1.28 0.24 0  1.32 0.24 0  1.36 0.24 0  1.4 0.24 0  1.44 0.24 0  1.48 0.24 0  1.52 0.24 0  1.56 0.24 0  1.6 0.24 0  1.64 0.24 0  1.68 0.24 0  1.72 0.24 0  1.76 0.24 0  1.8 0.24 0  1.84 0.24 0  1.88 0.24 0  1.92 0.24 0  1.96 0.24 0  2 0.24 0  0 0.26 0  0.04 0.26 0  0.08 0.26 0  0.12 0.26 0  0.16 0.26 0  0.2 0.26 0  0.24 0.26 0  0.28 0.26 0  0.32 0.26 0  0.36 0.26 0  0.4 0.26 0  0.44 0.26 0  0.48 0.26 0  0.52 0.26 0  0.5600000000000001 0.26 0  0.6 0.26 0  0.64 0.26 0  0.68 0.26 0  0.72 0.26 0  0.76 0.26 0  0.8 0.26 0  0.84 0.26 0  0.88 0.26 0  0.92 0.26 0  0.96 0.26 0  1 0.26 0  1.04 0.26 0  1.08 0.26 0  1.12 0.26 0  1.16 0.26 0  1.2 0.26 0  1.24 0.26 0  1.28 0.26 0  1.32 0.26 0  1.36 0.26 0  1.4 0.26 0  1.44 0.26 0  1.48 0.26 0  1.52 0.26 0  1.56 0.26 0  1.6 0.26 0  1.64 0.26 0  1.68 0.26 0  1.72 0.26 0  1.76 0.26 0  1.8 0.26 0  1.84 0.26 0  1.88 0.26 0  1.92 0.26 0  1.96 0.26 0  2 0.26 0  0 0.28 0  0.04 0.28 0  0.08 0.28 0  0.12 0.28 0  0.16 0.28 0  0.2 0.28 0  0.24 0.28 0  0.28 0.28 0  0.32 0.28 0  0.36 0.28 0  0.4 0.28 0  0.44 0.28 0  0.48 0.28 0  0.52 0.28 0  0.5600000000000001 0.28 0  0.6 0.28 0  0.64 0.28 0  0.68 0.28 0  0.72 0.28 0  0.76 0.28 0  0.8 0.28 0  0.84 0.28 0  0.88 0.28 0  0.92 0.28 0  0.96 0.28 0  1 0.28 0  1.04 0.28 0  1.08 0.28 0  1.12 0.28 0  1.16 0.28 0  1.2 0.28 0  1.24 0.28 0  1.28 0.28 0  1.32 0.28 0  1.36 0.28 0  1.4 0.28 0  1.44 0.28 0  1.48 0.28 0  1.52 0.28 0  1.56 0.28 0  1.6 0.28 0  1.64 0.28 0  1.68 0.28 0  1.72 0.28 0  1.76 0.28 0  1.8 0.28 0  1.84 0.28 0  1.88 0.28 0  1.92 0.28 0  1.96 0.28 0  2 0.28 0  0 0.3 0  0.04 0.3 0  0.08 0.3 0  0.12 0.3 0  0.16 0.3 0  0.2 0.3 0  0.24 0.3 0  0.28 0.3 0  0.32 0.3 0  0.36 0.3 0  0.4 0.3 0  0.44 0.3
[...]
<PointData  Vectors="f_24-0"> 
<DataArray  type="Float64"  Name="f_24-0"  NumberOfComponents="3" format="ascii">1.0000000000000017e-01 0.0000000000000000e+00 0.0000000000000000e+00  9.8000000000003099e-02 0.0000000000000000e+00 0.0000000000000000e+00  9.6000000000005498e-02 0.0000000000000000e+00 0.0000000000000000e+00  9.4000000000007425e-02 0.0000000000000000e+00 0.0000000000000000e+00  9.2000000000008991e-02 0.0000000000000000e+00 0.0000000000000000e+00  9.0000000000010447e-02 0.0000000000000000e+00 0.0000000000000000e+00  8.8000000000011722e-02 0.0000000000000000e+00 0.0000000000000000e+00  8.6000000000012802e-02 0.0000000000000000e+00 0.0000000000000000e+00  8.4000000000013758e-02 0.0000000000000000e+00 0.0000000000000000e+00  8.2000000000014603e-02 0.0000000000000000e+00 0.0000000000000000e+00  8.0000000000015267e-02 0.0000000000000000e+00 0.0000000000000000e+00  7.8000000000015848e-02 0.0000000000000000e+00 0.0000000000000000e+00  7.6000000000016346e-02 0.0000000000000000e+00 0.0000000000000000e+00  7.4000000000016761e-02 0.0000000000000000e+00 0.0000000000000000e+00  7.2000000000017036e-02 0.0000000000000000e+00 0.0000000000000000e+00  7.0000000000017160e-02 0.0000000000000000e+00 0.0000000000000000e+00  6.8000000000017213e-02 0.0000000000000000e+00 0.0000000000000000e+00  6.6000000000017170e-02 0.0000000000000000e+00 0.0000000000000000e+00  6.4000000000017029e-02 0.0000000000000000e+00 0.0000000000000000e+00  6.2000000000016854e-02 0.0000000000000000e+00 0.0000000000000000e+00  6.0000000000016603e-02 0.0000000000000000e+00 0.0000000000000000e+00  5.8000000000016358e-02 0.0000000000000000e+00 0.0000000000000000e+00  5.6000000000016065e-02 0.0000000000000000e+00 0.0000000000000000e+00  5.4000000000015681e-02 0.0000000000000000e+00 0.0000000000000000e+00  5.2000000000015277e-02 0.0000000000000000e+00 0.0000000000000000e+00  5.0000000000014824e-02 0.0000000000000000e+00 0.0000000000000000e+00  4.8000000000014330e-02 0.0000000000000000e+00 0.0000000000000000e+00  4.6000000000013808e-02 0.0000000000000000e+00 0.0000000000000000e+00  4.4000000000013251e-02 0.0000000000000000e+00 0.0000000000000000e+00  4.2000000000012687e-02 0.0000000000000000e+00 0.0000000000000000e+00  4.0000000000012095e-02 0.0000000000000000e+00 0.0000000000000000e+00  3.8000000000011490e-02 0.0000000000000000e+00 0.0000000000000000e+00  3.6000000000010877e-02 0.0000000000000000e+00 0.0000000000000000e+00  3.4000000000010237e-02 0.0000000000000000e+00 0.0000000000000000e+00  3.2000000000009632e-02 0.0000000000000000e+00 0.0000000000000000e+00  3.0000000000009002e-02 0.0000000000000000e+00 0.0000000000000000e+00  2.8000000000008341e-02 0.0000000000000000e+00 0.0000000000000000e+00  2.6000000000007711e-02 0.0000000000000000e+00 0.0000000000000000e+00  2.4000000000007085e-02 0.0000000000000000e+00 0.0000000000000000e+00  2.2000000000006455e-02 0.0000000000000000e+00 0.0000000000000000e+00  2.0000000000005836e-02 0.0000000000000000e+00 0.0000000000000000e+00  1.8000000000005224e-02 0.0000000000000000e+00 0.0000000000000000e+00  1.6000000000004604e-02 0.0000000000000000e+00 0.0000000000000000e+00  1.4000000000003997e-02 0.0000000000000000e+00 0.0000000000000000e+00  1.2000000000003404e-02 0.0000000000000000e+00 0.0000000000000000e+00  1.0000000000002816e-02 0.0000000000000000e+00 0.0000000000000000e+00  8.0000000000022362e-03 0.0000000000000000e+00 0.0000000000000000e+00  6.0000000000016733e-03 0.0000000000000000e+00 0.0000000000000000e+00  4.0000000000011060e-03 0.0000000000000000e+00 0.0000000000000000e+00  2.0000000000005499e-03 0.0000000000000000e+00 0.0000000000000000e+00  9.4368957093164043e-19 0.0000000000000000e+00 0.0000000000000000e+00  1.0000000000000001e-01 0.0000000000000000e+00 0.0000000000000000e+00  9.9122013913188409e-02 9.2177218292355278e-04 0.0000000000000000e+00  9.7304671133430845e-02 9.8024800356275228e-04 0.0000000000000000e+00  9.5420526873482306e-02 9.8397314243030038e-04 0.0000000000000000e+00  9.3516348310675027e-02 9.7868943476556039e-04 0.0000000000000000e+00  9.1631486583960364e-02 9.7298162299699659e-04 0.0000000000000000e+00  8.9765574805939524e-02 9.6733769966376114e-04 0.0000000000000000e+00  8.7918692437253088e-02 9.6242135433593167e-04 0.0000000000000000e+00  8.6088486986045279e-02 9.5828320086771915e-04 0.0000000000000000e+00  8.4272371231121662e-02 9.5488223939415727e-04 0.0000000000000000e+00  8.2467859847686231e-02 9.5213425337144794e-04 0.0000000000000000e+00  8.0672737077070830e-02 9.4994112470458427e-04 0.0000000000000000e+00  7.8885113293821640e-02 9.4820801629176652e-04 0.0000000000000000e+00  7.7103420309419524e-02 9.4684866094854646e-04 0.0000000000000000e+00  7.5326384768965138e-02 9.4578779578273020e-04 0.0000000000000000e+00  7.3552991661847061e-02 9.4496148932846633e-04 0.0000000000000000e+00  7.1782445794750918e-02 9.4431654153897962e-04 0.0000000000000000e+00  7.0014134869043607e-02 9.4380944508472547e-04 0.0000000000000000e+00  6.8247595912031514e-02 9.4340518912315585e-04 0.0000000000000000e+00  6.6482485715093437e-02 9.4307606770128636e-04 0.0000000000000000e+00  6.4718555305274261e-02 9.4280058315961872e-04 0.0000000000000000e+00  6.2955628126186297e-02 9.4256249306904336e-04 0.0000000000000000e+00  6.1193581417215870e-02 9.4235002269887230e-04 0.0000000000000000e+00  5.9432330195900197e-02 9.4215524820063482e-04 0.0000000000000000e+00  5.7671813229084448e-02 9.4197364488245909e-04 0.0000000000000000e+00  5.5911980401066895e-02 9.4180378781696494e-04 0.0000000000000000e+00  5.4152780937760422e-02 9.4164718692534726e-04 0.0000000000000000e+00  5.2394152017880252e-02 9.4150823438005527e-04 0.0000000000000000e+00  5.0636007392995119e-02 9.4139423775039903e-04 0.0000000000000000e+00  4.8878225748956408e-02 9.4131550716394839e-04 0.0000000000000000e+00  4.7120638674621372e-02 9.4128545863053149e-04 0.0000000000000000e+00  4.5363018262831657e-02 9.4132068885137811e-04 0.0000000000000000e+00  4.3605064553705518e-02 9.4144097039063773e-04 0.0000000000000000e+00  4.1846393235417674e-02 9.4166911218641924e-04 0.0000000000000000e+00  4.0086524225317513e-02 9.4203063312846399e-04 0.0000000000000000e+00  3.8324871925610834e-02 9.4255321131105367e-04 0.0000000000000000e+00  3.6560738020050651e-02 9.4326591098283191e-04 0.0000000000000000e+00  3.4793307518594704e-02 9.4419825546039951e-04 0.0000000000000000e+00  3.3021648263384031e-02 9.4537937111183483e-04 0.0000000000000000e+00  3.1244712720245545e-02 9.4683753447170546e-04 0.0000000000000000e+00  2.9461339285868419e-02 9.4860121361661624e-04 0.0000000000000000e+00  2.7670243567219782e-02 9.5070170758934148e-04 0.0000000000000000e+00  2.5869993225415534e-02 9.5318454288902523e-04 0.0000000000000000e+00  2.4058907409016873e-02 9.5611566474270359e-04 0.0000000000000000e+00  2.2234946495273002e-02 9.5966627846771218e-04 0.0000000000000000e+00  2.0395010130948216e-02 9.6399407228007735e-04 0.0000000000000000e+00  1.8535224051164052e-02 9.7028764811238279e-04 0.0000000000000000e+00  1.6643816534042920e-02 9.7774338839890450e-04 0.0000000000000000e+00  1.4715449801154162e-02 9.9994513858755432e-04 0.0000000000000000e+00  1.2644595817067937e-02 1.0210080569086569e-03 0.0000000000000000e+00  1.0463986574897503e-02 1.2399454728311532e-03 0.0000000000000000e+00  1.0000000000000001e-01 0.0000000000000000e+00 0.0000000000000000e+00  9.9566472733597644e-02 1.5774726958673868e-03 0.0000000000000000e+00  9.8213791175154996e-02 1.8459485512043875e-03 0.0000000000000000e+00  9.6563846528252936e-02 1.8923289945866166e-03 0.0000000000000000e+00  9.4835808501104457e-02 1.8896690511033146e-03 0.0000000000000000e+00  9.3109354355873211e-02 1.8750289180148891e-03 0.0000000000000000e+00  9.1402765704492503e-02 1.8576605122798582e-03 0.0000000000000000e+00  8.9722726223670765e-02 1.8412314996603880e-03 0.0000000000000000e+00  8.8068531437635558e-02 1.8268007934475524e-03 0.0000000000000000e+00  8.6437519970284996e-02 1.8146315534329658e-03 0.0000000000000000e+00  8.4826298823963975e-02 1.8046214220540516e-03 0.0000000000000000e+00  8.3231497743359972e-02 1.7965277985489486e-03 0.0000000000000000e+00  8.1650058353398391e-02 1.7900665190777423e-03 0.0000000000000000e+00  8.0079342639328116e-02 1.7849563655755226e-03 0.0000000000000000e+00  7.8517150657465104e-02 1.7809400532192172e-03 0.0000000000000000e+00  7.6961693883413854e-02 1.7777924113861769e-03 0.0000000000000000e+00  7.5411549286883789e-02 1.7753222410490858e-03 0.0000000000000000e+00  7.3865606899076369e-02 1.7733709028715933e-03 0.0000000000000000e+00  7.2323017683645116e-02 1.7718093717777256e-03 0.0000000000000000e+00  7.0783145052925031e-02 1.7705347345498956e-03 0.0000000000000000e+00  6.9245521409883062e-02 1.7694666892458381e-03 0.0000000000000000e+00  6.7709809960263712e-02 1.7685443605639259e-03 0.0000000000000000e+00  6.6175771394239941e-02 1.7677235956476643e-03 0.0000000000000000e+00  6.4643234691753232e-02 1.7669748115656358e-03 0.0000000000000000e+00  6.3112071148070076e-02 1.7662814064051901e-03 0.0000000000000000e+00  6.1582170678441232e-02 1.7656387071936801e-03 0.0000000000000000e+00  6.0053419502865170e-02 1.7650534008877695e-03 0.0000000000000000e+00  5.8525678411302705e-02 1.7645433733209758e-03 0.0000000000000000e+00  5.6998760955699522e-02 1.7641378609617655e-03 0.0000000000000000e+00  5.5472411105179226e-02 1.7638777988315851e-03 0.0000000000000000e+00  5.3946280136445923e-02 1.7638162238498508e-03 0.0000000000000000e+00  5.2419902814809509e-02 1.7640185672684798e-03 0.0000000000000000e+00  5.0892673249525233e-02 1.7645626468929911e-03 0.0000000000000000e+00  4.9363821165185576e-02 1.7655381581357338e-03 0.0000000000000000e+00  4.7832389681429791e-02 1.7670454777616146e-03 0.0000000000000000e+00  4.6297215959615626e-02 1.7691936596128629e-03 0.0000000000000000e+00  4.4756916130947441e-02 1.7720976540237083e-03 0.0000000000000000e+00  4.3209875526059850e-02 1.7758750747181558e-03 0.0000000000000000e+00  4.1654244130180394e-02 1.7806433452099320e-03 0.0000000000000000e+00  4.0087934537354458e-02 1.7865188934162390e-03 0.0000000000000000e+00  3.8508615953800895e-02 1.7936214285896352e-03 0.0000000000000000e+00  3.6913686738397261e-02 1.8020885746705365e-03 0.0000000000000000e+00  3.5300206145653414e-02 1.8121102669281252e-03 0.0000000000000000e+00  3.3664694710362271e-02 1.8240004751659419e-03 0.0000000000000000e+00  3.2002843487127584e-02 1.8383420759620480e-03 0.0000000000000000e+00  3.0308371276831027e-02 1.8563014773359760e-03 0.0000000000000000e+00  2.8572720796418889e-02 1.8803127076900614e-03 0.0000000000000000e+00  2.6775978815556080e-02 1.9160625539198710e-03 0.0000000000000000e+00  2.4899401377884423e-02 1.9785487572166367e-03 0.0000000000000000e+00  2.2819857712707191e-02 2.1119417858687737e-03 0.0000000000000000e+00  2.0637980222080052e-02 2.4778365339714480e-03 0.0000000000000000e+00  1.0000000000000001e-01 0.0000000000000000e+00 0.0000000000000000e+00  9.9758820737057760e-02 1.9817392281000759e-03 0.0000000000000000e+00  9.8819713604730061e-02 2.5415307785642710e-03 0.0000000000000000e+00  9.7464752180247721e-02 2.6856408844187119e-03 0.0000000000000000e+00  9.5965977996992330e-02 2.7079559062836390e-03 0.0000000000000000e+00  9.4432699127445827e-02 2.6908671129694584e-03 0.0000000000000000e+00  9.2907727862229908e-02 2.6621025248799715e-03 0.0000000000000000e+00  9.1407366381057092e-02 2.6317884723697270e-03 0.0000000000000000e+00  8.9935488523925994e-02 2.6037966028969921e-03 0.0000000000000000e+00  8.8491261860399587e-02 2.5794875738186208e-03 0.0000000000000000e+00  8.7071717264253834e-02 2.5590968317755931e-03 0.0000000000000000e+00  8.5673270615677963e-02 2.5423776736508813e-03 0.0000000000000000e+00  8.4292360651670825e-02 2.5288863369354680e-03 0.0000000000000000e+00  8.2925756388088703e-02 2.5181234116915122e-03 0.0000000000000000e+00  8.1570673404489896e-02 2.5096025914544086e-03 0.0000000000000000e+00  8.0224795085338335e-02 2.5028826160258962e-03 0.0000000000000000e+00  7.8886245828285892e-02 2.4975799512594122e-03 0.0000000000000000e+00  7.7553542026604735e-02 2.4933711999071398e-03 0.0000000000000000e+00  7.6225535051962265e-02 2.4899902676629834e-03 0.0000000000000000e+00  7.4901353817533448e-02 2.4872231180323428e-03 0.0000000000000000e+00  7.3580350707887585e-02 2.4849017596988796e-03 0.0000000000000000e+00  7.2262052419570275e-02 2.4828984118807195e-03 0.0000000000000000e+00  7.0946115945363430e-02 2.4811203720123661e-03 0.0000000000000000e+00  6.9632289189095600e-02 2.4795058489508652e-03 0.0000000000000000e+00  6.8320375304757583e-02 2.4780208595331704e-03 0.0000000000000000e+00  6.7010199686196689e-02 2.4766571787632613e-03 0.0000000000000000e+00  6.5701578515249284e-02 2.4754312600499765e-03 0.0000000000000000e+00  6.4394287862388822e-02 2.4743839856252695e-03 0.0000000000000000e+00  6.3088032501357999e-02 2.4735810575929450e-03 0.0000000000000000e+00  6.1782413837865591e-02 2.4731137900984275e-03 0.0000000000000000e+00  6.0476896659735005e-02 2.4731000100354293e-03 0.0000000000000000e+00  5.9170774790544500e-02 2.4736847196676378e-03 0.0000000000000000e+00  5.7863136162982429e-02 2.4750401285652387e-03 0.0000000000000000e+00  5.6552828296981217e-02 2.4773646431688885e-03 0.0000000000000000e+00  5.5238425615299555e-02 2.4808804428403026e-03 0.0000000000000000e+00  5.3918200346196751e-02 2.4858294234435491e-03 0.0000000000000000e+00  5.2590098767698566e-02 2.4924676313492320e-03 0.0000000000000000e+00  5.1251723916829806e-02 2.5010589554875849e-03 0.0000000000000000e+00  4.9900324230532977e-02 2.5118699553896597e-03 0.0000000000000000e+00  4.8532783887924189e-02 2.5251695248947599e-03 0.0000000000000000e+00  4.7145604956480645e-02 2.5412400257465322e-03 0.0000000000000000e+00  4.5734857646382958e-02 2.5604113872731075e-03 0.0000000000000000e+00  4.4296066911171689e-02 2.5831382046849916e-03 0.0000000000000000e+00  4.2823930401110204e-02 2.6101568207868840e-03 0.0000000000000000e+00  4.1311861043345131e-02 2.6427970971843219e-03 0.0000000000000000e+00  3.9750625068434374e-02 2.6836196735514472e-03 0.0000000000000000e+00  3.8127466640059227e-02 2.7377998219211210e-03 0.0000000000000000e+00  3.6417505125454379e-02 2.8165900724828681e-03 0.0000000000000000e+00  3.4594656800065744e-02 2.9458122675062445e-03 0.0000000000000000e+00  3.2553319351049707e-02 3.1916805538844337e-03 0.0000000000000000e+00  3.0422861887010374e-02 3.6801711578477187e-03 0.0000000000000000e+00  1.0000000000000001e-01 0.0000000000000000e+00 0.0000000000000000e+00  9.9863503195893474e-02 2.2204262114919578e-03 0.0000000000000000e+00  9.9225685954110465e-02 3.0655175951576417e-03 0.0000000000000000e+00  9.8171492453941953e-02 3.3456578691179783e-03 0.0000000000000000e+00  9.6925018003219787e-02 3.4161034880872310e-03 0.0000000000000000e+00  9.5608076225777119e-02 3.4085218582023589e-03 0.0000000000000000e+00  9.4281506086190320e-02 3.3730435928693843e-03 0.0000000000000000e+00  9.2971226446208810e-02 3.3298422389493017e-03 0.0000000000000000e+00  9.1687037171140656e-02 3.2875179274940540e-03 0.0000000000000000e+00  9.0431039541707545e-02 3.2495223540882365e-03 0.0000000000000000e+00  8.9201664196426653e-02 3.2169671354162388e-03 0.0000000000000000e+00  8.7995857889860238e-02 3.1898715598447668e-03 0.0000000000000000e+00  8.6810122708223067e-02 3.1677588207123806e-03 0.0000000000000000e+00  8.5641060319033610e-02 3.1499588037856804e-03 0.0000000000000000e+00  8.4485619306478341e-02 3.1357611638311070e-03 0.0000000000000000e+00  8.3341190522691913e-02 3.1244921172637699e-03 0.0000000000000000e+00  8.2205619245498629e-02 3.1155499418627016e-03 0.0000000000000000e+00  8.1077174721754811e-02 3.1084180297262522e-03 0.0000000000000000e+00  7.9954499754973721e-02 3.1026659147233306e-03 0.0000000000000000e+00  7.8836553052551814e-02 3.0979442339225042e-03 0.0000000000000000e+00  7.7722551193065564e-02 3.0939771124075203e-03 0.0000000000000000e+00  7.6611913564612055e-02 3.0905540128861953e-03 0.0000000000000000e+00  7.5504211528819962e-02 3.0875222198527862e-03 0.0000000000000000e+00  7.4399121829021544e-02 3.0847805874960731e-03 0.0000000000000000e+00  7.3296383565941606e-02 3.0822748383707581e-03 0.0000000000000000e+00  7.2195757715781683e-02 3.0799944775399633e-03 0.0000000000000000e+00  7.1096988045977222e-02 3.0779712354649653e-03 0.0000000000000000e+00  6.9999762323116332e-02 3.0762788402795083e-03 0.0000000000000000e+00  6.8903672866308469e-02 3.0750338248857608e-03 0.0000000000000000e+00  6.7808175758130487e-02 3.0743969832701169e-03 0.0000000000000000e+00  6.6712548375616978e-02 3.0745749978905823e-03 0.0000000000000000e+00  6.5615845339691115e-02 3.0758216691646905e-03 0.0000000000000000e+00  6.4516853489927375e-02 3.0784381040952981e-03 0.0000000000000000e+00  6.3414047039452803e-02 3.0827711956869391e-03 0.0000000000000000e+00  6.2305544581830755e-02 3.0892098032095222e-03 0.0000000000000000e+00  6.1189069974097454e-02 3.0981783130089036e-03 0.0000000000000000e+00  6.0061919086392739e-02 3.1101278512368929e-03 0.0000000000000000e+00  5.8920933604662475e-02 3.1255265230484843e-03 0.0000000000000000e+00  5.7762481017255854e-02 3.1448519373878264e-03 0.0000000000000000e+00  5.6582435484758983e-02 3.1685923487127154e-03 0.0000000000000000e+00  5.5376147362228532e-02 3.1972676417855272e-03 0.0000000000000000e+00  5.4138373630800561e-02 3.2314894032605740e-03 0.0000000000000000e+00  5.2863130566310576e-02 3.2720928393983831e-03 0.0000000000000000e+00  5.1543357114203055e-02 3.3203999085121040e-03 0.0000000000000000e+00  5.0170370081875630e-02 3.3787245188199762e-03 0.0000000000000000e+00  4.8732433836536228e-02 3.4513683206727711e-03 0.0000000000000000e+00  4.7213842080604938e-02 3.5466192485563200e-03 0.0000000000000000e+00  4.5587442169130465e-02 3.6812064259906926e-03 0.0000000000000000e+00  4.3827497520619610e-02 3.8893893501824677e-03 0.0000000000000000e+00  4.1849239969459412e-02 4.2411409850061374e-03 0.0000000000000000e+00  3.9790601518344654e-02 4.8368283453435988e-03 0.0000000000000000e+00  1.0000000000000001e-01 0.0000000000000000e+00 0.0000000000000000e+00  9.9928564999458402e-02 2.3614928092246068e-03 0.0000000000000000e+00  9.9510533370897297e-02 3.4428924017867184e-03 0.0000000000000000e+00  9.8729557440843371e-02 3.8688478240680385e-03 0.0000000000000000e+00  9.7736549373059645e-02 4.0056448767423654e-03 0.0000000000000000e+00  9.6647015515898216e-02 4.0202049225730885e-03 0.0000000000000000e+00  9.5528908763355236e-02 3.9848913456471541e-03 0.0000000000000000e+00  9.4415759782241523e-02 3.9321113715362673e-03 0.0000000000000000e+00  9.3322921187949937e-02 3.8766191858645590e-03 0.0000000000000000e+00  9.2255800671325688e-02 3.8249318050860765e-03 0.0000000000000000e+00  9.1214783690468967e-02 3.7796205276593663e-03 0.0000000000000000e+00  9.0197857457367359e-02 3.7413060663615107e-03 0.0000000000000000e+00  8.9202024732811330e-02 3.7096669761357806e-03 0.0000000000000000e+00  8.8224072165385831e-02 3.6839610693892039e-03 0.0000000000000000e+00  8.7260958541308206e-02 3.6632999691542513e-03 0.0000000000000000e+00  8.6309996435047096e-02 3.6467930979042708e-03 0.0000000000000000e+00  8.5368915273145343e-02 3.6336196534194395e-03 0.0000000000000000e+00  8.4435859936282623e-02 3.6230606073302161e-03 0.0000000000000000e+00  8.3509355663786616e-02 3.6145085719573038e-03 0.0000000000000000e+00  8.2588257265552384e-02 3.6074659046467718e-03 0.0000000000000000e+00  8.1671692799996976e-02 3.6015371771183206e-03 0.0000000000000000e+00  8.0759007124790283e-02 3.5964196495010753e-03 0.0000000000000000e+00  7.9849707824590582e-02 3.5918938823590756e-03 0.0000000000000000e+00  7.8943414264406070e-02 3.5878156829927429e-03 0.0000000000000000e+00  7.8039809489286599e-02 3.5841099877232463e-03 0.0000000000000000e+00  7.7138594132423841e-02 3.5807668950996250e-03 0.0000000000000000e+00  7.6239441245945852e-02 3.5778398026418698e-03 0.0000000000000000e+00  7.5341950935507357e-02 3.5754454077117580e-03 0.0000000000000000e+00  7.4445603805354574e-02 3.5737651757509399e-03 0.0000000000000000e+00  7.354971