<?xml version="1.0"?>
<VTKFile type="UnstructuredGrid"  version="0.1"  >
<UnstructuredGrid>
<Piece  NumberOfPoints="121" NumberOfCells="200">
<Points>
<DataArray  type="Float64"  NumberOfComponents="3"  format="ascii">0.2400000000000002 0 0  0.4159999999999999 0 0  0.5920000000000006 0 0  0.7680000000000015 0 0  0.9440000000000042 0 0  1.12 0 0  1.296000000000003 0 0  1.472000000000005 0 0  1.647999999999995 0 0  1.823999999999997 0 0  2 0 0  0.2400000000000002 0.1 0  0.4159999999999999 0.1 0  0.5920000000000006 0.1 0  0.7680000000000015 0.1 0  0.9440000000000042 0.1 0  1.12 0.1 0  1.296000000000003 0.1 0  1.472000000000005 0.1 0  1.647999999999995 0.1 0  1.823999999999997 0.1 0  2 0.1 0  0.2400000000000002 0.2 0  0.4159999999999999 0.2 0  0.5920000000000006 0.2 0  0.7680000000000015 0.2 0  0.9440000000000042 0.2 0  1.12 0.2 0  1.296000000000003 0.2 0  1.472000000000005 0.2 0  1.647999999999995 0.2 0  1.823999999999997 0.2 0  2 0.2 0  0.2400000000000002 0.3 0  0.4159999999999999 0.3 0  0.5920000000000006 0.3 0  0.7680000000000015 0.3 0  0.9440000000000042 0.3 0  1.12 0.3 0  1.296000000000003 0.3 0  1.472000000000005 0.3 0  1.647999999999995 0.3 0  1.823999999999997 0.3 0  2 0.3 0  0.2400000000000002 0.4 0  0.4159999999999999 0.4 0  0.5920000000000006 0.4 0  0.7680000000000015 0.4 0  0.9440000000000042 0.4 0  1.12 0.4 0  1.296000000000003 0.4 0  1.472000000000005 0.4 0  1.647999999999995 0.4 0  1.823999999999997 0.4 0  2 0.4 0  0.2400000000000002 0.5 0  0.4159999999999999 0.5 0  0.5920000000000006 0.5 0  0.7680000000000015 0.5 0  0.9440000000000042 0.5 0  1.12 0.5 0  1.296000000000003 0.5 0  1.472000000000005 0.5 0  1.647999999999995 0.5 0  1.823999999999997 0.5 0  2 0.5 0  0.2400000000000002 0.6 0  0.4159999999999999 0.6 0  0.5920000000000006 0.6 0  0.7680000000000015 0.6 0  0.9440000000000042 0.6 0  1.12 0.6 0  1.296000000000003 0.6 0  1.472000000000005 0.6 0  1.647999999999995 0.6 0  1.823999999999997 0.6 0  2 0.6 0  0.2400000000000002 0.7 0  0.4159999999999999 0.7 0  0.5920000000000006 0.7 0  0.7680000000000015 0.7 0  0.9440000000000042 0.7 0  1.12 0.7 0  1.296000000000003 0.7 0  1.472000000000005 0.7 0  1.647999999999995 0.7 0  1.823999999999997 0.7 0  2 0.7 0  0.2400000000000002 0.8 0  0.4159999999999999 0.8 0  0.5920000000000006 0.8 0  0.7680000000000015 0.8 0  0.9439999999999975 0.8 0  1.12 0.8 0  1.296000000000003 0.8 0  1.472000000000005 0.8 0  1.647999999999995 0.8 0  1.823999999999997 0.8 0  2 0.8 0  0.2400000000000002 0.9 0  0.4159999999999999 0.9 0  0.5920000000000006 0.9 0  0.7680000000000015 0.9 0  0.9439999999999975 0.9 0  1.12 0.9 0  1.296000000000003 0.9 0  1.472000000000005 0.9 0  1.647999999999995 0.9 0  1.823999999999997 0.9 0  2 0.9 0  0.2400000000000002 1 0  0.4159999999999999 1 0  0.5920000000000006 1 0  0.7680000000000015 1 0  0.9439999999999975 1 0  1.12 1 0  1.296000000000003 1 0  1.472000000000005 1 0  1.647999999999995 1 0  1.823999999999997 1 0  2 1 0  </DataArray>
</Points>
<Cells>
<DataArray  type="UInt32"  Name="connectivity"  format="ascii">0 1 12  0 11 12  1 2 13  1 12 13  2 3 14  2 13 14  3 4 15  3 14 15  4 5 16  4 15 16  5 6 17  5 16 17  6 7 18  6 17 18  7 8 19  7 18 19  8 9 20  8 19 20  9 10 21  9 20 21  11 12 23  11 22 23  12 13 24  12 23 24  13 14 25  13 24 25  14 15 26  14 25 26  15 16 27  15 26 27  16 17 28  16 27 28  17 18 29  17 28 29  18 19 30  18 29 30  19 20 31  19 30 31  20 21 32  20 31 32  22 23 34  22 33 34  23 24 35  23 34 35  24 25 36  24 35 36  25 26 37  25 36 37  26 27 38  26 37 38  27 28 39  27 38 39  28 29 40  28 39 40  29 30 41  29 40 41  30 31 42  30 41 42  31 32 43  31 42 43  33 34 45  33 44 45  34 35 46  34 45 46  35 36 47  35 46 47  36 37 48  36 47 48  37 38 49  37 48 49  38 39 50  38 49 50  39 40 51  39 50 51  40 41 52  40 51 52  41 42 53  41 52 53  42 43 54  42 53 54  44 45 56  44 55 56  45 46 57  45 56 57  46 47 58  46 57 58  47 48 59  47 58 59  48 49 60  48 59 60  49 50 61  49 60 61  50 51 62  50 61 62  51 52 63  51 62 63  52 53 64  52 63 64  53 54 65  53 64 65  55 56 67  55 66 67  56 57 68  56 67 68  57 58 69  57 68 69  58 59 70  58 69 70  59 60 71  59 70 71  60 61 72  60 71 72  61 62 73  61 72 73  62 63 74  62 73 74  63 64 75  63 74 75  64 65 76  64 75 76  66 67 78  66 77 78  67 68 79  67 78 79  68 69 80  68 79 80  69 70 81  69 80 81  70 71 82  70 81 82  71 72 83  71 82 83  72 73 84  72 83 84  73 74 85  73 84 85  74 75 86  74 85 86  75 76 87  75 86 87  77 78 89  77 88 89  78 79 90  78 89 90  79 80 91  79 90 91  80 81 92  80 91 92  81 82 93  81 92 93  82 83 94  82 93 94  83 84 95  83 94 95  84 85 96  84 95 96  85 86 97  85 96 97  86 87 98  86 97 98  88 89 100  88 99 100  89 90 101  89 100 101  90 91 102  90 101 102  91 92 103  91 102 103  92 93 104  92 103 104  93 94 105  93 104 105  94 95 106  94 105 106  95 96 107  95 106 107  96 97 108  96 107 108  97 98 109  97 108 109  99 100 111  99 110 111  100 101 112  100 111 112  101 102 113  101 112 113  102 103 114  102 113 114  103 104 115  103 114 115  104 105 116  104 115 116  105 106 117  105 116 117  106 107 118  106 117 118  107 108 119  107 118 119  108 109 120  108 119 120  </DataArray>
<DataArray  type="UInt32"  Name="offsets"  format="ascii">3 6 9 12 15 18 21 24 27 30 33 36 39 42 45 48 51 54 57 60 63 66 69 72 75 78 81 84 87 90 93 96 99 102 105 108 111 114 117 120 123 126 129 132 135 138 141 144 147 150 153 156 159 162 165 168 171 174 177 180 183 186 189 192 195 198 201 204 207 210 213 216 219 222 225 228 231 234 237 240 243 246 249 252 255 258 261 264 267 270 273 276 279 282 285 288 291 294 297 300 303 306 309 312 315 318 321 324 327 330 333 336 339 342 345 348 351 354 357 360 363 366 369 372 375 378 381 384 387 390 393 396 399 402 405 408 411 414 417 420 423 426 429 432 435 438 441 444 447 450 453 456 459 462 465 468 471 474 477 480 483 486 489 492 495 498 501 504 507 510 513 516 519 522 525 528 531 534 537 540 543 546 549 552 555 558 561 564 567 570 573 576 579 582 585 588 591 594 597 600 </DataArray>
<DataArray  type="UInt8"  Name="types"  format="ascii">5 5 5 5 5 5 5 5 5 5 5 5 5 5 5 5 5 5 5 5 5 5 5 5 5 5 5 5 5 5 5 5 5 5 5 5 5 5 5 5 5 5 5 5 5 5 5 5 5 5 5 5 5 5 5 5 5 5 5 5 5 5 5 5 5 5 5 5 5 5 5 5 5 5 5 5 5 5 5 5 5 5 5 5 5 5 5 5 5 5 5 5 5 5 5 5 5 5 5 5 5 5 5 5 5 5 5 5 5 5 5 5 5 5 5 5 5 5 5 5 5 5 5 5 5 5 5 5 5 5 5 5 5 5 5 5 5 5 5 5 5 5 5 5 5 5 5 5 5 5 5 5 5 5 5 5 5 5 5 5 5 5 5 5 5 5 5 5 5 5 5 5 5 5 5 5 5 5 5 5 5 5 5 5 5 5 5 5 5 5 5 5 5 5 5 5 5 5 5 5 </DataArray>
</Cells>
<PointData  Vectors="f_24-0"> 
<DataArray  type="Float64"  Name="f_24-0"  NumberOfComponents="3" format="ascii">1.0000000000000001e-01 1.0000000000000001e-01 0.0000000000000000e+00  1.0000000000000001e-01 1.0000000000000001e-01 0.0000000000000000e+00  1.0000000000000001e-01 1.0000000000000001e-01 0.0000000000000000e+00  1.0000000000000001e-01 1.0000000000000001e-01 0.0000000000000000e+00  1.0000000000000001e-01 1.0000000000000001e-01 0.0000000000000000e+00  0.0000000000000000e+00 1.0000000000000001e-01 0.0000000000000000e+00  0.0000000000000000e+00 1.0000000000000001e-01 0.0000000000000000e+00  0.0000000000000000e+00 1.0000000000000001e-01 0.0000000000000000e+00  0.0000000000000000e+00 1.0000000000000001e-01 0.0000000000000000e+00  0.0000000000000000e+00 1.0000000000000001e-01 0.0000000000000000e+00  1.0000000000000001e-01 1.0000000000000001e-01 0.0000000000000000e+00  1.0000000000000001e-01 0.0000000000000000e+00 0.0000000000000000e+00  1.4174215782471999e-01 1.0654582341370589e-01 0.0000000000000000e+00  1.3103062946170388e-01 1.0255695427143811e-01 0.0000000000000000e+00  1.2955830813373037e-01 1.0144844853197141e-01 0.0000000000000000e+00  1.1881953558260586e-01 1.2724902135830596e-01 0.0000000000000000e+00  1.1778184945649181e-01 1.0113141271600290e-01 0.0000000000000000e+00  1.1580405960648626e-01 9.8391764094828929e-02 0.0000000000000000e+00  1.2640903843139323e-01 9.5114975350666583e-02 0.0000000000000000e+00  1.4965656583149933e-01 9.6963556719914495e-02 0.0000000000000000e+00  1.4411450287517488e-01 8.1336361129994483e-02 0.0000000000000000e+00  2.5588661578424038e-01 9.6822609893989525e-02 0.0000000000000000e+00  1.0000000000000001e-01 0.0000000000000000e+00 0.0000000000000000e+00  1.3394027599402836e-01 9.4251864086830978e-02 0.0000000000000000e+00  1.4896977129181899e-01 1.0142456950135668e-01 0.0000000000000000e+00  1.5584821619881400e-01 1.0431436091218502e-01 0.0000000000000000e+00  1.6881760724302858e-01 1.1753825758556068e-01 0.0000000000000000e+00  1.9090259292360268e-01 1.0261188667814511e-01 0.0000000000000000e+00  2.0467178443281236e-01 9.1041687146784345e-02 0.0000000000000000e+00  2.2314474554221239e-01 8.5386951385232959e-02 0.0000000000000000e+00  2.5557001053342526e-01 8.0816956967296474e-02 0.0000000000000000e+00  2.5245708226146868e-01 7.4662318391154850e-02 0.0000000000000000e+00  3.6772384634276828e-01 9.4688309771694276e-02 0.0000000000000000e+00  1.0000000000000001e-01 0.0000000000000000e+00 0.0000000000000000e+00  1.2602929749530545e-01 7.9388523764726299e-02 0.0000000000000000e+00  1.5482362724110368e-01 9.2562597415817710e-02 0.0000000000000000e+00  1.7558937340827116e-01 9.5901044027608434e-02 0.0000000000000000e+00  2.0409054417181860e-01 1.0040212491213404e-01 0.0000000000000000e+00  2.3732663292803891e-01 9.0823599814775474e-02 0.0000000000000000e+00  2.6411450966234007e-01 7.8522487388650600e-02 0.0000000000000000e+00  2.8886840402519870e-01 7.0875013980465265e-02 0.0000000000000000e+00  3.2395455574170595e-01 6.4662161977147428e-02 0.0000000000000000e+00  3.2279235407967360e-01 6.4182724786746234e-02 0.0000000000000000e+00  4.3644368451221627e-01 9.1488824608810734e-02 0.0000000000000000e+00  1.0000000000000001e-01 0.0000000000000000e+00 0.0000000000000000e+00  1.2101424505810872e-01 5.9195074550607671e-02 0.0000000000000000e+00  1.5388490057154453e-01 7.6658538244832319e-02 0.0000000000000000e+00  1.8573213243949221e-01 7.9616627880950364e-02 0.0000000000000000e+00  2.2339895173710264e-01 7.8891891740814887e-02 0.0000000000000000e+00  2.6291552295903126e-01 7.1851998797997446e-02 0.0000000000000000e+00  2.9674723489095955e-01 6.2341725950111969e-02 0.0000000000000000e+00  3.2467625703688935e-01 5.4691135852794608e-02 0.0000000000000000e+00  3.5904586532422739e-01 4.8919145629636604e-02 0.0000000000000000e+00  3.5824603992364418e-01 5.2877140922594039e-02 0.0000000000000000e+00  4.6763565569203669e-01 8.7449524556976174e-02 0.0000000000000000e+00  1.0000000000000001e-01 0.0000000000000000e+00 0.0000000000000000e+00  1.1706510355386829e-01 4.1828961879323251e-02 0.0000000000000000e+00  1.4956700890324029e-01 5.7923949063771095e-02 0.0000000000000000e+00  1.8592938572405718e-01 5.8621673202593788e-02 0.0000000000000000e+00  2.2762299420402188e-01 5.4798040012430459e-02 0.0000000000000000e+00  2.6959354634983074e-01 5.0034588092091679e-02 0.0000000000000000e+00  3.0508761854336053e-01 4.4505717081145271e-02 0.0000000000000000e+00  3.3255327722828609e-01 3.8654059206261221e-02 0.0000000000000000e+00  3.6380715154190790e-01 3.4536297548809498e-02 0.0000000000000000e+00  3.6225715328734298e-01 4.1938561781585219e-02 0.0000000000000000e+00  4.6618460239658094e-01 8.2196014484470684e-02 0.0000000000000000e+00  1.0000000000000001e-01 0.0000000000000000e+00 0.0000000000000000e+00  1.1356984921524707e-01 2.6911343722230301e-02 0.0000000000000000e+00  1.4226614773782439e-01 3.8756905730485361e-02 0.0000000000000000e+00  1.7688119640327873e-01 3.6505771258848123e-02 0.0000000000000000e+00  2.1792839422490659e-01 3.0068678478553691e-02 0.0000000000000000e+00  2.5839199287990239e-01 2.8240244893428725e-02 0.0000000000000000e+00  2.9073941827226896e-01 2.7495663420956259e-02 0.0000000000000000e+00  3.1435638930755289e-01 2.4447926413608073e-02 0.0000000000000000e+00  3.4075429702479965e-01 2.2264296369209131e-02 0.0000000000000000e+00  3.3777266465279782e-01 3.1858352243767707e-02 0.0000000000000000e+00  4.3615134528232757e-01 7.4899564693051521e-02 0.0000000000000000e+00  1.0000000000000001e-01 0.0000000000000000e+00 0.0000000000000000e+00  1.0993133931304691e-01 1.5012106754487786e-02 0.0000000000000000e+00  1.3261019215910499e-01 2.2175641877453918e-02 0.0000000000000000e+00  1.5977168635775846e-01 1.7047592214474657e-02 0.0000000000000000e+00  1.9526244834916859e-01 6.6164658773795789e-03 0.0000000000000000e+00  2.2969740712181796e-01 9.2662165923545117e-03 0.0000000000000000e+00  2.5421137410342093e-01 1.3671862202329561e-02 0.0000000000000000e+00  2.7138785045023217e-01 1.3138813664947090e-02 0.0000000000000000e+00  2.9191039657291096e-01 1.2481243823164503e-02 0.0000000000000000e+00  2.8725137678776719e-01 2.2616673665475311e-02 0.0000000000000000e+00  3.8100756344016157e-01 6.4506488840460910e-02 0.0000000000000000e+00  1.0000000000000001e-01 0.0000000000000000e+00 0.0000000000000000e+00  1.0603448021340346e-01 6.5054832518670041e-03 0.0000000000000000e+00  1.2203199423629664e-01 1.0031431462415887e-02 0.0000000000000000e+00  1.3652087665721058e-01 4.2471942353169397e-03 0.0000000000000000e+00  1.6077632673628162e-01 -1.3973142970774958e-02 0.0000000000000000e+00  1.8234602600661975e-01 -3.2382949523760817e-03 0.0000000000000000e+00  1.9463166512660912e-01 4.7393289779549255e-03 0.0000000000000000e+00  2.0448159179415493e-01 5.3590269333426976e-03 0.0000000000000000e+00  2.1867403054992679e-01 6.0445595351597530e-03 0.0000000000000000e+00  2.1245216936428790e-01 1.3819975744323528e-02 0.0000000000000000e+00  3.0402557558488474e-01 4.9893858237936663e-02 0.0000000000000000e+00  1.0000000000000001e-01 0.0000000000000000e+00 0.0000000000000000e+00  1.0225788203507405e-01 1.5933112644086036e-03 0.0000000000000000e+00  1.1165466527054910e-01 2.6410279588293911e-03 0.0000000000000000e+00  1.1271005190454719e-01 -5.0097550403280157e-04 0.0000000000000000e+00  1.1657164506638173e-01 -2.6082546266572578e-02 0.0000000000000000e+00  1.1051724949300393e-01 -4.9344056109777035e-03 0.0000000000000000e+00  1.1010605824147542e-01 7.9339811917443557e-04 0.0000000000000000e+00  1.1402710324264716e-01 1.1640229314299052e-03 0.0000000000000000e+00  1.2122378509247882e-01 1.9337432959765631e-03 0.0000000000000000e+00  1.1440636585912244e-01 2.0231894915911674e-03 0.0000000000000000e+00  2.0857954553465569e-01 2.9569796438984653e-02 0.0000000000000000e+00  1.0000000000000001e-01 0.0000000000000000e+00 0.0000000000000000e+00  1.0000000000000001e-01 0.0000000000000000e+00 0.0000000000000000e+00  1.0000000000000001e-01 0.0000000000000000e+00 0.0000000000000000e+00  1.0000000000000001e-01 0.0000000000000000e+00 0.0000000000000000e+00  1.0000000000000001e-01 0.0000000000000000e+00 0.0000000000000000e+00  0.0000000000000000e+00 0.0000000000000000e+00 0.0000000000000000e+00  0.0000000000000000e+00 0.0000000000000000e+00 0.0000000000000000e+00  0.0000000000000000e+00 0.0000000000000000e+00 0.0000000000000000e+00  0.0000000000000000e+00 0.0000000000000000e+00 0.0000000000000000e+00  0.0000000000000000e+00 0.0000000000000000e+00 0.0000000000000000e+00  1.0000000000000001e-01 0.0000000000000000e+00 0.0000000000000000e+00  </DataArray> 
</PointData> 
</Piece>
</UnstructuredGrid>
</VTKFile>