<?xml version="1.0"?>
<VTKFile type="UnstructuredGrid"  version="0.1"  >
<UnstructuredGrid>
<Piece  NumberOfPoints="841" NumberOfCells="1600">
<Points>
<DataArray  type="Float64"  NumberOfComponents="3"  format="ascii">0 0 0  0.1 0 0  0.2 0 0  0.3 0 0  0.4 0 0  0.5 0 0  0.6 0 0  0.7 0 0  0.8 0 0  0.9 0 0  1 0 0  1.1 0 0  1.2 0 0  1.3 0 0  1.4 0 0  1.5 0 0  1.6 0 0  1.7 0 0  1.8 0 0  1.9 0 0  2 0 0  0 0.05 0  0.1 0.05 0  0.2 0.05 0  0.3 0.05 0  0.4 0.05 0  0.5 0.05 0  0.6 0.05 0  0.7 0.05 0  0.8 0.05 0  0.9 0.05 0  1 0.05 0  1.1 0.05 0  1.2 0.05 0  1.3 0.05 0  1.4 0.05 0  1.5 0.05 0  1.6 0.05 0  1.7 0.05 0  1.8 0.05 0  1.9 0.05 0  2 0.05 0  0 0.1 0  0.1 0.1 0  0.2 0.1 0  0.3 0.1 0  0.4 0.1 0  0.5 0.1 0  0.6 0.1 0  0.7 0.1 0  0.8 0.1 0  0.9 0.1 0  1 0.1 0  1.1 0.1 0  1.2 0.1 0  1.3 0.1 0  1.4 0.1 0  1.5 0.1 0  1.6 0.1 0  1.7 0.1 0  1.8 0.1 0  1.9 0.1 0  2 0.1 0  0 0.15 0  0.1 0.15 0  0.2 0.15 0  0.3 0.15 0  0.4 0.15 0  0.5 0.15 0  0.6 0.15 0  0.7 0.15 0  0.8 0.15 0  0.9 0.15 0  1 0.15 0  1.1 0.15 0  1.2 0.15 0  1.3 0.15 0  1.4 0.15 0  1.5 0.15 0  1.6 0.15 0  1.7 0.15 0  1.8 0.15 0  1.9 0.15 0  2 0.15 0  0 0.2 0  0.1 0.2 0  0.2 0.2 0  0.3 0.2 0  0.4 0.2 0  0.5 0.2 0  0.6 0.2 0  0.7 0.2 0  0.8 0.2 0  0.9 0.2 0  1 0.2 0  1.1 0.2 0  1.2 0.2 0  1.3 0.2 0  1.4 0.2 0  1.5 0.2 0  1.6 0.2 0  1.7 0.2 0  1.8 0.2 0  1.9 0.2 0  2 0.2 0  0 0.25 0  0.1 0.25 0  0.2 0.25 0  0.3 0.25 0  0.4 0.25 0  0.5 0.25 0  0.6 0.25 0  0.7 0.25 0  0.8 0.25 0  0.9 0.25 0  1 0.25 0  1.1 0.25 0  1.2 0.25 0  1.3 0.25 0  1.4 0.25 0  1.5 0.25 0  1.6 0.25 0  1.7 0.25 0  1.8 0.25 0  1.9 0.25 0  2 0.25 0  0 0.3 0  0.1 0.3 0  0.2 0.3 0  0.3 0.3 0  0.4 0.3 0  0.5 0.3 0  0.6 0.3 0  0.7 0.3 0  0.8 0.3 0  0.9 0.3 0  1 0.3 0  1.1 0.3 0  1.2 0.3 0  1.3 0.3 0  1.4 0.3 0  1.5 0.3 0  1.6 0.3 0  1.7 0.3 0  1.8 0.3 0  1.9 0.3 0  2 0.3 0  0 0.35 0  0.1 0.35 0  0.2 0.35 0  0.3 0.35 0  0.4 0.35 0  0.5 0.35 0  0.6 0.35 0  0.7 0.35 0  0.8 0.35 0  0.9 0.35 0  1 0.35 0  1.1 0.35 0  1.2 0.35 0  1.3 0.35 0  1.4 0.35 0  1.5 0.35 0  1.6 0.35 0  1.7 0.35 0  1.8 0.35 0  1.9 0.35 0  2 0.35 0  0 0.4 0  0.1 0.4 0  0.2 0.4 0  0.3 0.4 0  0.4 0.4 0  0.5 0.4 0  0.6 0.4 0  0.7 0.4 0  0.8 0.4 0  0.9 0.4 0  1 0.4 0  1.1 0.4 0  1.2 0.4 0  1.3 0.4 0  1.4 0.4 0  1.5 0.4 0  1.6 0.4 0  1.7 0.4 0  1.8 0.4 0  1.9 0.4 0  2 0.4 0  0 0.45 0  0.1 0.45 0  0.2 0.45 0  0.3 0.45 0  0.4 0.45 0  0.5 0.45 0  0.6 0.45 0  0.7 0.45 0  0.8 0.45 0  0.9 0.45 0  1 0.45 0  1.1 0.45 0  1.2 0.45 0  1.3 0.45 0  1.4 0.45 0  1.5 0.45 0  1.6 0.45 0  1.7 0.45 0  1.8 0.45 0  1.9 0.45 0  2 0.45 0  0 0.5 0  0.1 0.5 0  0.2 0.5 0  0.3 0.5 0  0.4 0.5 0  0.5 0.5 0  0.6 0.5 0  0.7 0.5 0  0.8 0.5 0  0.9 0.5 0  1 0.5 0  1.1 0.5 0  1.2 0.5 0  1.3 0.5 0  1.4 0.5 0  1.5 0.5 0  1.6 0.5 0  1.7 0.5 0  1.8 0.5 0  1.9 0.5 0  2 0.5 0  0 0.55 0  0.1 0.55 0  0.2 0.55 0  0.3 0.55 0  0.4 0.55 0  0.5 0.55 0  0.6 0.55 0  0.7 0.55 0  0.8 0.55 0  0.9 0.55 0  1 0.55 0  1.1 0.55 0  1.2 0.55 0  1.3 0.55 0  1.4 0.55 0  1.5 0.55 0  1.6 0.55 0  1.7 0.55 0  1.8 0.55 0  1.9 0.55 0  2 0.55 0  0 0.6 0  0.1 0.6 0  0.2 0.6 0  0.3 0.6 0  0.4 0.6 0  0.5 0.6 0  0.6 0.6 0  0.7 0.6 0  0.8 0.6 0  0.9 0.6 0  1 0.6 0  1.1 0.6 0  1.2 0.6 0  1.3 0.6 0  1.4 0.6 0  1.5 0.6 0  1.6 0.6 0  1.7 0.6 0  1.8 0.6 0  1.9 0.6 0  2 0.6 0  0 0.65 0  0.1 0.65 0  0.2 0.65 0  0.3 0.65 0  0.4 0.65 0  0.5 0.65 0  0.6 0.65 0  0.7 0.65 0  0.8 0.65 0  0.9 0.65 0  1 0.65 0  1.1 0.65 0  1.2 0.65 0  1.3 0.65 0  1.4 0.65 0  1.5 0.65 0  1.6 0.65 0  1.7 0.65 0  1.8 0.65 0  1.9 0.65 0  2 0.65 0  0 0.7 0  0.1 0.7 0  0.2 0.7 0  0.3 0.7 0  0.4 0.7 0  0.5 0.7 0  0.6 0.7 0  0.7 0.7 0  0.8 0.7 0  0.9 0.7 0  1 0.7 0  1.1 0.7 0  1.2 0.7 0  1.3 0.7 0  1.4 0.7 0  1.5 0.7 0  1.6 0.7 0  1.7 0.7 0  1.8 0.7 0  1.9 0.7 0  2 0.7 0  0 0.75 0  0.1 0.75 0  0.2 0.75 0  0.3 0.75 0  0.4 0.75 0  0.5 0.75 0  0.6 0.75 0  0.7 0.75 0  0.8 0.75 0  0.9 0.75 0  1 0.75 0  1.1 0.75 0  1.2 0.75 0  1.3 0.75 0  1.4 0.75 0  1.5 0.75 0  1.6 0.75 0  1.7 0.75 0  1.8 0.75 0  1.9 0.75 0  2 0.75 0  0 0.8 0  0.1 0.8 0  0.2 0.8 0  0.3 0.8 0  0.4 0.8 0  0.5 0.8 0  0.6 0.8 0  0.7 0.8 0  0.8 0.8 0  0.9 0.8 0  1 0.8 0  1.1 0.8 0  1.2 0.8 0  1.3 0.8 0  1.4 0.8 0  1.5 0.8 0  1.6 0.8 0  1.7 0.8 0  1.8 0.8 0  1.9 0.8 0  2 0.8 0  0 0.85 0  0.1 0.85 0  0.2 0.85 0  0.3 0.85 0  0.4 0.85 0  0.5 0.85 0  0.6 0.85 0  0.7 0.85 0  0.8 0.85 0  0.9 0.85 0  1 0.85 0  1.1 0.85 0  1.2 0.85 0  1.3 0.85 0  1.4 0.85 0  1.5 0.85 0  1.6 0.85 0  1.7 0.85 0  1.8 0.85 0  1.9 0.85 0  2 0.85 0  0 0.9 0  0.1 0.9 0  0.2 0.9 0  0.3 0.9 0  0.4 0.9 0  0.5 0.9 0  0.6 0.9 0  0.7 0.9 0  0.8 0.9 0  0.9 0.9 0  1 0.9 0  1.1 0.9 0  1.2 0.9 0  1.3 0.9 0  1.4 0.9 0  1.5 0.9 0  1.6 0.9 0  1.7 0.9 0  1.8 0.9 0  1.9 0.9 0  2 0.9 0  0 0.95 0  0.1 0.95 0  0.2 0.95 0  0.3 0.95 0  0.4 0.95 0  0.5 0.95 0  0.6 0.95 0  0.7 0.95 0  0.8 0.95 0  0.9 0.95 0  1 0.95 0  1.1 0.95 0  1.2 0.95 0  1.3 0.95 0  1.4 0.95 0  1.5 0.95 0  1.6 0.95 0  1.7 0.95 0  1.8 0.95 0  1.9 0.95 0  2 0.95 0  0 1 0  0.1 1 0  0.2 1 0  0.3 1 0  0.4 1 0  0.5 1 0  0.6 1 0  0.7 1 0  0.8 1 0  0.9 1 0  1 1 0  1.1 1 0  1.2 1 0  1.3 1 0  1.4 1 0  1.5 1 0  1.6 1 0  1.7 1 0  1.8 1 0  1.9 1 0  2 1 0  0.05 0.025 0  0.15 0.025 0  0.25 0.025 0  0.35 0.025 0  0.45 0.025 0  0.55 0.025 0  0.65 0.025 0  0.75 0.025 0  0.85 0.025 0  0.95 0.025 0  1.05 0.025 0  1.15 0.025 0  1.25 0.025 0  1.35 0.025 0  1.45 0.025 0  1.55 0.025 0  1.65 0.025 0  1.75 0.025 0  1.85 0.025 0  1.95 0.025 0  0.05 0.075 0  0.15 0.075 0  0.25 0.075 0  0.35 0.075 0  0.45 0.075 0  0.55 0.075 0  0.65 0.075 0  0.75 0.075 0  0.85 0.075 0  0.95 0.075 0  1.05 0.075 0  1.15 0.075 0  1.25 0.075 0  1.35 0.075 0  1.45 0.075 0  1.55 0.075 0  1.65 0.075 0  1.75 0.075 0  1.85 0.075 0  1.95 0.075 0  0.05 0.125 0  0.15 0.125 0  0.25 0.125 0  0.35 0.125 0  0.45 0.125 0  0.55 0.125 0  0.65 0.125 0  0.75 0.125 0  0.85 0.125 0  0.95 0.125 0  1.05 0.125 0  1.15 0.125 0  1.25 0.125 0  1.35 0.125 0  1.45 0.125 0  1.55 0.125 0  1.65 0.125 0  1.75 0.125 0  1.85 0.125 0  1.95 0.125 0  0.05 0.175 0  0.15 0.175 0  0.25 0.175 0  0.35 0.175 0  0.45 0.175 0  0.55 0.175 0  0.65 0.175 0  0.75 0.175 0  0.85 0.175 0  0.95 0.175 0  1.05 0.175 0  1.15 0.175 0  1.25 0.175 0  1.35 0.175 0  1.45 0.175 0  1.55 0.175 0  1.65 0.175 0  1.75 0.175 0  1.85 0.175 0  1.95 0.175 0  0.05 0.225 0  0.15 0.225 0  0.25 0.225 0  0.35 0.225 0  0.45 0.225 0  0.55 0.225 0  0.65 0.225 0  0.75 0.225 0  0.85 0.225 0  0.95 0.225 0  1.05 0.225 0  1.15 0.225 0  1.25 0.225 0  1.35 0.225 0  1.45 0.225 0  1.55 0.225 0  1.65 0.225 0  1.75 0.225 0  1.85 0.225 0  1.95 0.225 0  0.05 0.275 0  0.15 0.275 0  0.25 0.275 0  0.35 0.275 0  0.45 0.275 0  0.55 0.275 0  0.65 0.275 0  0.75 0.275 0  0.85 0.275 0  0.95 0.275 0  1.05 0.275 0  1.15 0.275 0  1.25 0.275 0  1.35 0.275 0  1.45 0.275 0  1.55 0.275 0  1.65 0.275 0  1.75 0.275 0  1.85 0.275 0  1.95 0.275 0  0.05 0.325 0  0.15 0.325 0  0.25 0.325 0  0.35 0.325 0  0.45 0.325 0  0.55 0.325 0  0.65 0.325 0  0.75 0.325 0  0.85 0.325 0  0.95 0.325 0  1.05 0.325 0  1.15 0.325 0  1.25 0.325 0  1.35 0.325 0  1.45 0.325 0  1.55 0.325 0  1.65 0.325 0  1.75 0.325 0  1.85 0.325 0  1.95 0.325 0  0.05 0.375 0  0.15 0.375 0  0.25 0.375 0  0.35 0.375 0  0.45 0.375 0  0.55 0.375 0  0.65 0.375 0  0.75 0.375 0  0.85 0.375 0  0.95 0.375 0  1.05 0.375 0  1.15 0.375 0  1.25 0.375 0  1.35 0.375 0  1.45 0.375 0  1.55 0.375 0  1.65 0.375 0  1.75 0.375 0  1.85 0.375 0  1.95 0.375 0  0.05 0.425 0  0.15 0.425 0  0.25 0.425 0  0.35 0.425 0  0.45 0.425 0  0.55 0.425 0  0.65 0.425 0  0.75 0.425 0  0.85 0.425 0  0.95 0.425 0  1.05 0.425 0  1.15 0.425 0  1.25 0.425 0  1.35 0.425 0  1.45 0.425 0  1.55 0.425 0  1.65 0.425 0  1.75 0.425 0  1.85 0.425 0  1.95 0.425 0  0.05 0.475 0  0.15 0.475 0  0.25 0.475 0  0.35 0.475 0  0.45 0.475 0  0.55 0.475 0  0.65 0.475 0  0.75 0.475 0  0.85 0.475 0  0.95 0.475 0  1.05 0.475 0  1.15 0.475 0  1.25 0.475 0  1.35 0.475 0  1.45 0.475 0  1.55 0.475 0  1.65 0.475 0  1.75 0.475 0  1.85 0.475 0  1.95 0.475 0  0.05 0.525 0  0.15 0.525 0  0.25 0.525 0  0.35 0.525 0  0.45 0.525 0  0.55 0.525 0  0.65 0.525 0  0.75 0.525 0  0.85 0.525 0  0.95 0.525 0  1.05 0.525 0  1.15 0.525 0  1.25 0.525 0  1.35 0.525 0  1.45 0.525 0  1.55 0.525 0  1.65 0.525 0  1.75 0.525 0  1.85 0.525 0  1.95 0.525 0  0.05 0.575 0  0.15 0.575 0  0.25 0.575 0  0.35 0.575 0  0.45 0.575 0  0.55 0.575 0  0.65 0.575 0  0.75 0.575 0  0.85 0.575 0  0.95 0.575 0  1.05 0.575 0  1.15 0.575 0  1.25 0.575 0  1.35 0.575 0  1.45 0.575 0  1.55 0.575 0  1.65 0.575 0  1.75 0.575 0  1.85 0.575 0  1.95 0.575 0  0.05 0.625 0  0.15 0.625 0  0.25 0.625 0  0.35 0.625 0  0.45 0.625 0  0.55 0.625 0  0.65 0.625 0  0.75 0.625 0  0.85 0.625 0  0.95 0.625 0  1.05 0.625 0  1.15 0.625 0  1.25 0.625 0  1.35 0.625 0  1.45 0.625 0  1.55 0.625 0  1.65 0.625 0  1.75 0.625 0  1.85 0.625 0  1.95 0.625 0  0.05 0.675 0  0.15 0.675 0  0.25 0.675 0  0.35 0.675 0  0.45 0.675 0  0.55 0.675 0  0.65 0.675 0  0.75 0.675 0  0.85 0.675 0  0.95 0.675 0  1.05 0.675 0  1.15 0.675 0  1.25 0.675 0  1.35 0.675 0  1.45 0.675 0  1.55 0.675 0  1.65 0.675 0  1.75 0.675 0  1.85 0.675 0  1.95 0.675 0  0.05 0.725 0  0.15 0.725 0  0.25 0.725 0  0.35 0.725 0  0.45 0.725 0  0.55 0.725 0  0.65 0.725 0  0.75 0.725 0  0.85 0.725 0  0.95 0.725 0  1.05 0.725 0  1.15 0.725 0  1.25 0.725 0  1.35 0.725 0  1.45 0.725 0  1.55 0.725 0  1.65 0.725 0  1.75 0.725 0  1.85 0.725 0  1.95 0.725 0  0.05 0.775 0  0.15 0.775 0  0.25 0.775 0  0.35 0.775 0  0.45 0.775 0  0.55 0.775 0  0.65 0.775 0  0.75 0.775 0  0.85 0.775 0  0.95 0.775 0  1.05 0.775 0  1.15 0.775 0  1.25 0.775 0  1.35 0.775 0  1.45 0.775 0  1.55 0.775 0  1.65 0.775 0  1.75 0.775 0  1.85 0.775 0  1.95 0.775 0  0.05 0.825 0  0.15 0.825 0  0.25 0.825 0  0.35 0.825 0  0.45 0.825 0  0.55 0.825 0  0.65 0.825 0  0.75 0.825 0  0.85 0.825 0  0.95 0.825 0  1.05 0.825 0  1.15 0.825 0  1.25 0.825 0  1.35 0.825 0  1.45 0.825 0  1.55 0.825 0  1.65 0.825 0  1.75 0.825 0  1.85 0.825 0  1.95 0.825 0  0.05 0.875 0  0.15 0.875 0  0.25 0.875 0  0.35 0.875 0  0.45 0.875 0  0.55 0.875 0  0.65 0.875 0  0.75 0.875 0  0.85 0.875 0  0.95 0.875 0  1.05 0.875 0  1.15 0.875 0  1.
[...]
<PointData  Vectors="f_25-0"> 
<DataArray  type="Float64"  Name="f_25-0"  NumberOfComponents="3" format="ascii">8.2896629054951751e-02 0.0000000000000000e+00 0.0000000000000000e+00  7.8751797602204507e-02 0.0000000000000000e+00 0.0000000000000000e+00  7.4606966149457180e-02 0.0000000000000000e+00 0.0000000000000000e+00  7.0462134696709755e-02 0.0000000000000000e+00 0.0000000000000000e+00  6.6317303243962289e-02 0.0000000000000000e+00 0.0000000000000000e+00  6.2172471791214844e-02 0.0000000000000000e+00 0.0000000000000000e+00  5.8027640338467301e-02 0.0000000000000000e+00 0.0000000000000000e+00  5.3882808885719745e-02 0.0000000000000000e+00 0.0000000000000000e+00  4.9737977432972105e-02 0.0000000000000000e+00 0.0000000000000000e+00  4.5593145980224466e-02 0.0000000000000000e+00 0.0000000000000000e+00  4.1448314527476916e-02 0.0000000000000000e+00 0.0000000000000000e+00  3.7303483074729367e-02 0.0000000000000000e+00 0.0000000000000000e+00  3.3158651621981804e-02 0.0000000000000000e+00 0.0000000000000000e+00  2.9013820169234202e-02 0.0000000000000000e+00 0.0000000000000000e+00  2.4868988716486545e-02 0.0000000000000000e+00 0.0000000000000000e+00  2.0724157263738857e-02 0.0000000000000000e+00 0.0000000000000000e+00  1.6579325810991145e-02 0.0000000000000000e+00 0.0000000000000000e+00  1.2434494358243408e-02 0.0000000000000000e+00 0.0000000000000000e+00  8.2896629054956365e-03 0.0000000000000000e+00 0.0000000000000000e+00  4.1448314527478391e-03 0.0000000000000000e+00 0.0000000000000000e+00  7.3626996992498815e-18 0.0000000000000000e+00 0.0000000000000000e+00  8.2896629054951598e-02 0.0000000000000000e+00 0.0000000000000000e+00  8.1146165665748074e-02 1.7766778227060931e-03 0.0000000000000000e+00  7.8004228065091899e-02 1.8410348746281148e-03 0.0000000000000000e+00  7.4908569486909243e-02 1.7895391435523349e-03 0.0000000000000000e+00  7.1946209365625124e-02 1.7574726860769840e-03 0.0000000000000000e+00  6.9071648632420796e-02 1.7392433947608051e-03 0.0000000000000000e+00  6.6245671970529454e-02 1.7299832795720437e-03 0.0000000000000000e+00  6.3444314450360070e-02 1.7255279149919337e-03 0.0000000000000000e+00  6.0654626467146602e-02 1.7235227875631854e-03 0.0000000000000000e+00  5.7870078096732579e-02 1.7226975455280429e-03 0.0000000000000000e+00  5.5087518132294816e-02 1.7224316374395900e-03 0.0000000000000000e+00  5.2305415955541001e-02 1.7224492860517247e-03 0.0000000000000000e+00  4.9522959073829517e-02 1.7226350657730328e-03 0.0000000000000000e+00  4.6739752257194990e-02 1.7228869234929358e-03 0.0000000000000000e+00  4.3956211733934748e-02 1.7228819638865831e-03 0.0000000000000000e+00  4.1175386192843361e-02 1.7215613431559836e-03 0.0000000000000000e+00  3.8408538716904361e-02 1.7154143845937505e-03 0.0000000000000000e+00  3.5691146719886747e-02 1.6953334884931305e-03 0.0000000000000000e+00  3.3134111125421618e-02 1.6205839614505961e-03 0.0000000000000000e+00  3.1119439506770888e-02 1.3930995332209464e-03 0.0000000000000000e+00  3.0759350505041035e-02 -4.0777717297142658e-04 0.0000000000000000e+00  8.2896629054951598e-02 0.0000000000000000e+00 0.0000000000000000e+00  8.2298231825597964e-02 2.9425603126585560e-03 0.0000000000000000e+00  8.0447292236640044e-02 3.1362359515052667e-03 0.0000000000000000e+00  7.8437351364953764e-02 3.0349822561424231e-03 0.0000000000000000e+00  7.6533682980031673e-02 2.9402188267094471e-03 0.0000000000000000e+00  7.4737448917737703e-02 2.8823271975334502e-03 0.0000000000000000e+00  7.3009235197045302e-02 2.8511750111467368e-03 0.0000000000000000e+00  7.1318173585048300e-02 2.8357266852471552e-03 0.0000000000000000e+00  6.9645619891599564e-02 2.8285840946387364e-03 0.0000000000000000e+00  6.7981574102858558e-02 2.8255666841208332e-03 0.0000000000000000e+00  6.6321002743840854e-02 2.8245411418338830e-03 0.0000000000000000e+00  6.4661425064055894e-02 2.8245150529742596e-03 0.0000000000000000e+00  6.3001625097980463e-02 2.8250165195608467e-03 0.0000000000000000e+00  6.1341320624453195e-02 2.8255471493667359e-03 0.0000000000000000e+00  5.9682077004053931e-02 2.8246994914454615e-03 0.0000000000000000e+00  5.8030831454734512e-02 2.8180441684384689e-03 0.0000000000000000e+00  5.6409739468816063e-02 2.7926665124446003e-03 0.0000000000000000e+00  5.4883237711703670e-02 2.7107517632127282e-03 0.0000000000000000e+00  5.3627901356182686e-02 2.4609310024967979e-03 0.0000000000000000e+00  5.3124807724669106e-02 1.6274006534834902e-03 0.0000000000000000e+00  5.4033766847066726e-02 -1.2987334782368618e-03 0.0000000000000000e+00  8.2896629054951598e-02 0.0000000000000000e+00 0.0000000000000000e+00  8.2865499884412872e-02 3.3862380503557384e-03 0.0000000000000000e+00  8.2149339217912537e-02 3.8734986578320215e-03 0.0000000000000000e+00  8.1162177508858735e-02 3.7714338242891238e-03 0.0000000000000000e+00  8.0203035822093663e-02 3.6254261738124676e-03 0.0000000000000000e+00  7.9324763319659791e-02 3.5256004790984721e-03 0.0000000000000000e+00  7.8508781658059884e-02 3.4690176456883617e-03 0.0000000000000000e+00  7.7730007931608142e-02 3.4400030331860412e-03 0.0000000000000000e+00  7.6970834492876769e-02 3.4262456444897125e-03 0.0000000000000000e+00  7.6221062191729930e-02 3.4202871627860123e-03 0.0000000000000000e+00  7.5475317821030258e-02 3.4181628086813833e-03 0.0000000000000000e+00  7.4730910401918052e-02 3.4179444528188211e-03 0.0000000000000000e+00  7.3986624175540000e-02 3.4186180235374441e-03 0.0000000000000000e+00  7.3242520726377436e-02 3.4189977860069115e-03 0.0000000000000000e+00  7.2501209955209825e-02 3.4159084084608347e-03 0.0000000000000000e+00  7.1772136805794542e-02 3.3999657150294250e-03 0.0000000000000000e+00  7.1082764885501637e-02 3.3448763673358749e-03 0.0000000000000000e+00  7.0505208119921517e-02 3.1791786997418512e-03 0.0000000000000000e+00  7.0211257138087041e-02 2.7071072338198691e-03 0.0000000000000000e+00  7.0525890867932470e-02 1.3688949749005941e-03 0.0000000000000000e+00  7.1565786219584315e-02 -2.0375404204803142e-03 0.0000000000000000e+00  8.2896629054951598e-02 0.0000000000000000e+00 0.0000000000000000e+00  8.3192396900924975e-02 3.3851429830994476e-03 0.0000000000000000e+00  8.3323189361191749e-02 4.1070833387529156e-03 0.0000000000000000e+00  8.3221204415289782e-02 4.0508939048990670e-03 0.0000000000000000e+00  8.3082265386464835e-02 3.8809208633466211e-03 0.0000000000000000e+00  8.2979120227754694e-02 3.7507620351864665e-03 0.0000000000000000e+00  8.2915963248648264e-02 3.6729676803820611e-03 0.0000000000000000e+00  8.2880079159365835e-02 3.6317820457965541e-03 0.0000000000000000e+00  8.2859640025243084e-02 3.6117930181443010e-03 0.0000000000000000e+00  8.2846990877028015e-02 3.6029457431215346e-03 0.0000000000000000e+00  8.2837852747855475e-02 3.5996673782262337e-03 0.0000000000000000e+00  8.2830039191690019e-02 3.5991360397900954e-03 0.0000000000000000e+00  8.2822656094592634e-02 3.5997452419186085e-03 0.0000000000000000e+00  8.2816089375362487e-02 3.5994873948774105e-03 0.0000000000000000e+00  8.2813276238174000e-02 3.5931858213364845e-03 0.0000000000000000e+00  8.2823530277788188e-02 3.5662210793438415e-03 0.0000000000000000e+00  8.2871522576365750e-02 3.4794846932464929e-03 0.0000000000000000e+00  8.3014771138045354e-02 3.2331016867154249e-03 0.0000000000000000e+00  8.3363420605613747e-02 2.5815546825853825e-03 0.0000000000000000e+00  8.4026172432207280e-02 9.7005017094047128e-04 0.0000000000000000e+00  8.4766124743619706e-02 -2.4309406541678262e-03 0.0000000000000000e+00  8.2896629054951598e-02 0.0000000000000000e+00 0.0000000000000000e+00  8.3399627144095836e-02 3.1097384064781592e-03 0.0000000000000000e+00  8.4133954082197523e-02 3.9362751235662748e-03 0.0000000000000000e+00  8.4748131936974586e-02 3.9389265490784812e-03 0.0000000000000000e+00  8.5295029936280922e-02 3.7725615073609070e-03 0.0000000000000000e+00  8.5833470336522999e-02 3.6298786875061479e-03 0.0000000000000000e+00  8.6382447968439552e-02 3.5402292865275666e-03 0.0000000000000000e+00  8.6942632872116871e-02 3.4913411975037098e-03 0.0000000000000000e+00  8.7510335648124951e-02 3.4671149184121535e-03 0.0000000000000000e+00  8.8082222393174953e-02 3.4561914795413311e-03 0.0000000000000000e+00  8.8656163954737008e-02 3.4520171320809498e-03 0.0000000000000000e+00  8.9231026778762421e-02 3.4511509859844673e-03 0.0000000000000000e+00  8.9806438679425699e-02 3.4515076251484234e-03 0.0000000000000000e+00  9.0382927235526878e-02 3.4503614149279738e-03 0.0000000000000000e+00  9.0962800784034764e-02 3.4408761254562390e-03 0.0000000000000000e+00  9.1552397378944286e-02 3.4044639145850869e-03 0.0000000000000000e+00  9.2166354438647652e-02 3.2934457110391532e-03 0.0000000000000000e+00  9.2831869308551487e-02 2.9935398157837465e-03 0.0000000000000000e+00  9.3575419703986140e-02 2.2526407143164317e-03 0.0000000000000000e+00  9.4324085854079864e-02 6.0254075230050112e-04 0.0000000000000000e+00  9.4669282488517470e-02 -2.4825026973619040e-03 0.0000000000000000e+00  8.2896629054951598e-02 0.0000000000000000e+00 0.0000000000000000e+00  8.3536075152108299e-02 2.6541665844575599e-03 0.0000000000000000e+00  8.4693034807729856e-02 3.4611333431228699e-03 0.0000000000000000e+00  8.5856647138287903e-02 3.5090878211771598e-03 0.0000000000000000e+00  8.6951976519656513e-02 3.3655726015165703e-03 0.0000000000000000e+00  8.8004630079626750e-02 3.2286939496527314e-03 0.0000000000000000e+00  8.9038508944311145e-02 3.1387586925776976e-03 0.0000000000000000e+00  9.0065374234262474e-02 3.0884236693221739e-03 0.0000000000000000e+00  9.1089961641705824e-02 3.0630301464597996e-03 0.0000000000000000e+00  9.2113970640904236e-02 3.0514028971646368e-03 0.0000000000000000e+00  9.3137965669820522e-02 3.0468507020746808e-03 0.0000000000000000e+00  9.4162168856005535e-02 3.0457491256110939e-03 0.0000000000000000e+00  9.5186804362873051e-02 3.0457915624557104e-03 0.0000000000000000e+00  9.6212310507022752e-02 3.0438687073988794e-03 0.0000000000000000e+00  9.7239531996743692e-02 3.0323478132804164e-03 0.0000000000000000e+00  9.8269715378800096e-02 2.9911053389765933e-03 0.0000000000000000e+00  9.9303049931741619e-02 2.8704517458768043e-03 0.0000000000000000e+00  1.0033024131974930e-01 2.5580142744385799e-03 0.0000000000000000e+00  1.0129828056915521e-01 1.8290341546968651e-03 0.0000000000000000e+00  1.0201128234953222e-01 3.2749168174134622e-04 0.0000000000000000e+00  1.0200340659410348e-01 -2.2604519983357120e-03 0.0000000000000000e+00  8.2896629054951598e-02 0.0000000000000000e+00 0.0000000000000000e+00  8.3626076302108374e-02 2.0786248383068851e-03 0.0000000000000000e+00  8.5071844831246607e-02 2.7666077781313423e-03 0.0000000000000000e+00  8.6635374923282341e-02 2.8345802617259098e-03 0.0000000000000000e+00  8.8145501835217271e-02 2.7240797548004586e-03 0.0000000000000000e+00  8.9590423741831807e-02 2.6084693434359520e-03 0.0000000000000000e+00  9.0991832243074847e-02 2.5296320148810053e-03 0.0000000000000000e+00  9.2369147012271169e-02 2.4845552630593220e-03 0.0000000000000000e+00  9.3734412517850668e-02 2.4614827693349834e-03 0.0000000000000000e+00  9.5094135533166160e-02 2.4507891382261988e-03 0.0000000000000000e+00  9.6451593234897950e-02 2.4465250259216270e-03 0.0000000000000000e+00  9.7808399365874918e-02 2.4453847468383157e-03 0.0000000000000000e+00  9.9165341340640159e-02 2.4451856958050567e-03 0.0000000000000000e+00  1.0052259018628006e-01 2.4429233752830451e-03 0.0000000000000000e+00  1.0187907736749258e-01 2.4313415667648968e-03 0.0000000000000000e+00  1.0323009637455766e-01 2.3917721304847839e-03 0.0000000000000000e+00  1.0456044801632558e-01 2.2795665769310752e-03 0.0000000000000000e+00  1.0582636249016081e-01 1.9986205861982128e-03 0.0000000000000000e+00  1.0691214410908036e-01 1.3716243460258118e-03 0.0000000000000000e+00  1.0754987425840457e-01 1.5083363870030666e-04 0.0000000000000000e+00  1.0727252602017714e-01 -1.8415168484737490e-03 0.0000000000000000e+00  8.2896629054951598e-02 0.0000000000000000e+00 0.0000000000000000e+00  8.3683032090268561e-02 1.4247478444445419e-03 0.0000000000000000e+00  8.5315561896931000e-02 1.9217505885175607e-03 0.0000000000000000e+00  8.7148856130443431e-02 1.9838712007246976e-03 0.0000000000000000e+00  8.8947416743053981e-02 1.9100790644970959e-03 0.0000000000000000e+00  9.0667857426337511e-02 1.8270759595860418e-03 0.0000000000000000e+00  9.2326680501104763e-02 1.7688767807197410e-03 0.0000000000000000e+00  9.3947815627131781e-02 1.7350671324006099e-03 0.0000000000000000e+00  9.5548753973738965e-02 1.7175761004322764e-03 0.0000000000000000e+00  9.7139879517761069e-02 1.7093977476719253e-03 0.0000000000000000e+00  9.8726746818160474e-02 1.7060943712846521e-03 0.0000000000000000e+00  1.0031215452674735e-01 1.7051531942658934e-03 0.0000000000000000e+00  1.0189734106985454e-01 1.7048718678761329e-03 0.0000000000000000e+00  1.0348214753243717e-01 1.7028750331656739e-03 0.0000000000000000e+00  1.0506364351166261e-01 1.6934920957883018e-03 0.0000000000000000e+00  1.0663167749302958e-01 1.6623926618863809e-03 0.0000000000000000e+00  1.0815782420821823e-01 1.5761198222320469e-03 0.0000000000000000e+00  1.0957118279446683e-01 1.3653067380378146e-03 0.0000000000000000e+00  1.1071323727456835e-01 9.0942373656603378e-04 0.0000000000000000e+00  1.1127889997177713e-01 5.4844508257863306e-05 0.0000000000000000e+00  1.1081899561992897e-01 -1.2918834254108604e-03 0.0000000000000000e+00  8.2896629054951598e-02 0.0000000000000000e+00 0.0000000000000000e+00  8.3714562663774722e-02 7.2353151276064256e-04 0.0000000000000000e+00  8.5451840099458276e-02 9.8330060800614402e-04 0.0000000000000000e+00  8.7440428804266848e-02 1.0196704301043400e-03 0.0000000000000000e+00  8.9408495412116915e-02 9.8299130846140584e-04 0.0000000000000000e+00  9.1292193357323609e-02 9.3977591326724710e-04 0.0000000000000000e+00  9.3103417591231308e-02 9.0894847726541753e-04 0.0000000000000000e+00  9.4868298856374517e-02 8.9086367103473753e-04 0.0000000000000000e+00  9.6607629083296218e-02 8.8144637050803422e-04 0.0000000000000000e+00  9.8334281882988303e-02 8.7701955481983790e-04 0.0000000000000000e+00  1.0005531508956615e-01 8.7521776739794615e-04 0.0000000000000000e+00  1.0177431703062058e-01 8.7468592736986541e-04 0.0000000000000000e+00  1.0349281441704308e-01 8.7449188426162857e-04 0.0000000000000000e+00  1.0521038455124868e-01 8.7332504825986051e-04 0.0000000000000000e+00  1.0692275865748915e-01 8.6807845716525226e-04 0.0000000000000000e+00  1.0861601046219757e-01 8.5098565309669571e-04 0.0000000000000000e+00  1.1025290701523925e-01 8.0418480147388650e-04 0.0000000000000000e+00  1.1174552992903140e-01 6.9149691292934811e-04 0.0000000000000000e+00  1.1291108787311618e-01 4.5233689974019642e-04 0.0000000000000000e+00  1.1342807516225807e-01 1.3727193611742384e-05 0.0000000000000000e+00  1.1286414742361790e-01 -6.6408372899994319e-04 0.0000000000000000e+00  8.2896629054951598e-02 0.0000000000000000e+00 0.0000000000000000e+00  8.3724656922044588e-02 3.5456310065517686e-16 0.0000000000000000e+00  8.5495680025707829e-02 5.3155792103844267e-16 0.0000000000000000e+00  8.7534926460849358e-02 5.7025529101269938e-16 0.0000000000000000e+00  8.9558863852644860e-02 5.3644342344734915e-16 0.0000000000000000e+00  9.1496618751403511e-02 4.2478348174194513e-16 0.0000000000000000e+00  9.3358300430605001e-02 3.1877296700776071e-16 0.0000000000000000e+00  9.5170677744851551e-02 2.4394801878708323e-16 0.0000000000000000e+00  9.6955642186602145e-02 1.3579264222011025e-16 0.0000000000000000e+00  9.8726922775795131e-02 4.8309340717821150e-17 0.0000000000000000e+00  1.0049210122810451e-01 -3.0955622623006768e-17 0.0000000000000000e+00  1.0225504241300243e-01 -9.2813153844230715e-17 0.0000000000000000e+00  1.0401737186751241e-01 -1.3376481226684316e-16 0.0000000000000000e+00  1.0577856692850471e-01 -1.6663067578143357e-16 0.0000000000000000e+00  1.0753387351218323e-01 -2.3668278729105641e-16 0.0000000000000000e+00  1.0926801983269169e-01 -3.7422771640329223e-16 0.0000000000000000e+00  1.1094069559750382e-01 -6.7477237012554996e-16 0.0000000000000000e+00  1.1245821560666593e-01 -1.2921643702307563e-15 0.0000000000000000e+00  1.1362999107968780e-01 -2.4757610692524940e-15 0.0000000000000000e+00  1.1413002362695450e-01 -4.5968645269243531e-15 0.0000000000000000e+00  1.1353246403760449e-01 -8.2554769553527474e-15 0.0000000000000000e+00  8.2896629054951598e-02 0.0000000000000000e+00 0.0000000000000000e+00  8.3714562663774708e-02 -7.2353151275992786e-04 0.0000000000000000e+00  8.5451840099458276e-02 -9.8330060800509581e-04 0.0000000000000000e+00  8.7440428804266862e-02 -1.0196704301032060e-03 0.0000000000000000e+00  8.9408495412116942e-02 -9.8299130846034723e-04 0.0000000000000000e+00  9.1292193357323678e-02 -9.3977591326640457e-04 0.0000000000000000e+00  9.3103417591231377e-02 -9.0894847726477395e-04 0.0000000000000000e+00  9.4868298856374628e-02 -8.9086367103425235e-04 0.0000000000000000e+00  9.6607629083296315e-02 -8.8144637050775309e-04 0.0000000000000000e+00  9.8334281882988414e-02 -8.7701955481973197e-04 0.0000000000000000e+00  1.0005531508956626e-01 -8.7521776739801771e-04 0.0000000000000000e+00  1.0177431703062072e-01 -8.7468592737005525e-04 0.0000000000000000e+00  1.0349281441704322e-01 -8.7449188426189540e-04 0.0000000000000000e+00  1.0521038455124880e-01 -8.7332504826019130e-04 0.0000000000000000e+00  1.0692275865748931e-01 -8.6807845716571728e-04 0.0000000000000000e+00  1.0861601046219770e-01 -8.5098565309743666e-04 0.0000000000000000e+00  1.1025290701523929e-01 -8.0418480147521334e-04 0.0000000000000000e+00  1.1174552992903133e-01 -6.9149691293188254e-04 0.0000000000000000e+00  1.1291108787311588e-01 -4.5233689974507273e-04 0.0000000000000000e+00  1.1342807516225741e-01 -1.3727193620831313e-05 0.0000000000000000e+00  1.1286414742361671e-01 6.6408372898358724e-04 0.0000000000000000e+00  8.2896629054951598e-02 0.0000000000000000e+00 0.0000000000000000e+00  8.3683032090268547e-02 -1.4247478444438309e-03 0.0000000000000000e+00  8.5315561896931000e-02 -1.9217505885165257e-03 0.0000000000000000e+00  8.7148856130443444e-02 -1.9838712007235631e-03 0.0000000000000000e+00  8.8947416743054050e-02 -1.9100790644960592e-03 0.0000000000000000e+00  9.0667857426337650e-02 -1.8270759595852314e-03 0.0000000000000000e+00  9.2326680501104944e-02 -1.7688767807190948e-03 0.0000000000000000e+00  9.3947815627131975e-02 -1.7350671324001443e-03 0.0000000000000000e+00  9.5548753973739201e-02 -1.7175761004320166e-03 0.0000000000000000e+00  9.7139879517761318e-02 -1.7093977476718284e-03 0.0000000000000000e+00  9.8726746818160738e-02 -1.7060943712847276e-03 0.0000000000000000e+00  1.0031215452674763e-01 -1.7051531942660863e-03 0.0000000000000000e+00  1.0189734106985482e-01 -1.7048718678764018e-03 0.0000000000000000e+00  1.0348214753243747e-01 -1.7028750331660053e-03 0.0000000000000000e+00  1.0506364351166290e-01 -1.6934920957887495e-03 0.0000000000000000e+00  1.0663167749302985e-01 -1.6623926618870937e-03 0.0000000000000000e+00  1.0815782420821834e-01 -1.5761198222333072e-03 0.0000000000000000e+00  1.0957118279446670e-01 -1.3653067380402259e-03 0.0000000000000000e+00  1.1071323727456776e-01 -9.0942373657070029e-04 0.0000000000000000e+00  1.1127889997177583e-01 -5.4844508266628247e-05 0.0000000000000000e+00  1.1081899561992659e-01 1.2918834253950475e-03 0.0000000000000000e+00  8.2896629054951598e-02 0.0000000000000000e+00 0.0000000000000000e+00  8.3626076302108360e-02 -2.0786248383061613e-03 0.0000000000000000e+00  8.5071844831246593e-02 -2.7666077781303353e-03 0.0000000000000000e+00  8.6635374923282396e-02 -2.8345802617247996e-03 0.0000000000000000e+00  8.8145501835217410e-02 -2.7240797547994637e-03 0.0000000000000000e+00  8.9590423741832015e-02 -2.6084693434351696e-03 0.0000000000000000e+00  9.0991832243075138e-02 -2.5296320148803790e-03 0.0000000000000000e+00  9.2369147012271544e-02 -2.4845552630588853e-03 0.0000000000000000e+00  9.3734412517851071e-02 -2.4614827693347384e-03 0.0000000000000000e+00  9.5094135533166591e-02 -2.4507891382261147e-03 0.0000000000000000e+00  9.645159323