<?xml version="1.0"?>
<VTKFile type="UnstructuredGrid"  version="0.1"  >
<UnstructuredGrid>
<Piece  NumberOfPoints="121" NumberOfCells="200">
<Points>
<DataArray  type="Float64"  NumberOfComponents="3"  format="ascii">0.004166666666666667 0 0  0.20375 0 0  0.4033333333333335 0 0  0.6029166666666665 0 0  0.8025000000000001 0 0  1.002083333333333 0 0  1.201666666666667 0 0  1.40125 0 0  1.600833333333333 0 0  1.800416666666667 0 0  2 0 0  0.004166666666666667 0.1 0  0.20375 0.1 0  0.4033333333333335 0.1 0  0.6029166666666665 0.1 0  0.8025000000000001 0.1 0  1.002083333333333 0.1 0  1.201666666666667 0.1 0  1.40125 0.1 0  1.600833333333333 0.1 0  1.800416666666667 0.1 0  2 0.1 0  0.004166666666666667 0.2 0  0.20375 0.2 0  0.4033333333333335 0.2 0  0.6029166666666665 0.2 0  0.8025000000000001 0.2 0  1.002083333333333 0.2 0  1.201666666666667 0.2 0  1.40125 0.2 0  1.600833333333333 0.2 0  1.800416666666667 0.2 0  2 0.2 0  0.004166666666666667 0.3 0  0.20375 0.3 0  0.4033333333333335 0.3 0  0.6029166666666665 0.3 0  0.8025000000000001 0.3 0  1.002083333333333 0.3 0  1.201666666666667 0.3 0  1.40125 0.3 0  1.600833333333333 0.3 0  1.800416666666667 0.3 0  2 0.3 0  0.004166666666666667 0.4 0  0.20375 0.4 0  0.4033333333333335 0.4 0  0.6029166666666665 0.4 0  0.8025000000000001 0.4 0  1.002083333333333 0.4 0  1.201666666666667 0.4 0  1.40125 0.4 0  1.600833333333333 0.4 0  1.800416666666667 0.4 0  2 0.4 0  0.004166666666666667 0.5 0  0.20375 0.5 0  0.4033333333333335 0.5 0  0.6029166666666665 0.5 0  0.8025000000000001 0.5 0  1.002083333333333 0.5 0  1.201666666666667 0.5 0  1.40125 0.5 0  1.600833333333333 0.5 0  1.800416666666667 0.5 0  2 0.5 0  0.004166666666666667 0.6 0  0.20375 0.6 0  0.4033333333333335 0.6 0  0.6029166666666665 0.6 0  0.8025000000000001 0.6 0  1.002083333333333 0.6 0  1.201666666666667 0.6 0  1.40125 0.6 0  1.600833333333333 0.6 0  1.800416666666667 0.6 0  2 0.6 0  0.004166666666666667 0.7 0  0.20375 0.7 0  0.4033333333333335 0.7 0  0.6029166666666665 0.7 0  0.8025000000000001 0.7 0  1.002083333333333 0.7 0  1.201666666666667 0.7 0  1.40125 0.7 0  1.600833333333333 0.7 0  1.800416666666667 0.7 0  2 0.7 0  0.004166666666666667 0.8 0  0.20375 0.8 0  0.4033333333333335 0.8 0  0.6029166666666665 0.8 0  0.8025 0.8 0  1.002083333333333 0.8 0  1.201666666666667 0.8 0  1.40125 0.8 0  1.600833333333333 0.8 0  1.800416666666667 0.8 0  2 0.8 0  0.004166666666666667 0.9 0  0.20375 0.9 0  0.4033333333333335 0.9 0  0.6029166666666665 0.9 0  0.8025 0.9 0  1.002083333333333 0.9 0  1.201666666666667 0.9 0  1.40125 0.9 0  1.600833333333333 0.9 0  1.800416666666667 0.9 0  2 0.9 0  0.004166666666666667 1 0  0.20375 1 0  0.4033333333333335 1 0  0.6029166666666665 1 0  0.8025 1 0  1.002083333333333 1 0  1.201666666666667 1 0  1.40125 1 0  1.600833333333333 1 0  1.800416666666667 1 0  2 1 0  </DataArray>
</Points>
<Cells>
<DataArray  type="UInt32"  Name="connectivity"  format="ascii">0 1 12  0 11 12  1 2 13  1 12 13  2 3 14  2 13 14  3 4 15  3 14 15  4 5 16  4 15 16  5 6 17  5 16 17  6 7 18  6 17 18  7 8 19  7 18 19  8 9 20  8 19 20  9 10 21  9 20 21  11 12 23  11 22 23  12 13 24  12 23 24  13 14 25  13 24 25  14 15 26  14 25 26  15 16 27  15 26 27  16 17 28  16 27 28  17 18 29  17 28 29  18 19 30  18 29 30  19 20 31  19 30 31  20 21 32  20 31 32  22 23 34  22 33 34  23 24 35  23 34 35  24 25 36  24 35 36  25 26 37  25 36 37  26 27 38  26 37 38  27 28 39  27 38 39  28 29 40  28 39 40  29 30 41  29 40 41  30 31 42  30 41 42  31 32 43  31 42 43  33 34 45  33 44 45  34 35 46  34 45 46  35 36 47  35 46 47  36 37 48  36 47 48  37 38 49  37 48 49  38 39 50  38 49 50  39 40 51  39 50 51  40 41 52  40 51 52  41 42 53  41 52 53  42 43 54  42 53 54  44 45 56  44 55 56  45 46 57  45 56 57  46 47 58  46 57 58  47 48 59  47 58 59  48 49 60  48 59 60  49 50 61  49 60 61  50 51 62  50 61 62  51 52 63  51 62 63  52 53 64  52 63 64  53 54 65  53 64 65  55 56 67  55 66 67  56 57 68  56 67 68  57 58 69  57 68 69  58 59 70  58 69 70  59 60 71  59 70 71  60 61 72  60 71 72  61 62 73  61 72 73  62 63 74  62 73 74  63 64 75  63 74 75  64 65 76  64 75 76  66 67 78  66 77 78  67 68 79  67 78 79  68 69 80  68 79 80  69 70 81  69 80 81  70 71 82  70 81 82  71 72 83  71 82 83  72 73 84  72 83 84  73 74 85  73 84 85  74 75 86  74 85 86  75 76 87  75 86 87  77 78 89  77 88 89  78 79 90  78 89 90  79 80 91  79 90 91  80 81 92  80 91 92  81 82 93  81 92 93  82 83 94  82 93 94  83 84 95  83 94 95  84 85 96  84 95 96  85 86 97  85 96 97  86 87 98  86 97 98  88 89 100  88 99 100  89 90 101  89 100 101  90 91 102  90 101 102  91 92 103  91 102 103  92 93 104  92 103 104  93 94 105  93 104 105  94 95 106  94 105 106  95 96 107  95 106 107  96 97 108  96 107 108  97 98 109  97 108 109  99 100 111  99 110 111  100 101 112  100 111 112  101 102 113  101 112 113  102 103 114  102 113 114  103 104 115  103 114 115  104 105 116  104 115 116  105 106 117  105 116 117  106 107 118  106 117 118  107 108 119  107 118 119  108 109 120  108 119 120  </DataArray>
<DataArray  type="UInt32"  Name="offsets"  format="ascii">3 6 9 12 15 18 21 24 27 30 33 36 39 42 45 48 51 54 57 60 63 66 69 72 75 78 81 84 87 90 93 96 99 102 105 108 111 114 117 120 123 126 129 132 135 138 141 144 147 150 153 156 159 162 165 168 171 174 177 180 183 186 189 192 195 198 201 204 207 210 213 216 219 222 225 228 231 234 237 240 243 246 249 252 255 258 261 264 267 270 273 276 279 282 285 288 291 294 297 300 303 306 309 312 315 318 321 324 327 330 333 336 339 342 345 348 351 354 357 360 363 366 369 372 375 378 381 384 387 390 393 396 399 402 405 408 411 414 417 420 423 426 429 432 435 438 441 444 447 450 453 456 459 462 465 468 471 474 477 480 483 486 489 492 495 498 501 504 507 510 513 516 519 522 525 528 531 534 537 540 543 546 549 552 555 558 561 564 567 570 573 576 579 582 585 588 591 594 597 600 </DataArray>
<DataArray  type="UInt8"  Name="types"  format="ascii">5 5 5 5 5 5 5 5 5 5 5 5 5 5 5 5 5 5 5 5 5 5 5 5 5 5 5 5 5 5 5 5 5 5 5 5 5 5 5 5 5 5 5 5 5 5 5 5 5 5 5 5 5 5 5 5 5 5 5 5 5 5 5 5 5 5 5 5 5 5 5 5 5 5 5 5 5 5 5 5 5 5 5 5 5 5 5 5 5 5 5 5 5 5 5 5 5 5 5 5 5 5 5 5 5 5 5 5 5 5 5 5 5 5 5 5 5 5 5 5 5 5 5 5 5 5 5 5 5 5 5 5 5 5 5 5 5 5 5 5 5 5 5 5 5 5 5 5 5 5 5 5 5 5 5 5 5 5 5 5 5 5 5 5 5 5 5 5 5 5 5 5 5 5 5 5 5 5 5 5 5 5 5 5 5 5 5 5 5 5 5 5 5 5 5 5 5 5 5 5 </DataArray>
</Cells>
<PointData  Vectors="f_24-0"> 
<DataArray  type="Float64"  Name="f_24-0"  NumberOfComponents="3" format="ascii">1.8446744073709585e-46 0.0000000000000000e+00 0.0000000000000000e+00  1.6602069666338689e-46 0.0000000000000000e+00 0.0000000000000000e+00  1.4757395258967793e-46 0.0000000000000000e+00 0.0000000000000000e+00  1.2912720851596834e-46 0.0000000000000000e+00 0.0000000000000000e+00  1.1068046444225876e-46 0.0000000000000000e+00 0.0000000000000000e+00  9.2233720368549171e-47 0.0000000000000000e+00 0.0000000000000000e+00  7.3786976294839585e-47 0.0000000000000000e+00 0.0000000000000000e+00  5.5340232221129689e-47 0.0000000000000000e+00 0.0000000000000000e+00  3.6893488147419793e-47 0.0000000000000000e+00 0.0000000000000000e+00  1.8446744073709896e-47 0.0000000000000000e+00 0.0000000000000000e+00  8.7040000000001713e-63 0.0000000000000000e+00 0.0000000000000000e+00  1.0000000000000001e-01 0.0000000000000000e+00 0.0000000000000000e+00  7.9406484935999083e-02 1.2953065106354378e-02 0.0000000000000000e+00  5.6765593965947707e-02 3.0608054469452553e-03 0.0000000000000000e+00  5.3391240354173260e-02 6.1564403906277834e-04 0.0000000000000000e+00  5.2204396802349555e-02 6.2245811227356636e-05 0.0000000000000000e+00  5.2183589633664193e-02 6.4358175071348404e-06 0.0000000000000000e+00  5.2156784782814297e-02 3.2763266215930130e-06 0.0000000000000000e+00  5.2118874970726273e-02 1.7558480717647126e-05 0.0000000000000000e+00  5.2040620017809500e-02 9.0085117205203200e-06 0.0000000000000000e+00  5.2065947028654906e-02 1.5074199098177782e-05 0.0000000000000000e+00  5.2345515840636632e-02 -5.4856539188575398e-04 0.0000000000000000e+00  1.0000000000000001e-01 0.0000000000000000e+00 0.0000000000000000e+00  1.0681684448225356e-01 2.2846899244088916e-02 0.0000000000000000e+00  9.7230874046168772e-02 7.1465111702380844e-03 0.0000000000000000e+00  9.3979579569761509e-02 1.5779300420695230e-03 0.0000000000000000e+00  9.2865785834752745e-02 2.2144506976311335e-04 0.0000000000000000e+00  9.2797187451233665e-02 2.6091222626856875e-05 0.0000000000000000e+00  9.2742167707827214e-02 2.0007046790983885e-05 0.0000000000000000e+00  9.2686369504258015e-02 4.9773452450420750e-05 0.0000000000000000e+00  9.2607505942385412e-02 6.1073429305887053e-05 0.0000000000000000e+00  9.2612629516282102e-02 -7.3572080819724170e-05 0.0000000000000000e+00  9.2889680864901902e-02 -9.8553864735637488e-04 0.0000000000000000e+00  1.0000000000000001e-01 0.0000000000000000e+00 0.0000000000000000e+00  1.1450829969269817e-01 2.0862399842124589e-02 0.0000000000000000e+00  1.2115432530237003e-01 8.1903884148919245e-03 0.0000000000000000e+00  1.2180460671689085e-01 1.9571215890374547e-03 0.0000000000000000e+00  1.2180136401604157e-01 3.2893815784153772e-04 0.0000000000000000e+00  1.2180104332725769e-01 4.2506038284998919e-05 0.0000000000000000e+00  1.2175486924004611e-01 4.2066831832364132e-05 0.0000000000000000e+00  1.2169998017788007e-01 8.5742649986083735e-05 0.0000000000000000e+00  1.2165368665249511e-01 9.6115148676005844e-05 0.0000000000000000e+00  1.2160078071540532e-01 -1.2965525532398093e-04 0.0000000000000000e+00  1.2183361330566088e-01 -1.2083337864619958e-03 0.0000000000000000e+00  1.0000000000000001e-01 0.0000000000000000e+00 0.0000000000000000e+00  1.1700229514051989e-01 1.2047635281231046e-02 0.0000000000000000e+00  1.3292468859442511e-01 5.2514981191640860e-03 0.0000000000000000e+00  1.3786710820613571e-01 1.3225155413826373e-03 0.0000000000000000e+00  1.3904890609645851e-01 2.2805075880351670e-04 0.0000000000000000e+00  1.3919314542557090e-01 3.9986885608787347e-05 0.0000000000000000e+00  1.3918449799715885e-01 6.1364070965263495e-05 0.0000000000000000e+00  1.3914495141779984e-01 1.1126917195900886e-04 0.0000000000000000e+00  1.3914065271737866e-01 1.1624222390682116e-04 0.0000000000000000e+00  1.3903566065079667e-01 -1.4327422879474821e-04 0.0000000000000000e+00  1.3923721636391753e-01 -1.2112696669506348e-03 0.0000000000000000e+00  1.0000000000000001e-01 0.0000000000000000e+00 0.0000000000000000e+00  1.1756206661482613e-01 1.5658599127847884e-04 0.0000000000000000e+00  1.3634386263287235e-01 -2.0390306055529579e-04 0.0000000000000000e+00  1.4314275654301209e-01 -1.1142197259092506e-04 0.0000000000000000e+00  1.4476878114195343e-01 -3.6840290874704531e-05 0.0000000000000000e+00  1.4499629214215556e-01 1.9347325482300406e-05 0.0000000000000000e+00  1.4501669666963929e-01 7.0203570389237949e-05 0.0000000000000000e+00  1.4500295866314286e-01 1.2042262196143161e-04 0.0000000000000000e+00  1.4504062044499388e-01 1.2106085156753307e-04 0.0000000000000000e+00  1.4491141754122186e-01 -1.2602133245399725e-04 0.0000000000000000e+00  1.4510578648532887e-01 -1.0412968570975675e-03 0.0000000000000000e+00  1.0000000000000001e-01 0.0000000000000000e+00 0.0000000000000000e+00  1.1674537557292541e-01 -1.1716948775985505e-02 0.0000000000000000e+00  1.3283576091478660e-01 -5.6901327128353208e-03 0.0000000000000000e+00  1.3797319974499611e-01 -1.5227916195200758e-03 0.0000000000000000e+00  1.3906316709682445e-01 -2.8621490791949368e-04 0.0000000000000000e+00  1.3921490015082563e-01 -4.5199487232853988e-06 0.0000000000000000e+00  1.3924012005605182e-01 6.7104190112237408e-05 0.0000000000000000e+00  1.3925709465593603e-01 1.1157125046463454e-04 0.0000000000000000e+00  1.3932931896846901e-01 1.1028033276077970e-04 0.0000000000000000e+00  1.3920751093366426e-01 -9.5329080186531306e-05 0.0000000000000000e+00  1.3941047055040776e-01 -7.7414375025443218e-04 0.0000000000000000e+00  1.0000000000000001e-01 0.0000000000000000e+00 0.0000000000000000e+00  1.1378327829786246e-01 -2.1429650531316968e-02 0.0000000000000000e+00  1.2128702911858358e-01 -8.5930982327270585e-03 0.0000000000000000e+00  1.2189595548348411e-01 -2.0903891919485528e-03 0.0000000000000000e+00  1.2185547865153691e-01 -3.6489792193014620e-04 0.0000000000000000e+00  1.2182986385980386e-01 -1.2323553019571209e-05 0.0000000000000000e+00  1.2184857355330812e-01 5.4090868283384800e-05 0.0000000000000000e+00  1.2189250883369900e-01 8.6484963231237713e-05 0.0000000000000000e+00  1.2198606773373569e-01 8.5513510200609766e-05 0.0000000000000000e+00  1.2189253054315508e-01 -6.5019427763944989e-05 0.0000000000000000e+00  1.2210272375646690e-01 -4.9246620846387333e-04 0.0000000000000000e+00  1.0000000000000001e-01 0.0000000000000000e+00 0.0000000000000000e+00  1.0526666092675302e-01 -2.3795099949075024e-02 0.0000000000000000e+00  9.8155158788723121e-02 -7.1226754325525565e-03 0.0000000000000000e+00  9.3869460438801469e-02 -1.6000278093242267e-03 0.0000000000000000e+00  9.2971860944822488e-02 -2.4145060054892283e-04 0.0000000000000000e+00  9.2821218461293459e-02 -5.3052576018922015e-06 0.0000000000000000e+00  9.2840455636299543e-02 3.3761804159469555e-05 0.0000000000000000e+00  9.2897972304506735e-02 5.1101589462771404e-05 0.0000000000000000e+00  9.2994711553543066e-02 5.2113584809661106e-05 0.0000000000000000e+00  9.2931812562572658e-02 -3.8967368725996650e-05 0.0000000000000000e+00  9.3127610171846995e-02 -2.6382225600386728e-04 0.0000000000000000e+00  1.0000000000000001e-01 0.0000000000000000e+00 0.0000000000000000e+00  7.8612981608232851e-02 -1.1479037362394600e-02 0.0000000000000000e+00  5.8226303748723993e-02 -3.0482962343412108e-03 0.0000000000000000e+00  5.3097941668002406e-02 -5.4204675542374701e-04 0.0000000000000000e+00  5.2326821640681323e-02 -5.8822779776526370e-05 0.0000000000000000e+00  5.2193906569283424e-02 -4.3636476656895005e-06 0.0000000000000000e+00  5.2221092048640040e-02 1.3493899229949325e-05 0.0000000000000000e+00  5.2267142703820234e-02 1.6886762990796680e-05 0.0000000000000000e+00  5.2340439454578169e-02 1.8281261090323779e-05 0.0000000000000000e+00  5.2300212443427904e-02 -1.5118241014720603e-05 0.0000000000000000e+00  5.2435774593203650e-02 -1.1614821435149230e-04 0.0000000000000000e+00  1.8446744073709585e-46 0.0000000000000000e+00 0.0000000000000000e+00  1.6602069666338689e-46 0.0000000000000000e+00 0.0000000000000000e+00  1.4757395258967730e-46 0.0000000000000000e+00 0.0000000000000000e+00  1.2912720851596772e-46 0.0000000000000000e+00 0.0000000000000000e+00  1.1068046444225782e-46 0.0000000000000000e+00 0.0000000000000000e+00  9.2233720368548237e-47 0.0000000000000000e+00 0.0000000000000000e+00  7.3786976294838652e-47 0.0000000000000000e+00 0.0000000000000000e+00  5.5340232221128756e-47 0.0000000000000000e+00 0.0000000000000000e+00  3.6893488147419015e-47 0.0000000000000000e+00 0.0000000000000000e+00  1.8446744073709430e-47 0.0000000000000000e+00 0.0000000000000000e+00  -6.1439999999999939e-63 0.0000000000000000e+00 0.0000000000000000e+00  </DataArray> 
</PointData> 
</Piece>
</UnstructuredGrid>
</VTKFile>