<?xml version="1.0"?>
<VTKFile type="UnstructuredGrid"  version="0.1"  >
<UnstructuredGrid>
<Piece  NumberOfPoints="2601" NumberOfCells="5000">
<Points>
<DataArray  type="Float64"  NumberOfComponents="3"  format="ascii">0 0 0  0.04 0 0  0.08 0 0  0.12 0 0  0.16 0 0  0.2 0 0  0.24 0 0  0.28 0 0  0.32 0 0  0.36 0 0  0.4 0 0  0.44 0 0  0.48 0 0  0.52 0 0  0.5600000000000001 0 0  0.6 0 0  0.64 0 0  0.68 0 0  0.72 0 0  0.76 0 0  0.8 0 0  0.84 0 0  0.88 0 0  0.92 0 0  0.96 0 0  1 0 0  1.04 0 0  1.08 0 0  1.12 0 0  1.16 0 0  1.2 0 0  1.24 0 0  1.28 0 0  1.32 0 0  1.36 0 0  1.4 0 0  1.44 0 0  1.48 0 0  1.52 0 0  1.56 0 0  1.6 0 0  1.64 0 0  1.68 0 0  1.72 0 0  1.76 0 0  1.8 0 0  1.84 0 0  1.88 0 0  1.92 0 0  1.96 0 0  2 0 0  0 0.02 0  0.04 0.02 0  0.08 0.02 0  0.12 0.02 0  0.16 0.02 0  0.2 0.02 0  0.24 0.02 0  0.28 0.02 0  0.32 0.02 0  0.36 0.02 0  0.4 0.02 0  0.44 0.02 0  0.48 0.02 0  0.52 0.02 0  0.5600000000000001 0.02 0  0.6 0.02 0  0.64 0.02 0  0.68 0.02 0  0.72 0.02 0  0.76 0.02 0  0.8 0.02 0  0.84 0.02 0  0.88 0.02 0  0.92 0.02 0  0.96 0.02 0  1 0.02 0  1.04 0.02 0  1.08 0.02 0  1.12 0.02 0  1.16 0.02 0  1.2 0.02 0  1.24 0.02 0  1.28 0.02 0  1.32 0.02 0  1.36 0.02 0  1.4 0.02 0  1.44 0.02 0  1.48 0.02 0  1.52 0.02 0  1.56 0.02 0  1.6 0.02 0  1.64 0.02 0  1.68 0.02 0  1.72 0.02 0  1.76 0.02 0  1.8 0.02 0  1.84 0.02 0  1.88 0.02 0  1.92 0.02 0  1.96 0.02 0  2 0.02 0  0 0.04 0  0.04 0.04 0  0.08 0.04 0  0.12 0.04 0  0.16 0.04 0  0.2 0.04 0  0.24 0.04 0  0.28 0.04 0  0.32 0.04 0  0.36 0.04 0  0.4 0.04 0  0.44 0.04 0  0.48 0.04 0  0.52 0.04 0  0.5600000000000001 0.04 0  0.6 0.04 0  0.64 0.04 0  0.68 0.04 0  0.72 0.04 0  0.76 0.04 0  0.8 0.04 0  0.84 0.04 0  0.88 0.04 0  0.92 0.04 0  0.96 0.04 0  1 0.04 0  1.04 0.04 0  1.08 0.04 0  1.12 0.04 0  1.16 0.04 0  1.2 0.04 0  1.24 0.04 0  1.28 0.04 0  1.32 0.04 0  1.36 0.04 0  1.4 0.04 0  1.44 0.04 0  1.48 0.04 0  1.52 0.04 0  1.56 0.04 0  1.6 0.04 0  1.64 0.04 0  1.68 0.04 0  1.72 0.04 0  1.76 0.04 0  1.8 0.04 0  1.84 0.04 0  1.88 0.04 0  1.92 0.04 0  1.96 0.04 0  2 0.04 0  0 0.06 0  0.04 0.06 0  0.08 0.06 0  0.12 0.06 0  0.16 0.06 0  0.2 0.06 0  0.24 0.06 0  0.28 0.06 0  0.32 0.06 0  0.36 0.06 0  0.4 0.06 0  0.44 0.06 0  0.48 0.06 0  0.52 0.06 0  0.5600000000000001 0.06 0  0.6 0.06 0  0.64 0.06 0  0.68 0.06 0  0.72 0.06 0  0.76 0.06 0  0.8 0.06 0  0.84 0.06 0  0.88 0.06 0  0.92 0.06 0  0.96 0.06 0  1 0.06 0  1.04 0.06 0  1.08 0.06 0  1.12 0.06 0  1.16 0.06 0  1.2 0.06 0  1.24 0.06 0  1.28 0.06 0  1.32 0.06 0  1.36 0.06 0  1.4 0.06 0  1.44 0.06 0  1.48 0.06 0  1.52 0.06 0  1.56 0.06 0  1.6 0.06 0  1.64 0.06 0  1.68 0.06 0  1.72 0.06 0  1.76 0.06 0  1.8 0.06 0  1.84 0.06 0  1.88 0.06 0  1.92 0.06 0  1.96 0.06 0  2 0.06 0  0 0.08 0  0.04 0.08 0  0.08 0.08 0  0.12 0.08 0  0.16 0.08 0  0.2 0.08 0  0.24 0.08 0  0.28 0.08 0  0.32 0.08 0  0.36 0.08 0  0.4 0.08 0  0.44 0.08 0  0.48 0.08 0  0.52 0.08 0  0.5600000000000001 0.08 0  0.6 0.08 0  0.64 0.08 0  0.68 0.08 0  0.72 0.08 0  0.76 0.08 0  0.8 0.08 0  0.84 0.08 0  0.88 0.08 0  0.92 0.08 0  0.96 0.08 0  1 0.08 0  1.04 0.08 0  1.08 0.08 0  1.12 0.08 0  1.16 0.08 0  1.2 0.08 0  1.24 0.08 0  1.28 0.08 0  1.32 0.08 0  1.36 0.08 0  1.4 0.08 0  1.44 0.08 0  1.48 0.08 0  1.52 0.08 0  1.56 0.08 0  1.6 0.08 0  1.64 0.08 0  1.68 0.08 0  1.72 0.08 0  1.76 0.08 0  1.8 0.08 0  1.84 0.08 0  1.88 0.08 0  1.92 0.08 0  1.96 0.08 0  2 0.08 0  0 0.1 0  0.04 0.1 0  0.08 0.1 0  0.12 0.1 0  0.16 0.1 0  0.2 0.1 0  0.24 0.1 0  0.28 0.1 0  0.32 0.1 0  0.36 0.1 0  0.4 0.1 0  0.44 0.1 0  0.48 0.1 0  0.52 0.1 0  0.5600000000000001 0.1 0  0.6 0.1 0  0.64 0.1 0  0.68 0.1 0  0.72 0.1 0  0.76 0.1 0  0.8 0.1 0  0.84 0.1 0  0.88 0.1 0  0.92 0.1 0  0.96 0.1 0  1 0.1 0  1.04 0.1 0  1.08 0.1 0  1.12 0.1 0  1.16 0.1 0  1.2 0.1 0  1.24 0.1 0  1.28 0.1 0  1.32 0.1 0  1.36 0.1 0  1.4 0.1 0  1.44 0.1 0  1.48 0.1 0  1.52 0.1 0  1.56 0.1 0  1.6 0.1 0  1.64 0.1 0  1.68 0.1 0  1.72 0.1 0  1.76 0.1 0  1.8 0.1 0  1.84 0.1 0  1.88 0.1 0  1.92 0.1 0  1.96 0.1 0  2 0.1 0  0 0.12 0  0.04 0.12 0  0.08 0.12 0  0.12 0.12 0  0.16 0.12 0  0.2 0.12 0  0.24 0.12 0  0.28 0.12 0  0.32 0.12 0  0.36 0.12 0  0.4 0.12 0  0.44 0.12 0  0.48 0.12 0  0.52 0.12 0  0.5600000000000001 0.12 0  0.6 0.12 0  0.64 0.12 0  0.68 0.12 0  0.72 0.12 0  0.76 0.12 0  0.8 0.12 0  0.84 0.12 0  0.88 0.12 0  0.92 0.12 0  0.96 0.12 0  1 0.12 0  1.04 0.12 0  1.08 0.12 0  1.12 0.12 0  1.16 0.12 0  1.2 0.12 0  1.24 0.12 0  1.28 0.12 0  1.32 0.12 0  1.36 0.12 0  1.4 0.12 0  1.44 0.12 0  1.48 0.12 0  1.52 0.12 0  1.56 0.12 0  1.6 0.12 0  1.64 0.12 0  1.68 0.12 0  1.72 0.12 0  1.76 0.12 0  1.8 0.12 0  1.84 0.12 0  1.88 0.12 0  1.92 0.12 0  1.96 0.12 0  2 0.12 0  0 0.14 0  0.04 0.14 0  0.08 0.14 0  0.12 0.14 0  0.16 0.14 0  0.2 0.14 0  0.24 0.14 0  0.28 0.14 0  0.32 0.14 0  0.36 0.14 0  0.4 0.14 0  0.44 0.14 0  0.48 0.14 0  0.52 0.14 0  0.5600000000000001 0.14 0  0.6 0.14 0  0.64 0.14 0  0.68 0.14 0  0.72 0.14 0  0.76 0.14 0  0.8 0.14 0  0.84 0.14 0  0.88 0.14 0  0.92 0.14 0  0.96 0.14 0  1 0.14 0  1.04 0.14 0  1.08 0.14 0  1.12 0.14 0  1.16 0.14 0  1.2 0.14 0  1.24 0.14 0  1.28 0.14 0  1.32 0.14 0  1.36 0.14 0  1.4 0.14 0  1.44 0.14 0  1.48 0.14 0  1.52 0.14 0  1.56 0.14 0  1.6 0.14 0  1.64 0.14 0  1.68 0.14 0  1.72 0.14 0  1.76 0.14 0  1.8 0.14 0  1.84 0.14 0  1.88 0.14 0  1.92 0.14 0  1.96 0.14 0  2 0.14 0  0 0.16 0  0.04 0.16 0  0.08 0.16 0  0.12 0.16 0  0.16 0.16 0  0.2 0.16 0  0.24 0.16 0  0.28 0.16 0  0.32 0.16 0  0.36 0.16 0  0.4 0.16 0  0.44 0.16 0  0.48 0.16 0  0.52 0.16 0  0.5600000000000001 0.16 0  0.6 0.16 0  0.64 0.16 0  0.68 0.16 0  0.72 0.16 0  0.76 0.16 0  0.8 0.16 0  0.84 0.16 0  0.88 0.16 0  0.92 0.16 0  0.96 0.16 0  1 0.16 0  1.04 0.16 0  1.08 0.16 0  1.12 0.16 0  1.16 0.16 0  1.2 0.16 0  1.24 0.16 0  1.28 0.16 0  1.32 0.16 0  1.36 0.16 0  1.4 0.16 0  1.44 0.16 0  1.48 0.16 0  1.52 0.16 0  1.56 0.16 0  1.6 0.16 0  1.64 0.16 0  1.68 0.16 0  1.72 0.16 0  1.76 0.16 0  1.8 0.16 0  1.84 0.16 0  1.88 0.16 0  1.92 0.16 0  1.96 0.16 0  2 0.16 0  0 0.18 0  0.04 0.18 0  0.08 0.18 0  0.12 0.18 0  0.16 0.18 0  0.2 0.18 0  0.24 0.18 0  0.28 0.18 0  0.32 0.18 0  0.36 0.18 0  0.4 0.18 0  0.44 0.18 0  0.48 0.18 0  0.52 0.18 0  0.5600000000000001 0.18 0  0.6 0.18 0  0.64 0.18 0  0.68 0.18 0  0.72 0.18 0  0.76 0.18 0  0.8 0.18 0  0.84 0.18 0  0.88 0.18 0  0.92 0.18 0  0.96 0.18 0  1 0.18 0  1.04 0.18 0  1.08 0.18 0  1.12 0.18 0  1.16 0.18 0  1.2 0.18 0  1.24 0.18 0  1.28 0.18 0  1.32 0.18 0  1.36 0.18 0  1.4 0.18 0  1.44 0.18 0  1.48 0.18 0  1.52 0.18 0  1.56 0.18 0  1.6 0.18 0  1.64 0.18 0  1.68 0.18 0  1.72 0.18 0  1.76 0.18 0  1.8 0.18 0  1.84 0.18 0  1.88 0.18 0  1.92 0.18 0  1.96 0.18 0  2 0.18 0  0 0.2 0  0.04 0.2 0  0.08 0.2 0  0.12 0.2 0  0.16 0.2 0  0.2 0.2 0  0.24 0.2 0  0.28 0.2 0  0.32 0.2 0  0.36 0.2 0  0.4 0.2 0  0.44 0.2 0  0.48 0.2 0  0.52 0.2 0  0.5600000000000001 0.2 0  0.6 0.2 0  0.64 0.2 0  0.68 0.2 0  0.72 0.2 0  0.76 0.2 0  0.8 0.2 0  0.84 0.2 0  0.88 0.2 0  0.92 0.2 0  0.96 0.2 0  1 0.2 0  1.04 0.2 0  1.08 0.2 0  1.12 0.2 0  1.16 0.2 0  1.2 0.2 0  1.24 0.2 0  1.28 0.2 0  1.32 0.2 0  1.36 0.2 0  1.4 0.2 0  1.44 0.2 0  1.48 0.2 0  1.52 0.2 0  1.56 0.2 0  1.6 0.2 0  1.64 0.2 0  1.68 0.2 0  1.72 0.2 0  1.76 0.2 0  1.8 0.2 0  1.84 0.2 0  1.88 0.2 0  1.92 0.2 0  1.96 0.2 0  2 0.2 0  0 0.22 0  0.04 0.22 0  0.08 0.22 0  0.12 0.22 0  0.16 0.22 0  0.2 0.22 0  0.24 0.22 0  0.28 0.22 0  0.32 0.22 0  0.36 0.22 0  0.4 0.22 0  0.44 0.22 0  0.48 0.22 0  0.52 0.22 0  0.5600000000000001 0.22 0  0.6 0.22 0  0.64 0.22 0  0.68 0.22 0  0.72 0.22 0  0.76 0.22 0  0.8 0.22 0  0.84 0.22 0  0.88 0.22 0  0.92 0.22 0  0.96 0.22 0  1 0.22 0  1.04 0.22 0  1.08 0.22 0  1.12 0.22 0  1.16 0.22 0  1.2 0.22 0  1.24 0.22 0  1.28 0.22 0  1.32 0.22 0  1.36 0.22 0  1.4 0.22 0  1.44 0.22 0  1.48 0.22 0  1.52 0.22 0  1.56 0.22 0  1.6 0.22 0  1.64 0.22 0  1.68 0.22 0  1.72 0.22 0  1.76 0.22 0  1.8 0.22 0  1.84 0.22 0  1.88 0.22 0  1.92 0.22 0  1.96 0.22 0  2 0.22 0  0 0.24 0  0.04 0.24 0  0.08 0.24 0  0.12 0.24 0  0.16 0.24 0  0.2 0.24 0  0.24 0.24 0  0.28 0.24 0  0.32 0.24 0  0.36 0.24 0  0.4 0.24 0  0.44 0.24 0  0.48 0.24 0  0.52 0.24 0  0.5600000000000001 0.24 0  0.6 0.24 0  0.64 0.24 0  0.68 0.24 0  0.72 0.24 0  0.76 0.24 0  0.8 0.24 0  0.84 0.24 0  0.88 0.24 0  0.92 0.24 0  0.96 0.24 0  1 0.24 0  1.04 0.24 0  1.08 0.24 0  1.12 0.24 0  1.16 0.24 0  1.2 0.24 0  1.24 0.24 0  1.28 0.24 0  1.32 0.24 0  1.36 0.24 0  1.4 0.24 0  1.44 0.24 0  1.48 0.24 0  1.52 0.24 0  1.56 0.24 0  1.6 0.24 0  1.64 0.24 0  1.68 0.24 0  1.72 0.24 0  1.76 0.24 0  1.8 0.24 0  1.84 0.24 0  1.88 0.24 0  1.92 0.24 0  1.96 0.24 0  2 0.24 0  0 0.26 0  0.04 0.26 0  0.08 0.26 0  0.12 0.26 0  0.16 0.26 0  0.2 0.26 0  0.24 0.26 0  0.28 0.26 0  0.32 0.26 0  0.36 0.26 0  0.4 0.26 0  0.44 0.26 0  0.48 0.26 0  0.52 0.26 0  0.5600000000000001 0.26 0  0.6 0.26 0  0.64 0.26 0  0.68 0.26 0  0.72 0.26 0  0.76 0.26 0  0.8 0.26 0  0.84 0.26 0  0.88 0.26 0  0.92 0.26 0  0.96 0.26 0  1 0.26 0  1.04 0.26 0  1.08 0.26 0  1.12 0.26 0  1.16 0.26 0  1.2 0.26 0  1.24 0.26 0  1.28 0.26 0  1.32 0.26 0  1.36 0.26 0  1.4 0.26 0  1.44 0.26 0  1.48 0.26 0  1.52 0.26 0  1.56 0.26 0  1.6 0.26 0  1.64 0.26 0  1.68 0.26 0  1.72 0.26 0  1.76 0.26 0  1.8 0.26 0  1.84 0.26 0  1.88 0.26 0  1.92 0.26 0  1.96 0.26 0  2 0.26 0  0 0.28 0  0.04 0.28 0  0.08 0.28 0  0.12 0.28 0  0.16 0.28 0  0.2 0.28 0  0.24 0.28 0  0.28 0.28 0  0.32 0.28 0  0.36 0.28 0  0.4 0.28 0  0.44 0.28 0  0.48 0.28 0  0.52 0.28 0  0.5600000000000001 0.28 0  0.6 0.28 0  0.64 0.28 0  0.68 0.28 0  0.72 0.28 0  0.76 0.28 0  0.8 0.28 0  0.84 0.28 0  0.88 0.28 0  0.92 0.28 0  0.96 0.28 0  1 0.28 0  1.04 0.28 0  1.08 0.28 0  1.12 0.28 0  1.16 0.28 0  1.2 0.28 0  1.24 0.28 0  1.28 0.28 0  1.32 0.28 0  1.36 0.28 0  1.4 0.28 0  1.44 0.28 0  1.48 0.28 0  1.52 0.28 0  1.56 0.28 0  1.6 0.28 0  1.64 0.28 0  1.68 0.28 0  1.72 0.28 0  1.76 0.28 0  1.8 0.28 0  1.84 0.28 0  1.88 0.28 0  1.92 0.28 0  1.96 0.28 0  2 0.28 0  0 0.3 0  0.04 0.3 0  0.08 0.3 0  0.12 0.3 0  0.16 0.3 0  0.2 0.3 0  0.24 0.3 0  0.28 0.3 0  0.32 0.3 0  0.36 0.3 0  0.4 0.3 0  0.44 0.3
[...]
<PointData  Vectors="f_24-0"> 
<DataArray  type="Float64"  Name="f_24-0"  NumberOfComponents="3" format="ascii">1.0000000000000017e-01 0.0000000000000000e+00 0.0000000000000000e+00  9.8000000000003099e-02 0.0000000000000000e+00 0.0000000000000000e+00  9.6000000000005498e-02 0.0000000000000000e+00 0.0000000000000000e+00  9.4000000000007425e-02 0.0000000000000000e+00 0.0000000000000000e+00  9.2000000000008991e-02 0.0000000000000000e+00 0.0000000000000000e+00  9.0000000000010447e-02 0.0000000000000000e+00 0.0000000000000000e+00  8.8000000000011722e-02 0.0000000000000000e+00 0.0000000000000000e+00  8.6000000000012802e-02 0.0000000000000000e+00 0.0000000000000000e+00  8.4000000000013758e-02 0.0000000000000000e+00 0.0000000000000000e+00  8.2000000000014603e-02 0.0000000000000000e+00 0.0000000000000000e+00  8.0000000000015267e-02 0.0000000000000000e+00 0.0000000000000000e+00  7.8000000000015848e-02 0.0000000000000000e+00 0.0000000000000000e+00  7.6000000000016346e-02 0.0000000000000000e+00 0.0000000000000000e+00  7.4000000000016761e-02 0.0000000000000000e+00 0.0000000000000000e+00  7.2000000000017036e-02 0.0000000000000000e+00 0.0000000000000000e+00  7.0000000000017160e-02 0.0000000000000000e+00 0.0000000000000000e+00  6.8000000000017213e-02 0.0000000000000000e+00 0.0000000000000000e+00  6.6000000000017170e-02 0.0000000000000000e+00 0.0000000000000000e+00  6.4000000000017029e-02 0.0000000000000000e+00 0.0000000000000000e+00  6.2000000000016854e-02 0.0000000000000000e+00 0.0000000000000000e+00  6.0000000000016603e-02 0.0000000000000000e+00 0.0000000000000000e+00  5.8000000000016358e-02 0.0000000000000000e+00 0.0000000000000000e+00  5.6000000000016065e-02 0.0000000000000000e+00 0.0000000000000000e+00  5.4000000000015681e-02 0.0000000000000000e+00 0.0000000000000000e+00  5.2000000000015277e-02 0.0000000000000000e+00 0.0000000000000000e+00  5.0000000000014824e-02 0.0000000000000000e+00 0.0000000000000000e+00  4.8000000000014330e-02 0.0000000000000000e+00 0.0000000000000000e+00  4.6000000000013808e-02 0.0000000000000000e+00 0.0000000000000000e+00  4.4000000000013251e-02 0.0000000000000000e+00 0.0000000000000000e+00  4.2000000000012687e-02 0.0000000000000000e+00 0.0000000000000000e+00  4.0000000000012095e-02 0.0000000000000000e+00 0.0000000000000000e+00  3.8000000000011490e-02 0.0000000000000000e+00 0.0000000000000000e+00  3.6000000000010877e-02 0.0000000000000000e+00 0.0000000000000000e+00  3.4000000000010237e-02 0.0000000000000000e+00 0.0000000000000000e+00  3.2000000000009632e-02 0.0000000000000000e+00 0.0000000000000000e+00  3.0000000000009002e-02 0.0000000000000000e+00 0.0000000000000000e+00  2.8000000000008341e-02 0.0000000000000000e+00 0.0000000000000000e+00  2.6000000000007711e-02 0.0000000000000000e+00 0.0000000000000000e+00  2.4000000000007085e-02 0.0000000000000000e+00 0.0000000000000000e+00  2.2000000000006455e-02 0.0000000000000000e+00 0.0000000000000000e+00  2.0000000000005836e-02 0.0000000000000000e+00 0.0000000000000000e+00  1.8000000000005224e-02 0.0000000000000000e+00 0.0000000000000000e+00  1.6000000000004604e-02 0.0000000000000000e+00 0.0000000000000000e+00  1.4000000000003997e-02 0.0000000000000000e+00 0.0000000000000000e+00  1.2000000000003404e-02 0.0000000000000000e+00 0.0000000000000000e+00  1.0000000000002816e-02 0.0000000000000000e+00 0.0000000000000000e+00  8.0000000000022362e-03 0.0000000000000000e+00 0.0000000000000000e+00  6.0000000000016733e-03 0.0000000000000000e+00 0.0000000000000000e+00  4.0000000000011060e-03 0.0000000000000000e+00 0.0000000000000000e+00  2.0000000000005499e-03 0.0000000000000000e+00 0.0000000000000000e+00  9.4368957093164043e-19 0.0000000000000000e+00 0.0000000000000000e+00  1.0000000000000001e-01 0.0000000000000000e+00 0.0000000000000000e+00  9.9122013978635182e-02 9.2177214872308220e-04 0.0000000000000000e+00  9.7304671390907579e-02 9.8024794198721139e-04 0.0000000000000000e+00  9.5420527377838266e-02 9.8397307604403106e-04 0.0000000000000000e+00  9.3516349048909195e-02 9.7868937732864037e-04 0.0000000000000000e+00  9.1631487503391118e-02 9.7298158252457018e-04 0.0000000000000000e+00  8.9765575829848246e-02 9.6733768080344798e-04 0.0000000000000000e+00  8.7918693474920248e-02 9.6242135967755562e-04 0.0000000000000000e+00  8.6088487939431094e-02 9.5828323152234620e-04 0.0000000000000000e+00  8.4272372000230314e-02 9.5488229518058050e-04 0.0000000000000000e+00  8.2467860335724008e-02 9.5213433276989464e-04 0.0000000000000000e+00  8.0672737196103808e-02 9.4994122466213193e-04 0.0000000000000000e+00  7.8885112971409002e-02 9.4820813192398863e-04 0.0000000000000000e+00  7.7103419496577591e-02 9.4684878515999683e-04 0.0000000000000000e+00  7.5326383449755840e-02 9.4578791881688240e-04 0.0000000000000000e+00  7.3552989864856796e-02 9.4496159825118115e-04 0.0000000000000000e+00  7.1782443606718815e-02 9.4431661965515461e-04 0.0000000000000000e+00  7.0014132450903974e-02 9.4380947128503757e-04 0.0000000000000000e+00  6.8247593517652291e-02 9.4340513715484848e-04 0.0000000000000000e+00  6.6482483713020860e-02 9.4307590535387805e-04 0.0000000000000000e+00  6.4718554203835391e-02 9.4280027135234168e-04 0.0000000000000000e+00  6.2955628602361854e-02 9.4256198482112305e-04 0.0000000000000000e+00  6.1193584349781421e-02 9.4234926195617017e-04 0.0000000000000000e+00  5.9432336703453888e-02 9.4215416848150669e-04 0.0000000000000000e+00  5.7671824713746551e-02 9.4197216769176782e-04 0.0000000000000000e+00  5.5911998598864830e-02 9.4180182075853560e-04 0.0000000000000000e+00  5.4152807977021919e-02 9.4164462141904030e-04 0.0000000000000000e+00  5.2394190487368722e-02 9.4150494285905745e-04 0.0000000000000000e+00  5.0636060422060203e-02 9.4139007017624737e-04 0.0000000000000000e+00  4.8878297102666023e-02 9.4131028665116645e-04 0.0000000000000000e+00  4.7120732867712282e-02 9.4127897592035216e-04 0.0000000000000000e+00  4.5363140697375286e-02 9.4131269531906397e-04 0.0000000000000000e+00  4.3605221686617734e-02 9.4143116922256484e-04 0.0000000000000000e+00  4.1846592783263581e-02 9.4165714734239831e-04 0.0000000000000000e+00  4.0086775415065772e-02 9.4201607575210332e-04 0.0000000000000000e+00  3.8325185800627146e-02 9.4253554344938357e-04 0.0000000000000000e+00  3.6561127809720192e-02 9.4324450698721023e-04 0.0000000000000000e+00  3.4793789075717951e-02 9.4417236254645440e-04 0.0000000000000000e+00  3.3022240562089383e-02 9.4534809307208101e-04 0.0000000000000000e+00  3.1245438381114841e-02 9.4679982669431837e-04 0.0000000000000000e+00  2.9462225041947791e-02 9.4855591091725072e-04 0.0000000000000000e+00  2.7671320457006883e-02 9.5064761246043252e-04 0.0000000000000000e+00  2.5871296120863540e-02 9.5312071139147948e-04 0.0000000000000000e+00  2.4060472671303085e-02 9.5604184488530758e-04 0.0000000000000000e+00  2.2236806760748219e-02 9.5958497030921848e-04 0.0000000000000000e+00  2.0397176307332399e-02 9.6391048939790198e-04 0.0000000000000000e+00  1.8537665898039790e-02 9.7023248365325039e-04 0.0000000000000000e+00  1.6646301335199894e-02 9.7772942208698677e-04 0.0000000000000000e+00  1.4717630391620343e-02 1.0003092406550762e-03 0.0000000000000000e+00  1.2643750155579584e-02 1.0217257133726771e-03 0.0000000000000000e+00  1.0457650824896645e-02 1.2459745781665153e-03 0.0000000000000000e+00  1.0000000000000001e-01 0.0000000000000000e+00 0.0000000000000000e+00  9.9566472868279687e-02 1.5774725629421873e-03 0.0000000000000000e+00  9.8213791636294220e-02 1.8459483318562678e-03 0.0000000000000000e+00  9.6563847389987190e-02 1.8923287621151353e-03 0.0000000000000000e+00  9.4835809733156057e-02 1.8896688541830222e-03 0.0000000000000000e+00  9.3109355858284309e-02 1.8750287866009685e-03 0.0000000000000000e+00  9.1402767332387336e-02 1.8576604644621280e-03 0.0000000000000000e+00  8.9722727804761523e-02 1.8412315458090829e-03 0.0000000000000000e+00  8.8068532784760609e-02 1.8268009381793326e-03 0.0000000000000000e+00  8.6437520891885403e-02 1.8146317962493186e-03 0.0000000000000000e+00  8.4826299134274613e-02 1.8046217571445321e-03 0.0000000000000000e+00  8.3231497273554070e-02 1.7965282140434782e-03 0.0000000000000000e+00  8.1650056964555268e-02 1.7900669959038610e-03 0.0000000000000000e+00  8.0079340237889332e-02 1.7849568760032245e-03 0.0000000000000000e+00  7.8517147213733776e-02 1.7809405591342356e-03 0.0000000000000000e+00  7.6961689453598034e-02 1.7777928623080419e-03 0.0000000000000000e+00  7.5411544039167250e-02 1.7753225718947410e-03 0.0000000000000000e+00  7.3865601144205636e-02 1.7733710314540461e-03 0.0000000000000000e+00  7.2323011910548463e-02 1.7718091960189674e-03 0.0000000000000000e+00  7.0783139969924511e-02 1.7705341293754397e-03 0.0000000000000000e+00  6.9245517992131828e-02 1.7694655031131985e-03 0.0000000000000000e+00  6.7709809504143570e-02 1.7685424115564717e-03 0.0000000000000000e+00  6.6175775579601706e-02 1.7677206670372913e-03 0.0000000000000000e+00  6.4643245653088821e-02 1.7669706467093173e-03 0.0000000000000000e+00  6.3112091555991331e-02 1.7662757027896000e-03 0.0000000000000000e+00  6.1582203833229723e-02 1.7656311093758625e-03 0.0000000000000000e+00  6.0053469442377987e-02 1.7650434919944907e-03 0.0000000000000000e+00  5.8525750036202771e-02 1.7645306646634456e-03 0.0000000000000000e+00  5.6998860175857896e-02 1.7641217791935743e-03 0.0000000000000000e+00  5.5472545012195860e-02 1.7638576699289751e-03 0.0000000000000000e+00  5.3946457208562705e-02 1.7637912530332829e-03 0.0000000000000000e+00  5.2420133162010316e-02 1.7639878138359733e-03 0.0000000000000000e+00  5.0892968908210559e-02 1.7645249928477720e-03 0.0000000000000000e+00  4.9364196453186134e-02 1.7654922695614713e-03 0.0000000000000000e+00  4.7832861624671506e-02 1.7669897583183585e-03 0.0000000000000000e+00  4.6297804800277814e-02 1.7691261966606480e-03 0.0000000000000000e+00  4.4757645921104205e-02 1.7720161604218661e-03 0.0000000000000000e+00  4.3210774796266428e-02 1.7757768346436708e-03 0.0000000000000000e+00  4.1655346590541174e-02 1.7805251829652875e-03 0.0000000000000000e+00  4.0089279703639506e-02 1.7863772054902075e-03 0.0000000000000000e+00  3.8510249461625429e-02 1.7934523615456741e-03 0.0000000000000000e+00  3.6915659840839173e-02 1.8018885190588718e-03 0.0000000000000000e+00  3.5302573421359389e-02 1.8118770170103648e-03 0.0000000000000000e+00  3.3667507655302895e-02 1.8237358213130800e-03 0.0000000000000000e+00  3.2006136751954267e-02 1.8380574499575037e-03 0.0000000000000000e+00  3.0312126782031667e-02 1.8560310393098119e-03 0.0000000000000000e+00  2.8576811691111703e-02 1.8801429924240297e-03 0.0000000000000000e+00  2.6779935256862536e-02 1.9162146851945884e-03 0.0000000000000000e+00  2.4902321244723719e-02 1.9796141568066022e-03 0.0000000000000000e+00  2.2818135773831412e-02 2.1156560412866859e-03 0.0000000000000000e+00  2.0629484208661963e-02 2.4902127476917613e-03 0.0000000000000000e+00  1.0000000000000001e-01 0.0000000000000000e+00 0.0000000000000000e+00  9.9758820922146468e-02 1.9817389478460293e-03 0.0000000000000000e+00  9.8819714203990203e-02 2.5415303420249099e-03 0.0000000000000000e+00  9.7464753263583462e-02 2.6856404299713111e-03 0.0000000000000000e+00  9.5965979509413657e-02 2.7079555313752309e-03 0.0000000000000000e+00  9.4432700923883381e-02 2.6908668804207637e-03 0.0000000000000000e+00  9.2907729736363812e-02 2.6621024739792911e-03 0.0000000000000000e+00  9.1407368087516414e-02 2.6317886261984346e-03 0.0000000000000000e+00  8.9935489795463175e-02 2.6037969720190154e-03 0.0000000000000000e+00  8.8491262422895345e-02 2.5794881574675342e-03 0.0000000000000000e+00  8.7071716851588377e-02 2.5590976173738007e-03 0.0000000000000000e+00  8.5673268986033571e-02 2.5423786351857483e-03 0.0000000000000000e+00  8.4292357606420412e-02 2.5288874324951157e-03 0.0000000000000000e+00  8.2925751794184432e-02 2.5181245803283349e-03 0.0000000000000000e+00  8.1570667221124882e-02 2.5096037494626170e-03 0.0000000000000000e+00  8.0224787395580630e-02 2.5028836526700248e-03 0.0000000000000000e+00  7.8886236876355639e-02 2.4975807239585816e-03 0.0000000000000000e+00  7.7553532261467092e-02 2.4933715288563158e-03 0.0000000000000000e+00  7.6225525177937764e-02 2.4899899298508991e-03 0.0000000000000000e+00  7.4901344852681767e-02 2.4872218405913500e-03 0.0000000000000000e+00  7.3580344051007204e-02 2.4848992124905630e-03 0.0000000000000000e+00  7.2262049926785435e-02 2.4828941991786608e-03 0.0000000000000000e+00  7.0946120017453679e-02 2.4811140230858947e-03 0.0000000000000000e+00  6.9632302870983251e-02 2.4794968072762800e-03 0.0000000000000000e+00  6.8320402398925242e-02 2.4780084702567648e-03 0.0000000000000000e+00  6.7010244882290515e-02 2.4766406739090046e-03 0.0000000000000000e+00  6.5701647538760538e-02 2.4754097407987800e-03 0.0000000000000000e+00  6.4394387646129189e-02 2.4743564007903731e-03 0.0000000000000000e+00  6.3088171384471564e-02 2.4735461771791781e-03 0.0000000000000000e+00  6.1782601798357720e-02 2.4730701725736016e-03 0.0000000000000000e+00  6.0477145587902056e-02 2.4730459616908894e-03 0.0000000000000000e+00  5.9171098812133664e-02 2.4736182442683628e-03 0.0000000000000000e+00  5.7863552022106725e-02 2.4749588655204259e-03 0.0000000000000000e+00  5.6553355809176517e-02 2.4772657929458637e-03 0.0000000000000000e+00  5.5239088199500519e-02 2.4807606797752212e-03 0.0000000000000000e+00  5.3919025638731667e-02 2.4856847993633504e-03 0.0000000000000000e+00  5.2591119307696228e-02 2.4922934801776776e-03 0.0000000000000000e+00  5.1252977863714744e-02 2.5008498224174678e-03 0.0000000000000000e+00  4.9901856016701322e-02 2.5116196002882172e-03 0.0000000000000000e+00  4.8534644600260059e-02 2.5248711003031301e-03 0.0000000000000000e+00  4.7147852027517832e-02 2.5408866287957048e-03 0.0000000000000000e+00  4.5737553038150670e-02 2.5599973832396068e-03 0.0000000000000000e+00  4.4299272204318015e-02 2.5826621237813037e-03 0.0000000000000000e+00  4.2827695593396865e-02 2.6096275028479384e-03 0.0000000000000000e+00  4.1316201416995907e-02 2.6422466825860012e-03 0.0000000000000000e+00  3.9755470751335696e-02 2.6831317946753052e-03 0.0000000000000000e+00  3.8132573299092400e-02 2.7375727430082640e-03 0.0000000000000000e+00  3.6422205322833447e-02 2.8170920175743914e-03 0.0000000000000000e+00  3.4597661891730663e-02 2.9481647554711922e-03 0.0000000000000000e+00  3.2551154758222539e-02 3.1987629925214508e-03 0.0000000000000000e+00  3.0413837301658322e-02 3.6984430372451393e-03 0.0000000000000000e+00  1.0000000000000001e-01 0.0000000000000000e+00 0.0000000000000000e+00  9.9863503409254803e-02 2.2204257528273910e-03 0.0000000000000000e+00  9.9225686626185319e-02 3.0655169098481910e-03 0.0000000000000000e+00  9.8171493637639023e-02 3.3456571708954694e-03 0.0000000000000000e+00  9.6925019612894223e-02 3.4161029316483681e-03 0.0000000000000000e+00  9.5608078072470223e-02 3.4085215470656596e-03 0.0000000000000000e+00  9.4281507907847784e-02 3.3730435937490109e-03 0.0000000000000000e+00  9.2971227932382786e-02 3.3298425919127358e-03 0.0000000000000000e+00  9.1687037983549713e-02 3.2875186512859433e-03 0.0000000000000000e+00  9.0431039333020463e-02 3.2495234477702521e-03 0.0000000000000000e+00  8.9201662629307968e-02 3.2169685774100973e-03 0.0000000000000000e+00  8.7995854657975561e-02 3.1898733051216204e-03 0.0000000000000000e+00  8.6810117560535402e-02 3.1677607965841540e-03 0.0000000000000000e+00  8.5641053088485380e-02 3.1499609045621256e-03 0.0000000000000000e+00  8.4485609944001769e-02 3.1357632444834840e-03 0.0000000000000000e+00  8.3341179137406143e-02 3.1244939861590154e-03 0.0000000000000000e+00  8.2205606151913760e-02 3.1155513525807760e-03 0.0000000000000000e+00  8.1077160494799128e-02 3.1084186719349889e-03 0.0000000000000000e+00  7.9954485293685873e-02 3.1026654040500153e-03 0.0000000000000000e+00  7.8836539653334148e-02 3.0979421007218391e-03 0.0000000000000000e+00  7.7722540633485909e-02 3.0939727892748286e-03 0.0000000000000000e+00  7.6611908198877560e-02 3.0905468206966435e-03 0.0000000000000000e+00  7.5504214396245897e-02 3.0875113520156144e-03 0.0000000000000000e+00  7.4399136777096933e-02 3.0847650919904514e-03 0.0000000000000000e+00  7.3296415389977304e-02 3.0822535969702290e-03 0.0000000000000000e+00  7.2195812317639357e-02 3.0799661814294092e-03 0.0000000000000000e+00  7.1097072615043125e-02 3.0779343562034743e-03 0.0000000000000000e+00  6.9999885543519921e-02 3.0762315947653490e-03 0.0000000000000000e+00  6.8903845155391705e-02 3.0749741326478830e-03 0.0000000000000000e+00  6.7808409542308559e-02 3.0743224140761601e-03 0.0000000000000000e+00  6.6712858410923642e-02 3.0744827073949689e-03 0.0000000000000000e+00  6.5616249085220305e-02 3.0757083202630447e-03 0.0000000000000000e+00  6.4517371542570784e-02 3.0782997720710816e-03 0.0000000000000000e+00  6.3414703636860914e-02 3.0826032566296773e-03 0.0000000000000000e+00  6.2306368175683170e-02 3.0890068084622985e-03 0.0000000000000000e+00  6.1190093864527312e-02 3.0979338592307484e-03 0.0000000000000000e+00  6.0063182085241792e-02 3.1098344690995497e-03 0.0000000000000000e+00  5.8922480650703650e-02 3.1251756333014820e-03 0.0000000000000000e+00  5.7764363582367896e-02 3.1444339716746950e-03 0.0000000000000000e+00  5.6584711457617322e-02 3.1680972247516257e-03 0.0000000000000000e+00  5.5378879809647168e-02 3.1966859584396340e-03 0.0000000000000000e+00  5.4141627334378911e-02 3.2308150650125281e-03 0.0000000000000000e+00  5.2866964250944122e-02 3.2713284990060583e-03 0.0000000000000000e+00  5.1547807574977574e-02 3.3195680457173780e-03 0.0000000000000000e+00  5.0175421203556489e-02 3.3778899215197063e-03 0.0000000000000000e+00  4.8737956138955374e-02 3.4506848267247484e-03 0.0000000000000000e+00  4.7219486657095411e-02 3.5464283335155901e-03 0.0000000000000000e+00  4.5592410328886154e-02 3.6822582989029500e-03 0.0000000000000000e+00  4.3830356140010449e-02 3.8933222620602418e-03 0.0000000000000000e+00  4.1846978424011812e-02 4.2515278361820834e-03 0.0000000000000000e+00  3.9781835533831800e-02 4.8603311219416415e-03 0.0000000000000000e+00  1.0000000000000001e-01 0.0000000000000000e+00 0.0000000000000000e+00  9.9928565221361398e-02 2.3614921580493143e-03 0.0000000000000000e+00  9.9510534057423217e-02 3.4428914593562735e-03 0.0000000000000000e+00  9.8729558620744146e-02 3.8688468874233562e-03 0.0000000000000000e+00  9.7736550926721663e-02 4.0056441630668257e-03 0.0000000000000000e+00  9.6647017212102296e-02 4.0202045813322700e-03 0.0000000000000000e+00  9.5528910289700855e-02 3.9848914756242170e-03 0.0000000000000000e+00  9.4415760770960963e-02 3.9321120332210654e-03 0.0000000000000000e+00  9.3322921238763346e-02 3.8766204080457117e-03 0.0000000000000000e+00  9.2255799373226949e-02 3.8249335866932270e-03 0.0000000000000000e+00  9.1214780644354343e-02 3.7796228360778782e-03 0.0000000000000000e+00  9.0197852301197673e-02 3.7413088331285111e-03 0.0000000000000000e+00  8.9202017170722944e-02 3.7096700906091651e-03 0.0000000000000000e+00  8.8224062001958925e-02 3.6839643707463543e-03 0.0000000000000000e+00  8.7260945722056282e-02 3.6633032369185435e-03 0.0000000000000000e+00  8.6309981094104316e-02 3.6467960410942026e-03 0.0000000000000000e+00  8.5368897789083575e-02 3.6336218983447056e-03 0.0000000000000000e+00  8.4435840996979053e-02 3.6230616840052998e-03 0.0000000000000000e+00  8.3509336341279605e-02 3.6145078990537744e-03 0.0000000000000000e+00  8.2588239101871463e-02 3.6074627728495783e-03 0.0000000000000000e+00  8.1671677905036141e-02 3.6015307306802736e-03 0.0000000000000000e+00  8.0758998287423389e-02 3.5964088656947283e-03 0.0000000000000000e+00  7.9849708638419101e-02 3.5918775483980430e-03 0.0000000000000000e+00  7.8943429269798679e-02 3.5877923698266687e-03 0.0000000000000000e+00  7.8039844333737576e-02 3.5840780198941186e-03 0.0000000000000000e+00  7.7138655751741780e-02 3.5807243155767110e-03 0.0000000000000000e+00  7.6239538069397872e-02 3.5777843312270207e-03 0.0000000000000000e+00  7.5342093118784467e-02 3.5753743912352912e-03 0.0000000000000000e+00  7.4445803496057825e-02 3.5736755278903023e-03 0.0000000000000000e+00  7.354998