<?xml version="1.0"?>
<VTKFile type="UnstructuredGrid"  version="0.1"  >
<UnstructuredGrid>
<Piece  NumberOfPoints="1419" NumberOfCells="2698">
<Points>
<DataArray  type="Float64"  NumberOfComponents="3"  format="ascii">0 0 0  0 0.41 0  2.5 0 0  2.5 0.41 0  0.6 0.19 0  0.6 0.21 0  0.25 0.2 0  0.15 0.2 0  0.2489897948556636 0.21 0  0.2489897948556636 0.19 0  0.6 0.2 0  0 0.3807142857143437 0  0 0.3514285714286952 0  0 0.3221428571430699 0  0 0.29285714285744 0  0 0.2635714285718054 0  0 0.2342857142861561 0  0 0.2050000000005308 0  0 0.175714285714732 0  0 0.1464285714289574 0  0 0.1171428571431897 0  0 0.08785714285737878 0  0 0.05857142857161107 0  0 0.02928571428580012 0  0.03015443760436003 0 0  0.06140001986583606 0 0  0.09377624077125973 0 0  0.1273239957535082 0 0  0.1620856860351972 0 0  0.1981052433264291 0 0  0.235428184091502 0 0  0.2741016576309132 0 0  0.3141745521465447 0 0  0.3556974926295285 0 0  0.3987229542472677 0 0  0.4433053055141081 0 0  0.4895008759286886 0 0  0.5373680609405097 0 0  0.5869673343216626 0 0  0.6383613676634521 0 0  0.6916151138468254 0 0  0.7467958595648856 0 0  0.8039733463919316 0 0  0.8632198139502143 0 0  0.9246101326867038 0 0  0.9882218810934433 0 0  1.054135445558498 0 0  1.122434100542598 0 0  1.193204177141305 0 0  1.266535089879536 0 0  1.342519516046404 0 0  1.421253448503939 0 0  1.502836389106271 0 0  1.587371439758838 0 0  1.674965418777374 0 0  1.765729001825544 0 0  1.859776908880082 0 0  1.957227977487062 0 0  2.058205329869943 0 0  2.162836591189951 0 0  2.271253957290865 0 0  2.383594446803425 0 0  2.5 0.1024999999997612 0  2.5 0.2049999999994743 0  2.5 0.3074999999997183 0  2.383594446803656 0.41 0  2.271253957291315 0.41 0  2.162836591190598 0.41 0  2.058205329870775 0.41 0  1.957227977488067 0.41 0  1.859776908881246 0.41 0  1.765729001826854 0.41 0  1.674965418778818 0.41 0  1.58737143976041 0.41 0  1.502836389107956 0.41 0  1.421253448505726 0.41 0  1.342519516048286 0.41 0  1.266535089881505 0.41 0  1.193204177143353 0.41 0  1.122434100544716 0.41 0  1.05413544556068 0.41 0  0.9882218810956305 0.41 0  0.9246101326886647 0.41 0  0.8632198139519631 0.41 0  0.8039733463934788 0.41 0  0.7467958595662458 0.41 0  0.6916151138480078 0.41 0  0.6383613676644679 0.41 0  0.5869673343225223 0.41 0  0.5373680609412221 0.41 0  0.4895008759292634 0.41 0  0.4433053055145528 0.41 0  0.3987229542475914 0.41 0  0.3556974926297398 0.41 0  0.3141745521466497 0.41 0  0.2741016576310038 0.41 0  0.2354281840915826 0.41 0  0.1981052433265003 0.41 0  0.1620856860352591 0.41 0  0.1273239957535623 0.41 0  0.09377624077128965 0.41 0  0.06140001986584975 0.41 0  0.03015443760436654 0.41 0  0.2497468076502589 0.2050254481002335 0  0.2497468076502614 0.1949745518997913 0  0.2469965252529372 0.1829317073451959 0  0.2439893735792749 0.1762316384219906 0  0.2400332147834255 0.1700443375285386 0  0.2352133972704371 0.1645032867342007 0  0.2296339016332438 0.1597280261969788 0  0.2234150974217223 0.1558215752574715 0  0.2166911463437691 0.1528682099456123 0  0.2096071079204251 0.1509316448471593 0  0.2023158100364996 0.1500536585536553 0  0.194974551899914 0.1502531923497262 0  0.1877417105387872 0.1515259415822739 0  0.1807733240461124 0.153844448527136 0  0.1742197252835808 0.15715869474974 0  0.1682222986673531 0.1613971801805478 0  0.162910430003803 0.1664684656256651 0  0.1583987151779087 0.1722631454351573 0  0.1547844879126891 0.178656207771761 0  0.1521457199348551 0.1855097315605723 0  0.1505393388476355 0.1926758619366523 0  0.1505393388476328 0.2073241380633295 0  0.1521457199348437 0.2144902684393899 0  0.1547844879126531 0.221343792228163 0  0.1583987151778488 0.2277368545647528 0  0.1629104300036858 0.2335315343742052 0  0.1682222986671726 0.2386028198193036 0  0.1742197252833576 0.2428413052501257 0  0.1807733240458683 0.2461555514727623 0  0.1877417105384929 0.2484740584176516 0  0.1949745518995776 0.2497468076502398 0  0.202315810036185 0.2499463414463592 0  0.2096071079201568 0.2490683551528932 0  0.2166911463435495 0.2471317900544655 0  0.2234150974215506 0.2441784247426195 0  0.2296339016331197 0.2402719738031125 0  0.2352133972703547 0.2354967132658811 0  0.2400332147833751 0.2299556624715287 0  0.2439893735792577 0.2237683615780412 0  0.246996525252926 0.2170682926548348 0  0.25645809709277 0.21 0  0.2639263993298655 0.21 0  0.271394701566961 0.21 0  0.2788630038040554 0.21 0  0.2863313060411479 0.21 0  0.2937996082782405 0.21 0  0.301267910515333 0.21 0  0.3087362127524279 0.21 0  0.3162045149895234 0.21 0  0.3236728172265972 0.21 0  0.3311411194636928 0.21 0  0.3386094217007701 0.21 0  0.3460777239378666 0.21 0  0.3535460261749672 0.21 0  0.3610143284120516 0.21 0  0.3684826306491596 0.21 0  0.3759509328862226 0.21 0  0.383419235123329 0.21 0  0.3908875373604028 0.21 0  0.3983558395975142 0.21 0  0.4058241418345938 0.21 0  0.4132924440716992 0.21 0  0.4207607463087888 0.21 0  0.4282290485459029 0.21 0  0.4356973507830418 0.21 0  0.4431656530201649 0.21 0  0.4506339552573136 0.21 0  0.4581022574944306 0.21 0  0.4655705597315852 0.21 0  0.4730388619686996 0.21 0  0.480507164205851 0.21 0  0.4879754664429498 0.21 0  0.4954437686800938 0.21 0  0.502912070917267 0.21 0  0.5103803731544119 0.21 0  0.5178486753915261 0.21 0  0.5253169776286404 0.21 0  0.5327852798657868 0.21 0  0.5402535821029386 0.21 0  0.54772188434007 0.21 0  0.5551901865771842 0.21 0  0.5626584888143201 0.21 0  0.5701267910514778 0.21 0  0.5775950932886138 0.21 0  0.5850633955257281 0.21 0  0.5925316977628483 0.21 0  0.6 0.2050000000000054 0  0.6 0.1950000000000217 0  0.5925316977628897 0.19 0  0.5850633955257988 0.19 0  0.5775950932887378 0.19 0  0.5701267910515998 0.19 0  0.5626584888145268 0.19 0  0.5551901865773963 0.19 0  0.547721884340339 0.19 0  0.5402535821032429 0.19 0  0.5327852798661811 0.19 0  0.5253169776290537 0.19 0  0.5178486753919799 0.19 0  0.5103803731549078 0.19 0  0.502912070917822 0.19 0  0.4954437686807294 0.19 0  0.4879754664436223 0.19 0  0.4805071642065402 0.19 0  0.4730388619694271 0.19 0  0.4655705597323621 0.19 0  0.4581022574952563 0.19 0  0.4506339552581777 0.19 0  0.4431656530210671 0.19 0  0.4356973507839815 0.19 0  0.4282290485468779 0.19 0  0.4207607463097617 0.19 0  0.4132924440726327 0.19 0  0.4058241418354857 0.19 0  0.3983558395983636 0.19 0  0.3908875373612097 0.19 0  0.3834192351240934 0.19 0  0.3759509328869369 0.19 0  0.3684826306498175 0.19 0  0.361014328412667 0.19 0  0.3535460261755617 0.19 0  0.3460777239384295 0.19 0  0.3386094217012945 0.19 0  0.3311411194641595 0.19 0  0.3236728172270245 0.19 0  0.3162045149898895 0.19 0  0.3087362127527544 0.19 0  0.3012679105156187 0.19 0  0.2937996082784807 0.19 0  0.2863313060413428 0.19 0  0.2788630038042048 0.19 0  0.2713947015670686 0.19 0  0.2639263993299336 0.19 0  0.2564580970927985 0.19 0  0.2607803159922026 0.2000727136295815 0  0.5887803774232762 0.2001272386983733 0  0.5745072403740523 0.2002044435018727 0  0.5511891430099709 0.2001122610077113 0  0.2751288526855082 0.20000000000002 0  0.5365194309847112 0.1999999999999436 0  0.2894621222999649 0.1998691686390484 0  0.5215828265105155 0.1999999999999228 0  0.3127789816668748 0.1998657885438805 0  0.3274069683451451 0.2000000000000796 0  0.5066462220363641 0.199999999999908 0  0.3650630746574081 0.199866017807523 0  0.476773013087985 0.1999999999998713 0  0.3417402379596385 0.1998691686391011 0  0.3796850840047755 0.200000000000134 0  0.4618364086138087 0.1999999999998546 0  0.4917096175621762 0.1999999999998808 0  0.3946216884789568 0.2000000000001512 0  0.446899804139621 0.1999999999998389 0  0.4089549580935208 0.1998691686391595 0  0.4322718174608562 0.200127451265745 0  0.4201487168029707 0.1999966199048527 0  0.3528922713220932 0.2000185703532356 0  0.5633122436674589 0.1999814296467508 0  0.3006558810093873 0.1999966199048318 0  0.5815926498168407 0.1966545283159175 0  0.2677053789419034 0.1964246479135325 0  0.5290511287476175 0.1970915826863981 0  0.5439877332217911 0.197091582686394 0  0.2825131256993216 0.2035478995978015 0  0.3199386661080599 0.202908417313604 0  0.4842413153250809 0.1970915826863873 0  0.5141145242734466 0.1970915826863843 0  0.3722167817676917 0.2029084173136195 0  0.4693047108508938 0.1970915826863783 0  0.3348752705822316 0.202908417313609 0  0.3871533862418661 0.2029084173136212 0  0.4543681063767183 0.1970915826863795 0  0.4991779197992749 0.1970915826863902 0  0.4020059614928624 0.203547899597858 0  0.4394315019025246 0.1970915826863714 0  0.2550657455369551 0.2034088125358657 0  0.2548908499171161 0.1966940311614271 0  0.5946539510196798 0.2024302972968126 0  0.267698176732111 0.2039977513680092 0  0.4261685417851465 0.196409292431739 0  0.3590076176283495 0.196411355804271 0  0.5571672426447437 0.2036011176410121 0  0.3066757059912147 0.1964092924317024 0  0.594380730180568 0.1966558399668133 0  0.4842413153245942 0.2040749161535287 0  0.4693047108503577 0.2040749161535231 0  0.3871533862424271 0.1959250838464788 0  0.372246743208829 0.1959123236376545 0  0.5141145242731028 0.2040749161535395 0  0.4543681063761134 0.2040749161535186 0  0.4019979587101454 0.1959834479682427 0  0.4394608940728603 0.2040870543693135 0  0.5439623148931173 0.2040856076781014 0  0.5290511287473298 0.2040749161535501 0  0.4991779197988497 0.2040749161535382 0  0.3347912413592433 0.1959225448935183 0  0.3199680582793816 0.1959123018030061 0  0.2825051229162361 0.1959834479681729 0  0.3590471196690275 0.2036304442587945 0  0.5571594006495384 0.1963685282145804 0  0.3067669986803285 0.203627750582736 0  0.4262598344738712 0.2036568242185335 0  0.5814408164431408 0.2041285596160068 0  0.5688286748170428 0.1961819304477386 0  0.4145905603063645 0.2038180695522843 0  0.3473758401724931 0.2038180695522752 0  0.2950977245128307 0.2038180695522663 0  0.5688286748170693 0.203818069552238 0  0.2950977245127906 0.1961819304477774 0  0.3473758401723931 0.1961819304478349 0  0.4145905603061963 0.1961819304479011 0  0.2601812407614425 0.2056861609747042
[...]
<PointData  Vectors="f_40-1"> 
<DataArray  type="Float64"  Name="f_40-1"  NumberOfComponents="3" format="ascii">0.0000000000000000e+00 0.0000000000000000e+00 0.0000000000000000e+00  0.0000000000000000e+00 0.0000000000000000e+00 0.0000000000000000e+00  0.0000000000000000e+00 0.0000000000000000e+00 0.0000000000000000e+00  0.0000000000000000e+00 0.0000000000000000e+00 0.0000000000000000e+00  -3.1651344026494880e-06 -1.3017986306117372e-07 0.0000000000000000e+00  -3.1231382094582391e-06 -4.3951714985235400e-07 0.0000000000000000e+00  0.0000000000000000e+00 0.0000000000000000e+00 0.0000000000000000e+00  0.0000000000000000e+00 0.0000000000000000e+00 0.0000000000000000e+00  0.0000000000000000e+00 0.0000000000000000e+00 0.0000000000000000e+00  0.0000000000000000e+00 0.0000000000000000e+00 0.0000000000000000e+00  -3.1506717264082994e-06 -2.8474582052225636e-07 0.0000000000000000e+00  0.0000000000000000e+00 0.0000000000000000e+00 0.0000000000000000e+00  0.0000000000000000e+00 0.0000000000000000e+00 0.0000000000000000e+00  0.0000000000000000e+00 0.0000000000000000e+00 0.0000000000000000e+00  0.0000000000000000e+00 0.0000000000000000e+00 0.0000000000000000e+00  0.0000000000000000e+00 0.0000000000000000e+00 0.0000000000000000e+00  0.0000000000000000e+00 0.0000000000000000e+00 0.0000000000000000e+00  0.0000000000000000e+00 0.0000000000000000e+00 0.0000000000000000e+00  0.0000000000000000e+00 0.0000000000000000e+00 0.0000000000000000e+00  0.0000000000000000e+00 0.0000000000000000e+00 0.0000000000000000e+00  0.0000000000000000e+00 0.0000000000000000e+00 0.0000000000000000e+00  0.0000000000000000e+00 0.0000000000000000e+00 0.0000000000000000e+00  0.0000000000000000e+00 0.0000000000000000e+00 0.0000000000000000e+00  0.0000000000000000e+00 0.0000000000000000e+00 0.0000000000000000e+00  0.0000000000000000e+00 0.0000000000000000e+00 0.0000000000000000e+00  0.0000000000000000e+00 0.0000000000000000e+00 0.0000000000000000e+00  0.0000000000000000e+00 0.0000000000000000e+00 0.0000000000000000e+00  0.0000000000000000e+00 0.0000000000000000e+00 0.0000000000000000e+00  0.0000000000000000e+00 0.0000000000000000e+00 0.0000000000000000e+00  0.0000000000000000e+00 0.0000000000000000e+00 0.0000000000000000e+00  0.0000000000000000e+00 0.0000000000000000e+00 0.0000000000000000e+00  0.0000000000000000e+00 0.0000000000000000e+00 0.0000000000000000e+00  0.0000000000000000e+00 0.0000000000000000e+00 0.0000000000000000e+00  0.0000000000000000e+00 0.0000000000000000e+00 0.0000000000000000e+00  0.0000000000000000e+00 0.0000000000000000e+00 0.0000000000000000e+00  0.0000000000000000e+00 0.0000000000000000e+00 0.0000000000000000e+00  0.0000000000000000e+00 0.0000000000000000e+00 0.0000000000000000e+00  0.0000000000000000e+00 0.0000000000000000e+00 0.0000000000000000e+00  0.0000000000000000e+00 0.0000000000000000e+00 0.0000000000000000e+00  0.0000000000000000e+00 0.0000000000000000e+00 0.0000000000000000e+00  0.0000000000000000e+00 0.0000000000000000e+00 0.0000000000000000e+00  0.0000000000000000e+00 0.0000000000000000e+00 0.0000000000000000e+00  0.0000000000000000e+00 0.0000000000000000e+00 0.0000000000000000e+00  0.0000000000000000e+00 0.0000000000000000e+00 0.0000000000000000e+00  0.0000000000000000e+00 0.0000000000000000e+00 0.0000000000000000e+00  0.0000000000000000e+00 0.0000000000000000e+00 0.0000000000000000e+00  0.0000000000000000e+00 0.0000000000000000e+00 0.0000000000000000e+00  0.0000000000000000e+00 0.0000000000000000e+00 0.0000000000000000e+00  0.0000000000000000e+00 0.0000000000000000e+00 0.0000000000000000e+00  0.0000000000000000e+00 0.0000000000000000e+00 0.0000000000000000e+00  0.0000000000000000e+00 0.0000000000000000e+00 0.0000000000000000e+00  0.0000000000000000e+00 0.0000000000000000e+00 0.0000000000000000e+00  0.0000000000000000e+00 0.0000000000000000e+00 0.0000000000000000e+00  0.0000000000000000e+00 0.0000000000000000e+00 0.0000000000000000e+00  0.0000000000000000e+00 0.0000000000000000e+00 0.0000000000000000e+00  0.0000000000000000e+00 0.0000000000000000e+00 0.0000000000000000e+00  0.0000000000000000e+00 0.0000000000000000e+00 0.0000000000000000e+00  0.0000000000000000e+00 0.0000000000000000e+00 0.0000000000000000e+00  0.0000000000000000e+00 0.0000000000000000e+00 0.0000000000000000e+00  0.0000000000000000e+00 0.0000000000000000e+00 0.0000000000000000e+00  0.0000000000000000e+00 0.0000000000000000e+00 0.0000000000000000e+00  0.0000000000000000e+00 0.0000000000000000e+00 0.0000000000000000e+00  0.0000000000000000e+00 0.0000000000000000e+00 0.0000000000000000e+00  0.0000000000000000e+00 0.0000000000000000e+00 0.0000000000000000e+00  0.0000000000000000e+00 0.0000000000000000e+00 0.0000000000000000e+00  0.0000000000000000e+00 0.0000000000000000e+00 0.0000000000000000e+00  0.0000000000000000e+00 0.0000000000000000e+00 0.0000000000000000e+00  0.0000000000000000e+00 0.0000000000000000e+00 0.0000000000000000e+00  0.0000000000000000e+00 0.0000000000000000e+00 0.0000000000000000e+00  0.0000000000000000e+00 0.0000000000000000e+00 0.0000000000000000e+00  0.0000000000000000e+00 0.0000000000000000e+00 0.0000000000000000e+00  0.0000000000000000e+00 0.0000000000000000e+00 0.0000000000000000e+00  0.0000000000000000e+00 0.0000000000000000e+00 0.0000000000000000e+00  0.0000000000000000e+00 0.0000000000000000e+00 0.0000000000000000e+00  0.0000000000000000e+00 0.0000000000000000e+00 0.0000000000000000e+00  0.0000000000000000e+00 0.0000000000000000e+00 0.0000000000000000e+00  0.0000000000000000e+00 0.0000000000000000e+00 0.0000000000000000e+00  0.0000000000000000e+00 0.0000000000000000e+00 0.0000000000000000e+00  0.0000000000000000e+00 0.0000000000000000e+00 0.0000000000000000e+00  0.0000000000000000e+00 0.0000000000000000e+00 0.0000000000000000e+00  0.0000000000000000e+00 0.0000000000000000e+00 0.0000000000000000e+00  0.0000000000000000e+00 0.0000000000000000e+00 0.0000000000000000e+00  0.0000000000000000e+00 0.0000000000000000e+00 0.0000000000000000e+00  0.0000000000000000e+00 0.0000000000000000e+00 0.0000000000000000e+00  0.0000000000000000e+00 0.0000000000000000e+00 0.0000000000000000e+00  0.0000000000000000e+00 0.0000000000000000e+00 0.0000000000000000e+00  0.0000000000000000e+00 0.0000000000000000e+00 0.0000000000000000e+00  0.0000000000000000e+00 0.0000000000000000e+00 0.0000000000000000e+00  0.0000000000000000e+00 0.0000000000000000e+00 0.0000000000000000e+00  0.0000000000000000e+00 0.0000000000000000e+00 0.0000000000000000e+00  0.0000000000000000e+00 0.0000000000000000e+00 0.0000000000000000e+00  0.0000000000000000e+00 0.0000000000000000e+00 0.0000000000000000e+00  0.0000000000000000e+00 0.0000000000000000e+00 0.0000000000000000e+00  0.0000000000000000e+00 0.0000000000000000e+00 0.0000000000000000e+00  0.0000000000000000e+00 0.0000000000000000e+00 0.0000000000000000e+00  0.0000000000000000e+00 0.0000000000000000e+00 0.0000000000000000e+00  0.0000000000000000e+00 0.0000000000000000e+00 0.0000000000000000e+00  0.0000000000000000e+00 0.0000000000000000e+00 0.0000000000000000e+00  0.0000000000000000e+00 0.0000000000000000e+00 0.0000000000000000e+00  0.0000000000000000e+00 0.0000000000000000e+00 0.0000000000000000e+00  0.0000000000000000e+00 0.0000000000000000e+00 0.0000000000000000e+00  0.0000000000000000e+00 0.0000000000000000e+00 0.0000000000000000e+00  0.0000000000000000e+00 0.0000000000000000e+00 0.0000000000000000e+00  0.0000000000000000e+00 0.0000000000000000e+00 0.0000000000000000e+00  0.0000000000000000e+00 0.0000000000000000e+00 0.0000000000000000e+00  0.0000000000000000e+00 0.0000000000000000e+00 0.0000000000000000e+00  0.0000000000000000e+00 0.0000000000000000e+00 0.0000000000000000e+00  0.0000000000000000e+00 0.0000000000000000e+00 0.0000000000000000e+00  0.0000000000000000e+00 0.0000000000000000e+00 0.0000000000000000e+00  0.0000000000000000e+00 0.0000000000000000e+00 0.0000000000000000e+00  0.0000000000000000e+00 0.0000000000000000e+00 0.0000000000000000e+00  0.0000000000000000e+00 0.0000000000000000e+00 0.0000000000000000e+00  0.0000000000000000e+00 0.0000000000000000e+00 0.0000000000000000e+00  0.0000000000000000e+00 0.0000000000000000e+00 0.0000000000000000e+00  0.0000000000000000e+00 0.0000000000000000e+00 0.0000000000000000e+00  0.0000000000000000e+00 0.0000000000000000e+00 0.0000000000000000e+00  0.0000000000000000e+00 0.0000000000000000e+00 0.0000000000000000e+00  0.0000000000000000e+00 0.0000000000000000e+00 0.0000000000000000e+00  0.0000000000000000e+00 0.0000000000000000e+00 0.0000000000000000e+00  0.0000000000000000e+00 0.0000000000000000e+00 0.0000000000000000e+00  0.0000000000000000e+00 0.0000000000000000e+00 0.0000000000000000e+00  0.0000000000000000e+00 0.0000000000000000e+00 0.0000000000000000e+00  0.0000000000000000e+00 0.0000000000000000e+00 0.0000000000000000e+00  0.0000000000000000e+00 0.0000000000000000e+00 0.0000000000000000e+00  0.0000000000000000e+00 0.0000000000000000e+00 0.0000000000000000e+00  0.0000000000000000e+00 0.0000000000000000e+00 0.0000000000000000e+00  0.0000000000000000e+00 0.0000000000000000e+00 0.0000000000000000e+00  0.0000000000000000e+00 0.0000000000000000e+00 0.0000000000000000e+00  0.0000000000000000e+00 0.0000000000000000e+00 0.0000000000000000e+00  0.0000000000000000e+00 0.0000000000000000e+00 0.0000000000000000e+00  0.0000000000000000e+00 0.0000000000000000e+00 0.0000000000000000e+00  0.0000000000000000e+00 0.0000000000000000e+00 0.0000000000000000e+00  0.0000000000000000e+00 0.0000000000000000e+00 0.0000000000000000e+00  0.0000000000000000e+00 0.0000000000000000e+00 0.0000000000000000e+00  0.0000000000000000e+00 0.0000000000000000e+00 0.0000000000000000e+00  0.0000000000000000e+00 0.0000000000000000e+00 0.0000000000000000e+00  0.0000000000000000e+00 0.0000000000000000e+00 0.0000000000000000e+00  0.0000000000000000e+00 0.0000000000000000e+00 0.0000000000000000e+00  0.0000000000000000e+00 0.0000000000000000e+00 0.0000000000000000e+00  0.0000000000000000e+00 0.0000000000000000e+00 0.0000000000000000e+00  0.0000000000000000e+00 0.0000000000000000e+00 0.0000000000000000e+00  0.0000000000000000e+00 0.0000000000000000e+00 0.0000000000000000e+00  0.0000000000000000e+00 0.0000000000000000e+00 0.0000000000000000e+00  -5.9258215294428400e-08 -2.3300142316728068e-07 0.0000000000000000e+00  -1.1422055192438442e-07 -2.4946805365827107e-07 0.0000000000000000e+00  -1.5805875311472384e-07 -2.5281862597429467e-07 0.0000000000000000e+00  -1.9633650068918000e-07 -2.4803184055555931e-07 0.0000000000000000e+00  -2.3274722357448443e-07 -2.4339566130432073e-07 0.0000000000000000e+00  -2.7078124343086009e-07 -2.4069338673907280e-07 0.0000000000000000e+00  -3.0972255370551311e-07 -2.3789605421310106e-07 0.0000000000000000e+00  -3.5049208591487028e-07 -2.3540878761203902e-07 0.0000000000000000e+00  -3.9217609066368230e-07 -2.3319476397806612e-07 0.0000000000000000e+00  -4.3553779891708405e-07 -2.3098659488483773e-07 0.0000000000000000e+00  -4.8017200360544756e-07 -2.2965334814866843e-07 0.0000000000000000e+00  -5.2639493155903389e-07 -2.2806852572523715e-07 0.0000000000000000e+00  -5.7421416296953780e-07 -2.2701918630901900e-07 0.0000000000000000e+00  -6.2328222301107816e-07 -2.2650148741196548e-07 0.0000000000000000e+00  -6.7435564514315300e-07 -2.2610176347525945e-07 0.0000000000000000e+00  -7.2643052076400594e-07 -2.2649125707525561e-07 0.0000000000000000e+00  -7.8038063428160608e-07 -2.2649597065387634e-07 0.0000000000000000e+00  -8.3578660942663104e-07 -2.2782381050973420e-07 0.0000000000000000e+00  -8.9286087384562921e-07 -2.2851288202987069e-07 0.0000000000000000e+00  -9.5132026937751501e-07 -2.3049701709134558e-07 0.0000000000000000e+00  -1.0114590522633464e-06 -2.3190855919018206e-07 0.0000000000000000e+00  -1.0733465360025477e-06 -2.3408685307678843e-07 0.0000000000000000e+00  -1.1363463222367738e-06 -2.3668520122009205e-07 0.0000000000000000e+00  -1.2013912272984140e-06 -2.3929428784352169e-07 0.0000000000000000e+00  -1.2674159261544070e-06 -2.4284240911214650e-07 0.0000000000000000e+00  -1.3353166864794004e-06 -2.4585418056402036e-07 0.0000000000000000e+00  -1.4048448050934575e-06 -2.5048242316888260e-07 0.0000000000000000e+00  -1.4758275479862780e-06 -2.5441376029750766e-07 0.0000000000000000e+00  -1.5484503271129880e-06 -2.5973898699822012e-07 0.0000000000000000e+00  -1.6225396596192295e-06 -2.6477667305069510e-07 0.0000000000000000e+00  -1.6981585758088998e-06 -2.7104551964707444e-07 0.0000000000000000e+00  -1.7754659139721390e-06 -2.7710394089095892e-07 0.0000000000000000e+00  -1.8540749232577646e-06 -2.8460110405522086e-07 0.0000000000000000e+00  -1.9344561695597092e-06 -2.9150145718628041e-07 0.0000000000000000e+00  -2.0165516093170216e-06 -3.0012891871894015e-07 0.0000000000000000e+00  -2.1001411514075430e-06 -3.0840760222094677e-07 0.0000000000000000e+00  -2.1852720144662755e-06 -3.1813448866407058e-07 0.0000000000000000e+00  -2.2720090987577724e-06 -3.2754042814690696e-07 0.0000000000000000e+00  -2.3604126179515786e-06 -3.3822238114371457e-07 0.0000000000000000e+00  -2.4505894229143410e-06 -3.4864194167916074e-07 0.0000000000000000e+00  -2.5424902113335260e-06 -3.6001630558508754e-07 0.0000000000000000e+00  -2.6357697433371465e-06 -3.7139328567051985e-07 0.0000000000000000e+00  -2.7312158571921257e-06 -3.8338517105076565e-07 0.0000000000000000e+00  -2.8275893289425381e-06 -3.9551084826503135e-07 0.0000000000000000e+00  -2.9258539617985746e-06 -4.0752788390836099e-07 0.0000000000000000e+00  -3.0250361452991661e-06 -4.2086137408613836e-07 0.0000000000000000e+00  -3.1394529790949384e-06 -3.6200302384033736e-07 0.0000000000000000e+00  -3.1598448689890773e-06 -2.0751820323598363e-07 0.0000000000000000e+00  -3.0661167495504209e-06 -1.1771243885533729e-07 0.0000000000000000e+00  -2.9662734025215332e-06 -1.0028562322832607e-07 0.0000000000000000e+00  -2.8672474428428353e-06 -8.2365721995708423e-08 0.0000000000000000e+00  -2.7699053982526740e-06 -6.5096389724674231e-08 0.0000000000000000e+00  -2.6735901404627751e-06 -4.8142513796251525e-08 0.0000000000000000e+00  -2.5794002357992729e-06 -3.1646908853126399e-08 0.0000000000000000e+00  -2.4862951071127367e-06 -1.5596151658862336e-08 0.0000000000000000e+00  -2.3950819563023962e-06 2.3291518230798357e-10 0.0000000000000000e+00  -2.3052070559051236e-06 1.5027160246931777e-08 0.0000000000000000e+00  -2.2170891319600839e-06 3.0021328620880279e-08 0.0000000000000000e+00  -2.1303952425211568e-06 4.3809675345999677e-08 0.0000000000000000e+00  -2.0454897423475440e-06 5.7652415197536728e-08 0.0000000000000000e+00  -1.9619550531557595e-06 7.0209279872284796e-08 0.0000000000000000e+00  -1.8801873153471139e-06 8.2886699574787889e-08 0.0000000000000000e+00  -1.7998175980628731e-06 9.4288249123817126e-08 0.0000000000000000e+00  -1.7212140570018008e-06 1.0584860713676198e-07 0.0000000000000000e+00  -1.6440631345193972e-06 1.1623592393276734e-07 0.0000000000000000e+00  -1.5687475134902849e-06 1.2676860794946845e-07 0.0000000000000000e+00  -1.4948651122647634e-06 1.3604651419439000e-07 0.0000000000000000e+00  -1.4227198127539487e-06 1.4556017994415891e-07 0.0000000000000000e+00  -1.3520138066785967e-06 1.5393633677876372e-07 0.0000000000000000e+00  -1.2830385831520830e-06 1.6256341885094061e-07 0.0000000000000000e+00  -1.2157617087915297e-06 1.7047117432081793e-07 0.0000000000000000e+00  -1.1498106030188270e-06 1.7802629608905053e-07 0.0000000000000000e+00  -1.0859509737822464e-06 1.8527426800622213e-07 0.0000000000000000e+00  -1.0230122782481017e-06 1.9193387077888251e-07 0.0000000000000000e+00  -9.6199355480605897e-07 1.9882641529276517e-07 0.0000000000000000e+00  -9.0241212566891343e-07 2.0440808633138299e-07 0.0000000000000000e+00  -8.4449636637409821e-07 2.1081200366521876e-07 0.0000000000000000e+00  -7.8815806387105528e-07 2.1570460094736013e-07 0.0000000000000000e+00  -7.3337567158505358e-07 2.2128958968450602e-07 0.0000000000000000e+00  -6.8025941083490408e-07 2.2568830068698319e-07 0.0000000000000000e+00  -6.2827497416392135e-07 2.3022355655685649e-07 0.0000000000000000e+00  -5.7828590859154087e-07 2.3406835507567958e-07 0.0000000000000000e+00  -5.2930049941017599e-07 2.3771329420465749e-07 0.0000000000000000e+00  -4.8215360735421199e-07 2.4106902792777392e-07 0.0000000000000000e+00  -4.3648968567318524e-07 2.4338613193475820e-07 0.0000000000000000e+00  -3.9235333398345704e-07 2.4600653629119643e-07 0.0000000000000000e+00  -3.4985442843651001e-07 2.4787080969772759e-07 0.0000000000000000e+00  -3.0846020954441943e-07 2.4953024817099968e-07 0.0000000000000000e+00  -2.6900180478695239e-07 2.5094003090990259e-07 0.0000000000000000e+00  -2.3043689686577973e-07 2.5188885925411058e-07 0.0000000000000000e+00  -1.9382100308327010e-07 2.5462983768057360e-07 0.0000000000000000e+00  -1.5532957613077196e-07 2.5680794199785243e-07 0.0000000000000000e+00  -1.1223005227663385e-07 2.5127444434567899e-07 0.0000000000000000e+00  -5.9020882188243065e-08 2.3236326305490820e-07 0.0000000000000000e+00  -1.3423810019146548e-07 -1.1525123977636036e-09 0.0000000000000000e+00  -2.9972944228727958e-06 -2.6326926639810679e-07 0.0000000000000000e+00  -2.8067612231235563e-06 -2.3578428160120673e-07 0.0000000000000000e+00  -2.5109761732197051e-06 -1.9000742967562351e-07 0.0000000000000000e+00  -1.7707158529317559e-07 2.5171988184723211e-09 0.0000000000000000e+00  -2.3332047713516555e-06 -1.6222552647585672e-07 0.0000000000000000e+00  -2.4722058918232636e-07 7.9933193887722127e-09 0.0000000000000000e+00  -2.1582177486693127e-06 -1.3775851381298592e-07 0.0000000000000000e+00  -3.7277750297900203e-07 9.7805398028927504e-09 0.0000000000000000e+00  -4.5860235183425990e-07 6.2209438458704846e-09 0.0000000000000000e+00  -1.9896157538033907e-06 -1.1555237725183800e-07 0.0000000000000000e+00  -7.0564100926670639e-07 1.7884323194636559e-09 0.0000000000000000e+00  -1.6715072672740641e-06 -7.8026042302304623e-08 0.0000000000000000e+00  -5.4795573614755201e-07 7.6285052568654439e-09 0.0000000000000000e+00  -8.1220776200468793e-07 -6.6982826331691325e-09 0.0000000000000000e+00  -1.5219635760397311e-06 -6.2491182638578310e-08 0.0000000000000000e+00  -1.8273809926592287e-06 -9.5666730530943908e-08 0.0000000000000000e+00  -9.2710313167628086e-07 -1.3639514975004780e-08 0.0000000000000000e+00  -1.3787388030412887e-06 -4.8893921549173149e-08 0.0000000000000000e+00  -1.0432209817255733e-06 -1.8776462472585381e-08 0.0000000000000000e+00  -1.2443674263282904e-06 -3.9790471069115515e-08 0.0000000000000000e+00  -1.1383102459343819e-06 -2.8655337967250281e-08 0.0000000000000000e+00  -6.2186078237796004e-07 1.7740457368766048e-09 0.0000000000000000e+00  -2.6635580033286289e-06 -2.1056155841861810e-07 0.0000000000000000e+00  -3.0624947310001667e-07 5.9468465100829744e-09 0.0000000000000000e+00  -2.9075028885250931e-06 -1.9512646910907686e-07 0.0000000000000000e+00  -1.4782547308337029e-07 9.6543182384504775e-08 0.0000000000000000e+00  -2.2497203869893136e-06 -9.9557674544790541e-08 0.0000000000000000e+00  -2.4282834294650482e-06 -1.2641998035426965e-07 0.0000000000000000e+00  -2.1304877104698474e-07 -8.4624305434782024e-08 0.0000000000000000e+00  -4.1411656016729903e-07 -6.2804005052005629e-08 0.0000000000000000e+00  -1.7521949290584464e-06 -3.2218760557150164e-08 0.0000000000000000e+00  -2.0775207998091911e-06 -7.4781740426390282e-08 0.0000000000000000e+00  -7.5606378457130919e-07 -6.8461807957350726e-08 0.0000000000000000e+00  -1.5990778014023590e-06 -1.4237480173038663e-08 0.0000000000000000e+00  -5.0422544756931367e-07 -6.2594980591829814e-08 0.0000000000000000e+00  -8.6765899670817618e-07 -7.3422319391859663e-08 0.0000000000000000e+00  -1.4523456327128970e-06 1.6818096783774956e-09 0.0000000000000000e+00  -1.9116911030512936e-06 -5.2347455505314030e-08 0.0000000000000000e+00  -9.8433680192109881e-07 -9.3340247333609826e-08 0.0000000000000000e+00  -1.3119088626064445e-06 1.5777697284594587e-08 0.0000000000000000e+00  -9.1975830432222630e-08 -5.5440362476281003e-08 0.0000000000000000e+00  -8.9559180451067655e-08 5.0024529285611620e-08 0.0000000000000000e+00  -3.0726642012171279e-06 -3.1043613996789178e-07 0.000000000