<?xml version="1.0"?>
<VTKFile type="UnstructuredGrid"  version="0.1"  >
<UnstructuredGrid>
<Piece  NumberOfPoints="1419" NumberOfCells="2698">
<Points>
<DataArray  type="Float64"  NumberOfComponents="3"  format="ascii">0 0 0  0 0.41 0  2.5 0 0  2.5 0.41 0  0.6 0.19 0  0.6 0.21 0  0.25 0.2 0  0.15 0.2 0  0.2489897948556636 0.21 0  0.2489897948556636 0.19 0  0.6 0.2 0  0 0.3807142857143437 0  0 0.3514285714286952 0  0 0.3221428571430699 0  0 0.29285714285744 0  0 0.2635714285718054 0  0 0.2342857142861561 0  0 0.2050000000005308 0  0 0.175714285714732 0  0 0.1464285714289574 0  0 0.1171428571431897 0  0 0.08785714285737878 0  0 0.05857142857161107 0  0 0.02928571428580012 0  0.03015443760436003 0 0  0.06140001986583606 0 0  0.09377624077125973 0 0  0.1273239957535082 0 0  0.1620856860351972 0 0  0.1981052433264291 0 0  0.235428184091502 0 0  0.2741016576309132 0 0  0.3141745521465447 0 0  0.3556974926295285 0 0  0.3987229542472677 0 0  0.4433053055141081 0 0  0.4895008759286886 0 0  0.5373680609405097 0 0  0.5869673343216626 0 0  0.6383613676634521 0 0  0.6916151138468254 0 0  0.7467958595648856 0 0  0.8039733463919316 0 0  0.8632198139502143 0 0  0.9246101326867038 0 0  0.9882218810934433 0 0  1.054135445558498 0 0  1.122434100542598 0 0  1.193204177141305 0 0  1.266535089879536 0 0  1.342519516046404 0 0  1.421253448503939 0 0  1.502836389106271 0 0  1.587371439758838 0 0  1.674965418777374 0 0  1.765729001825544 0 0  1.859776908880082 0 0  1.957227977487062 0 0  2.058205329869943 0 0  2.162836591189951 0 0  2.271253957290865 0 0  2.383594446803425 0 0  2.5 0.1024999999997612 0  2.5 0.2049999999994743 0  2.5 0.3074999999997183 0  2.383594446803656 0.41 0  2.271253957291315 0.41 0  2.162836591190598 0.41 0  2.058205329870775 0.41 0  1.957227977488067 0.41 0  1.859776908881246 0.41 0  1.765729001826854 0.41 0  1.674965418778818 0.41 0  1.58737143976041 0.41 0  1.502836389107956 0.41 0  1.421253448505726 0.41 0  1.342519516048286 0.41 0  1.266535089881505 0.41 0  1.193204177143353 0.41 0  1.122434100544716 0.41 0  1.05413544556068 0.41 0  0.9882218810956305 0.41 0  0.9246101326886647 0.41 0  0.8632198139519631 0.41 0  0.8039733463934788 0.41 0  0.7467958595662458 0.41 0  0.6916151138480078 0.41 0  0.6383613676644679 0.41 0  0.5869673343225223 0.41 0  0.5373680609412221 0.41 0  0.4895008759292634 0.41 0  0.4433053055145528 0.41 0  0.3987229542475914 0.41 0  0.3556974926297398 0.41 0  0.3141745521466497 0.41 0  0.2741016576310038 0.41 0  0.2354281840915826 0.41 0  0.1981052433265003 0.41 0  0.1620856860352591 0.41 0  0.1273239957535623 0.41 0  0.09377624077128965 0.41 0  0.06140001986584975 0.41 0  0.03015443760436654 0.41 0  0.2497468076502589 0.2050254481002335 0  0.2497468076502614 0.1949745518997913 0  0.2469965252529372 0.1829317073451959 0  0.2439893735792749 0.1762316384219906 0  0.2400332147834255 0.1700443375285386 0  0.2352133972704371 0.1645032867342007 0  0.2296339016332438 0.1597280261969788 0  0.2234150974217223 0.1558215752574715 0  0.2166911463437691 0.1528682099456123 0  0.2096071079204251 0.1509316448471593 0  0.2023158100364996 0.1500536585536553 0  0.194974551899914 0.1502531923497262 0  0.1877417105387872 0.1515259415822739 0  0.1807733240461124 0.153844448527136 0  0.1742197252835808 0.15715869474974 0  0.1682222986673531 0.1613971801805478 0  0.162910430003803 0.1664684656256651 0  0.1583987151779087 0.1722631454351573 0  0.1547844879126891 0.178656207771761 0  0.1521457199348551 0.1855097315605723 0  0.1505393388476355 0.1926758619366523 0  0.1505393388476328 0.2073241380633295 0  0.1521457199348437 0.2144902684393899 0  0.1547844879126531 0.221343792228163 0  0.1583987151778488 0.2277368545647528 0  0.1629104300036858 0.2335315343742052 0  0.1682222986671726 0.2386028198193036 0  0.1742197252833576 0.2428413052501257 0  0.1807733240458683 0.2461555514727623 0  0.1877417105384929 0.2484740584176516 0  0.1949745518995776 0.2497468076502398 0  0.202315810036185 0.2499463414463592 0  0.2096071079201568 0.2490683551528932 0  0.2166911463435495 0.2471317900544655 0  0.2234150974215506 0.2441784247426195 0  0.2296339016331197 0.2402719738031125 0  0.2352133972703547 0.2354967132658811 0  0.2400332147833751 0.2299556624715287 0  0.2439893735792577 0.2237683615780412 0  0.246996525252926 0.2170682926548348 0  0.25645809709277 0.21 0  0.2639263993298655 0.21 0  0.271394701566961 0.21 0  0.2788630038040554 0.21 0  0.2863313060411479 0.21 0  0.2937996082782405 0.21 0  0.301267910515333 0.21 0  0.3087362127524279 0.21 0  0.3162045149895234 0.21 0  0.3236728172265972 0.21 0  0.3311411194636928 0.21 0  0.3386094217007701 0.21 0  0.3460777239378666 0.21 0  0.3535460261749672 0.21 0  0.3610143284120516 0.21 0  0.3684826306491596 0.21 0  0.3759509328862226 0.21 0  0.383419235123329 0.21 0  0.3908875373604028 0.21 0  0.3983558395975142 0.21 0  0.4058241418345938 0.21 0  0.4132924440716992 0.21 0  0.4207607463087888 0.21 0  0.4282290485459029 0.21 0  0.4356973507830418 0.21 0  0.4431656530201649 0.21 0  0.4506339552573136 0.21 0  0.4581022574944306 0.21 0  0.4655705597315852 0.21 0  0.4730388619686996 0.21 0  0.480507164205851 0.21 0  0.4879754664429498 0.21 0  0.4954437686800938 0.21 0  0.502912070917267 0.21 0  0.5103803731544119 0.21 0  0.5178486753915261 0.21 0  0.5253169776286404 0.21 0  0.5327852798657868 0.21 0  0.5402535821029386 0.21 0  0.54772188434007 0.21 0  0.5551901865771842 0.21 0  0.5626584888143201 0.21 0  0.5701267910514778 0.21 0  0.5775950932886138 0.21 0  0.5850633955257281 0.21 0  0.5925316977628483 0.21 0  0.6 0.2050000000000054 0  0.6 0.1950000000000217 0  0.5925316977628897 0.19 0  0.5850633955257988 0.19 0  0.5775950932887378 0.19 0  0.5701267910515998 0.19 0  0.5626584888145268 0.19 0  0.5551901865773963 0.19 0  0.547721884340339 0.19 0  0.5402535821032429 0.19 0  0.5327852798661811 0.19 0  0.5253169776290537 0.19 0  0.5178486753919799 0.19 0  0.5103803731549078 0.19 0  0.502912070917822 0.19 0  0.4954437686807294 0.19 0  0.4879754664436223 0.19 0  0.4805071642065402 0.19 0  0.4730388619694271 0.19 0  0.4655705597323621 0.19 0  0.4581022574952563 0.19 0  0.4506339552581777 0.19 0  0.4431656530210671 0.19 0  0.4356973507839815 0.19 0  0.4282290485468779 0.19 0  0.4207607463097617 0.19 0  0.4132924440726327 0.19 0  0.4058241418354857 0.19 0  0.3983558395983636 0.19 0  0.3908875373612097 0.19 0  0.3834192351240934 0.19 0  0.3759509328869369 0.19 0  0.3684826306498175 0.19 0  0.361014328412667 0.19 0  0.3535460261755617 0.19 0  0.3460777239384295 0.19 0  0.3386094217012945 0.19 0  0.3311411194641595 0.19 0  0.3236728172270245 0.19 0  0.3162045149898895 0.19 0  0.3087362127527544 0.19 0  0.3012679105156187 0.19 0  0.2937996082784807 0.19 0  0.2863313060413428 0.19 0  0.2788630038042048 0.19 0  0.2713947015670686 0.19 0  0.2639263993299336 0.19 0  0.2564580970927985 0.19 0  0.2607803159922026 0.2000727136295815 0  0.5887803774232762 0.2001272386983733 0  0.5745072403740523 0.2002044435018727 0  0.5511891430099709 0.2001122610077113 0  0.2751288526855082 0.20000000000002 0  0.5365194309847112 0.1999999999999436 0  0.2894621222999649 0.1998691686390484 0  0.5215828265105155 0.1999999999999228 0  0.3127789816668748 0.1998657885438805 0  0.3274069683451451 0.2000000000000796 0  0.5066462220363641 0.199999999999908 0  0.3650630746574081 0.199866017807523 0  0.476773013087985 0.1999999999998713 0  0.3417402379596385 0.1998691686391011 0  0.3796850840047755 0.200000000000134 0  0.4618364086138087 0.1999999999998546 0  0.4917096175621762 0.1999999999998808 0  0.3946216884789568 0.2000000000001512 0  0.446899804139621 0.1999999999998389 0  0.4089549580935208 0.1998691686391595 0  0.4322718174608562 0.200127451265745 0  0.4201487168029707 0.1999966199048527 0  0.3528922713220932 0.2000185703532356 0  0.5633122436674589 0.1999814296467508 0  0.3006558810093873 0.1999966199048318 0  0.5815926498168407 0.1966545283159175 0  0.2677053789419034 0.1964246479135325 0  0.5290511287476175 0.1970915826863981 0  0.5439877332217911 0.197091582686394 0  0.2825131256993216 0.2035478995978015 0  0.3199386661080599 0.202908417313604 0  0.4842413153250809 0.1970915826863873 0  0.5141145242734466 0.1970915826863843 0  0.3722167817676917 0.2029084173136195 0  0.4693047108508938 0.1970915826863783 0  0.3348752705822316 0.202908417313609 0  0.3871533862418661 0.2029084173136212 0  0.4543681063767183 0.1970915826863795 0  0.4991779197992749 0.1970915826863902 0  0.4020059614928624 0.203547899597858 0  0.4394315019025246 0.1970915826863714 0  0.2550657455369551 0.2034088125358657 0  0.2548908499171161 0.1966940311614271 0  0.5946539510196798 0.2024302972968126 0  0.267698176732111 0.2039977513680092 0  0.4261685417851465 0.196409292431739 0  0.3590076176283495 0.196411355804271 0  0.5571672426447437 0.2036011176410121 0  0.3066757059912147 0.1964092924317024 0  0.594380730180568 0.1966558399668133 0  0.4842413153245942 0.2040749161535287 0  0.4693047108503577 0.2040749161535231 0  0.3871533862424271 0.1959250838464788 0  0.372246743208829 0.1959123236376545 0  0.5141145242731028 0.2040749161535395 0  0.4543681063761134 0.2040749161535186 0  0.4019979587101454 0.1959834479682427 0  0.4394608940728603 0.2040870543693135 0  0.5439623148931173 0.2040856076781014 0  0.5290511287473298 0.2040749161535501 0  0.4991779197988497 0.2040749161535382 0  0.3347912413592433 0.1959225448935183 0  0.3199680582793816 0.1959123018030061 0  0.2825051229162361 0.1959834479681729 0  0.3590471196690275 0.2036304442587945 0  0.5571594006495384 0.1963685282145804 0  0.3067669986803285 0.203627750582736 0  0.4262598344738712 0.2036568242185335 0  0.5814408164431408 0.2041285596160068 0  0.5688286748170428 0.1961819304477386 0  0.4145905603063645 0.2038180695522843 0  0.3473758401724931 0.2038180695522752 0  0.2950977245128307 0.2038180695522663 0  0.5688286748170693 0.203818069552238 0  0.2950977245127906 0.1961819304477774 0  0.3473758401723931 0.1961819304478349 0  0.4145905603061963 0.1961819304479011 0  0.2601812407614425 0.2056861609747042
[...]
<PointData  Vectors="f_40-1"> 
<DataArray  type="Float64"  Name="f_40-1"  NumberOfComponents="3" format="ascii">0.0000000000000000e+00 0.0000000000000000e+00 0.0000000000000000e+00  0.0000000000000000e+00 0.0000000000000000e+00 0.0000000000000000e+00  0.0000000000000000e+00 0.0000000000000000e+00 0.0000000000000000e+00  0.0000000000000000e+00 0.0000000000000000e+00 0.0000000000000000e+00  -1.2158703875136422e-06 2.7473229060912092e-08 0.0000000000000000e+00  -1.2120694026140944e-06 -5.7906137698835583e-08 0.0000000000000000e+00  0.0000000000000000e+00 0.0000000000000000e+00 0.0000000000000000e+00  0.0000000000000000e+00 0.0000000000000000e+00 0.0000000000000000e+00  0.0000000000000000e+00 0.0000000000000000e+00 0.0000000000000000e+00  0.0000000000000000e+00 0.0000000000000000e+00 0.0000000000000000e+00  -1.2146321994310527e-06 -1.5199444780178422e-08 0.0000000000000000e+00  0.0000000000000000e+00 0.0000000000000000e+00 0.0000000000000000e+00  0.0000000000000000e+00 0.0000000000000000e+00 0.0000000000000000e+00  0.0000000000000000e+00 0.0000000000000000e+00 0.0000000000000000e+00  0.0000000000000000e+00 0.0000000000000000e+00 0.0000000000000000e+00  0.0000000000000000e+00 0.0000000000000000e+00 0.0000000000000000e+00  0.0000000000000000e+00 0.0000000000000000e+00 0.0000000000000000e+00  0.0000000000000000e+00 0.0000000000000000e+00 0.0000000000000000e+00  0.0000000000000000e+00 0.0000000000000000e+00 0.0000000000000000e+00  0.0000000000000000e+00 0.0000000000000000e+00 0.0000000000000000e+00  0.0000000000000000e+00 0.0000000000000000e+00 0.0000000000000000e+00  0.0000000000000000e+00 0.0000000000000000e+00 0.0000000000000000e+00  0.0000000000000000e+00 0.0000000000000000e+00 0.0000000000000000e+00  0.0000000000000000e+00 0.0000000000000000e+00 0.0000000000000000e+00  0.0000000000000000e+00 0.0000000000000000e+00 0.0000000000000000e+00  0.0000000000000000e+00 0.0000000000000000e+00 0.0000000000000000e+00  0.0000000000000000e+00 0.0000000000000000e+00 0.0000000000000000e+00  0.0000000000000000e+00 0.0000000000000000e+00 0.0000000000000000e+00  0.0000000000000000e+00 0.0000000000000000e+00 0.0000000000000000e+00  0.0000000000000000e+00 0.0000000000000000e+00 0.0000000000000000e+00  0.0000000000000000e+00 0.0000000000000000e+00 0.0000000000000000e+00  0.0000000000000000e+00 0.0000000000000000e+00 0.0000000000000000e+00  0.0000000000000000e+00 0.0000000000000000e+00 0.0000000000000000e+00  0.0000000000000000e+00 0.0000000000000000e+00 0.0000000000000000e+00  0.0000000000000000e+00 0.0000000000000000e+00 0.0000000000000000e+00  0.0000000000000000e+00 0.0000000000000000e+00 0.0000000000000000e+00  0.0000000000000000e+00 0.0000000000000000e+00 0.0000000000000000e+00  0.0000000000000000e+00 0.0000000000000000e+00 0.0000000000000000e+00  0.0000000000000000e+00 0.0000000000000000e+00 0.0000000000000000e+00  0.0000000000000000e+00 0.0000000000000000e+00 0.0000000000000000e+00  0.0000000000000000e+00 0.0000000000000000e+00 0.0000000000000000e+00  0.0000000000000000e+00 0.0000000000000000e+00 0.0000000000000000e+00  0.0000000000000000e+00 0.0000000000000000e+00 0.0000000000000000e+00  0.0000000000000000e+00 0.0000000000000000e+00 0.0000000000000000e+00  0.0000000000000000e+00 0.0000000000000000e+00 0.0000000000000000e+00  0.0000000000000000e+00 0.0000000000000000e+00 0.0000000000000000e+00  0.0000000000000000e+00 0.0000000000000000e+00 0.0000000000000000e+00  0.0000000000000000e+00 0.0000000000000000e+00 0.0000000000000000e+00  0.0000000000000000e+00 0.0000000000000000e+00 0.0000000000000000e+00  0.0000000000000000e+00 0.0000000000000000e+00 0.0000000000000000e+00  0.0000000000000000e+00 0.0000000000000000e+00 0.0000000000000000e+00  0.0000000000000000e+00 0.0000000000000000e+00 0.0000000000000000e+00  0.0000000000000000e+00 0.0000000000000000e+00 0.0000000000000000e+00  0.0000000000000000e+00 0.0000000000000000e+00 0.0000000000000000e+00  0.0000000000000000e+00 0.0000000000000000e+00 0.0000000000000000e+00  0.0000000000000000e+00 0.0000000000000000e+00 0.0000000000000000e+00  0.0000000000000000e+00 0.0000000000000000e+00 0.0000000000000000e+00  0.0000000000000000e+00 0.0000000000000000e+00 0.0000000000000000e+00  0.0000000000000000e+00 0.0000000000000000e+00 0.0000000000000000e+00  0.0000000000000000e+00 0.0000000000000000e+00 0.0000000000000000e+00  0.0000000000000000e+00 0.0000000000000000e+00 0.0000000000000000e+00  0.0000000000000000e+00 0.0000000000000000e+00 0.0000000000000000e+00  0.0000000000000000e+00 0.0000000000000000e+00 0.0000000000000000e+00  0.0000000000000000e+00 0.0000000000000000e+00 0.0000000000000000e+00  0.0000000000000000e+00 0.0000000000000000e+00 0.0000000000000000e+00  0.0000000000000000e+00 0.0000000000000000e+00 0.0000000000000000e+00  0.0000000000000000e+00 0.0000000000000000e+00 0.0000000000000000e+00  0.0000000000000000e+00 0.0000000000000000e+00 0.0000000000000000e+00  0.0000000000000000e+00 0.0000000000000000e+00 0.0000000000000000e+00  0.0000000000000000e+00 0.0000000000000000e+00 0.0000000000000000e+00  0.0000000000000000e+00 0.0000000000000000e+00 0.0000000000000000e+00  0.0000000000000000e+00 0.0000000000000000e+00 0.0000000000000000e+00  0.0000000000000000e+00 0.0000000000000000e+00 0.0000000000000000e+00  0.0000000000000000e+00 0.0000000000000000e+00 0.0000000000000000e+00  0.0000000000000000e+00 0.0000000000000000e+00 0.0000000000000000e+00  0.0000000000000000e+00 0.0000000000000000e+00 0.0000000000000000e+00  0.0000000000000000e+00 0.0000000000000000e+00 0.0000000000000000e+00  0.0000000000000000e+00 0.0000000000000000e+00 0.0000000000000000e+00  0.0000000000000000e+00 0.0000000000000000e+00 0.0000000000000000e+00  0.0000000000000000e+00 0.0000000000000000e+00 0.0000000000000000e+00  0.0000000000000000e+00 0.0000000000000000e+00 0.0000000000000000e+00  0.0000000000000000e+00 0.0000000000000000e+00 0.0000000000000000e+00  0.0000000000000000e+00 0.0000000000000000e+00 0.0000000000000000e+00  0.0000000000000000e+00 0.0000000000000000e+00 0.0000000000000000e+00  0.0000000000000000e+00 0.0000000000000000e+00 0.0000000000000000e+00  0.0000000000000000e+00 0.0000000000000000e+00 0.0000000000000000e+00  0.0000000000000000e+00 0.0000000000000000e+00 0.0000000000000000e+00  0.0000000000000000e+00 0.0000000000000000e+00 0.0000000000000000e+00  0.0000000000000000e+00 0.0000000000000000e+00 0.0000000000000000e+00  0.0000000000000000e+00 0.0000000000000000e+00 0.0000000000000000e+00  0.0000000000000000e+00 0.0000000000000000e+00 0.0000000000000000e+00  0.0000000000000000e+00 0.0000000000000000e+00 0.0000000000000000e+00  0.0000000000000000e+00 0.0000000000000000e+00 0.0000000000000000e+00  0.0000000000000000e+00 0.0000000000000000e+00 0.0000000000000000e+00  0.0000000000000000e+00 0.0000000000000000e+00 0.0000000000000000e+00  0.0000000000000000e+00 0.0000000000000000e+00 0.0000000000000000e+00  0.0000000000000000e+00 0.0000000000000000e+00 0.0000000000000000e+00  0.0000000000000000e+00 0.0000000000000000e+00 0.0000000000000000e+00  0.0000000000000000e+00 0.0000000000000000e+00 0.0000000000000000e+00  0.0000000000000000e+00 0.0000000000000000e+00 0.0000000000000000e+00  0.0000000000000000e+00 0.0000000000000000e+00 0.0000000000000000e+00  0.0000000000000000e+00 0.0000000000000000e+00 0.0000000000000000e+00  0.0000000000000000e+00 0.0000000000000000e+00 0.0000000000000000e+00  0.0000000000000000e+00 0.0000000000000000e+00 0.0000000000000000e+00  0.0000000000000000e+00 0.0000000000000000e+00 0.0000000000000000e+00  0.0000000000000000e+00 0.0000000000000000e+00 0.0000000000000000e+00  0.0000000000000000e+00 0.0000000000000000e+00 0.0000000000000000e+00  0.0000000000000000e+00 0.0000000000000000e+00 0.0000000000000000e+00  0.0000000000000000e+00 0.0000000000000000e+00 0.0000000000000000e+00  0.0000000000000000e+00 0.0000000000000000e+00 0.0000000000000000e+00  0.0000000000000000e+00 0.0000000000000000e+00 0.0000000000000000e+00  0.0000000000000000e+00 0.0000000000000000e+00 0.0000000000000000e+00  0.0000000000000000e+00 0.0000000000000000e+00 0.0000000000000000e+00  0.0000000000000000e+00 0.0000000000000000e+00 0.0000000000000000e+00  0.0000000000000000e+00 0.0000000000000000e+00 0.0000000000000000e+00  0.0000000000000000e+00 0.0000000000000000e+00 0.0000000000000000e+00  0.0000000000000000e+00 0.0000000000000000e+00 0.0000000000000000e+00  0.0000000000000000e+00 0.0000000000000000e+00 0.0000000000000000e+00  0.0000000000000000e+00 0.0000000000000000e+00 0.0000000000000000e+00  0.0000000000000000e+00 0.0000000000000000e+00 0.0000000000000000e+00  0.0000000000000000e+00 0.0000000000000000e+00 0.0000000000000000e+00  0.0000000000000000e+00 0.0000000000000000e+00 0.0000000000000000e+00  0.0000000000000000e+00 0.0000000000000000e+00 0.0000000000000000e+00  0.0000000000000000e+00 0.0000000000000000e+00 0.0000000000000000e+00  0.0000000000000000e+00 0.0000000000000000e+00 0.0000000000000000e+00  0.0000000000000000e+00 0.0000000000000000e+00 0.0000000000000000e+00  0.0000000000000000e+00 0.0000000000000000e+00 0.0000000000000000e+00  0.0000000000000000e+00 0.0000000000000000e+00 0.0000000000000000e+00  0.0000000000000000e+00 0.0000000000000000e+00 0.0000000000000000e+00  0.0000000000000000e+00 0.0000000000000000e+00 0.0000000000000000e+00  0.0000000000000000e+00 0.0000000000000000e+00 0.0000000000000000e+00  0.0000000000000000e+00 0.0000000000000000e+00 0.0000000000000000e+00  0.0000000000000000e+00 0.0000000000000000e+00 0.0000000000000000e+00  0.0000000000000000e+00 0.0000000000000000e+00 0.0000000000000000e+00  0.0000000000000000e+00 0.0000000000000000e+00 0.0000000000000000e+00  0.0000000000000000e+00 0.0000000000000000e+00 0.0000000000000000e+00  0.0000000000000000e+00 0.0000000000000000e+00 0.0000000000000000e+00  0.0000000000000000e+00 0.0000000000000000e+00 0.0000000000000000e+00  0.0000000000000000e+00 0.0000000000000000e+00 0.0000000000000000e+00  0.0000000000000000e+00 0.0000000000000000e+00 0.0000000000000000e+00  0.0000000000000000e+00 0.0000000000000000e+00 0.0000000000000000e+00  0.0000000000000000e+00 0.0000000000000000e+00 0.0000000000000000e+00  0.0000000000000000e+00 0.0000000000000000e+00 0.0000000000000000e+00  -2.5790959738592549e-08 -5.7688263093927769e-08 0.0000000000000000e+00  -5.1057271604621325e-08 -6.1882577666224063e-08 0.0000000000000000e+00  -7.3787183626266793e-08 -6.2970438195802334e-08 0.0000000000000000e+00  -9.5113413350388191e-08 -6.1989387414078000e-08 0.0000000000000000e+00  -1.1595396631456992e-07 -6.1086752556390423e-08 0.0000000000000000e+00  -1.3714753976261166e-07 -6.0645133932542886e-08 0.0000000000000000e+00  -1.5852921354148980e-07 -6.0185840237403081e-08 0.0000000000000000e+00  -1.8031261684833102e-07 -5.9791649966083581e-08 0.0000000000000000e+00  -2.0227739521234985e-07 -5.9452943982887253e-08 0.0000000000000000e+00  -2.2456707536975459e-07 -5.9115347158233277e-08 0.0000000000000000e+00  -2.4711250372993035e-07 -5.8927139688362881e-08 0.0000000000000000e+00  -2.6995394855356354e-07 -5.8675893188071322e-08 0.0000000000000000e+00  -2.9311580790001311e-07 -5.8489531136572399e-08 0.0000000000000000e+00  -3.1649073591452566e-07 -5.8368528425917408e-08 0.0000000000000000e+00  -3.4025876862101706e-07 -5.8221157192176267e-08 0.0000000000000000e+00  -3.6421756487463655e-07 -5.8151789636999719e-08 0.0000000000000000e+00  -3.8848118176433838e-07 -5.7946090558247629e-08 0.0000000000000000e+00  -4.1303298587354017e-07 -5.7868550507245689e-08 0.0000000000000000e+00  -4.3782418394283901e-07 -5.7582808562441926e-08 0.0000000000000000e+00  -4.6288012654761353e-07 -5.7395618004275661e-08 0.0000000000000000e+00  -4.8816433331926169e-07 -5.6988324481896689e-08 0.0000000000000000e+00  -5.1375061102768426e-07 -5.6560882589541067e-08 0.0000000000000000e+00  -5.3944426207345673e-07 -5.6085764570858862e-08 0.0000000000000000e+00  -5.6545614774260277e-07 -5.5473140351493727e-08 0.0000000000000000e+00  -5.9159782635203804e-07 -5.4895719074446636e-08 0.0000000000000000e+00  -6.1796380891692159e-07 -5.4130984511952647e-08 0.0000000000000000e+00  -6.4453031825689779e-07 -5.3512786185228770e-08 0.0000000000000000e+00  -6.7125406394188015e-07 -5.2728380323342462e-08 0.0000000000000000e+00  -6.9816783546180643e-07 -5.2094696963331583e-08 0.0000000000000000e+00  -7.2523314880363270e-07 -5.1397137516115936e-08 0.0000000000000000e+00  -7.5246119990978735e-07 -5.0869713685420811e-08 0.0000000000000000e+00  -7.7987292309179018e-07 -5.0334510195473899e-08 0.0000000000000000e+00  -8.0741046751330096e-07 -5.0036876573305403e-08 0.0000000000000000e+00  -8.3514952316370143e-07 -4.9710994316702898e-08 0.0000000000000000e+00  -8.6307567905832777e-07 -4.9683407180786103e-08 0.0000000000000000e+00  -8.9116927995441511e-07 -4.9671732453968476e-08 0.0000000000000000e+00  -9.1942880189280524e-07 -4.9932781322350234e-08 0.0000000000000000e+00  -9.4787501218561748e-07 -5.0212166577510637e-08 0.0000000000000000e+00  -9.7650932944633147e-07 -5.0734599679923589e-08 0.0000000000000000e+00  -1.0053571156891686e-06 -5.1265931498850762e-08 0.0000000000000000e+00  -1.0344049845005226e-06 -5.1974271142344843e-08 0.0000000000000000e+00  -1.0636046372415076e-06 -5.2704961876744585e-08 0.0000000000000000e+00  -1.0930853800406731e-06 -5.3537378642161333e-08 0.0000000000000000e+00  -1.1226443655740162e-06 -5.4395642263876033e-08 0.0000000000000000e+00  -1.1524259570295375e-06 -5.5246840594304951e-08 0.0000000000000000e+00  -1.1823122420632558e-06 -5.6255912305251744e-08 0.0000000000000000e+00  -1.2136283616700085e-06 -3.6542441522057596e-08 0.0000000000000000e+00  -1.2154546579255967e-06 6.1422204870043082e-09 0.0000000000000000e+00  -1.1860002106762633e-06 2.8650653112323883e-08 0.0000000000000000e+00  -1.1560328288556330e-06 3.0419080112686413e-08 0.0000000000000000e+00  -1.1261457992405793e-06 3.2243457452092973e-08 0.0000000000000000e+00  -1.0964319514871081e-06 3.3990065729183770e-08 0.0000000000000000e+00  -1.0667992709582852e-06 3.5687287095658669e-08 0.0000000000000000e+00  -1.0374161061174053e-06 3.7303257764985259e-08 0.0000000000000000e+00  -1.0081084251859348e-06 3.8835935137803221e-08 0.0000000000000000e+00  -9.7901184900670783e-07 4.0291969832701283e-08 0.0000000000000000e+00  -9.5002702191916901e-07 4.1566161862196999e-08 0.0000000000000000e+00  -9.2124951670505393e-07 4.2801710278775512e-08 0.0000000000000000e+00  -8.9260349466183449e-07 4.3812984296908227e-08 0.0000000000000000e+00  -8.6418402641010402e-07 4.4763407987478702e-08 0.0000000000000000e+00  -8.3590159892464169e-07 4.5476775725209501e-08 0.0000000000000000e+00  -8.0785362727188185e-07 4.6151091463393230e-08 0.0000000000000000e+00  -7.7996556573082402e-07 4.6599476954396205e-08 0.0000000000000000e+00  -7.5232048746738851e-07 4.7041350783940226e-08 0.0000000000000000e+00  -7.2486956178055637e-07 4.7300145817800692e-08 0.0000000000000000e+00  -6.9767372985418434e-07 4.7593762478458941e-08 0.0000000000000000e+00  -6.7069266384566409e-07 4.7733655843498797e-08 0.0000000000000000e+00  -6.4394441616328864e-07 4.7967749216426704e-08 0.0000000000000000e+00  -6.1742946865514173e-07 4.8106394799697259e-08 0.0000000000000000e+00  -5.9113830402125404e-07 4.8381108141299935e-08 0.0000000000000000e+00  -5.6513321446397701e-07 4.8665227846919586e-08 0.0000000000000000e+00  -5.3928185463777801e-07 4.9013416773303564e-08 0.0000000000000000e+00  -5.1376287734755739e-07 4.9466413282989800e-08 0.0000000000000000e+00  -4.8838870339451825e-07 4.9946675542116660e-08 0.0000000000000000e+00  -4.6327599577400016e-07 5.0611077022471417e-08 0.0000000000000000e+00  -4.3838086465652512e-07 5.1200258478419023e-08 0.0000000000000000e+00  -4.1372090690651274e-07 5.2051511326954937e-08 0.0000000000000000e+00  -3.8930735113181528e-07 5.2766089304740653e-08 0.0000000000000000e+00  -3.6511734762868012e-07 5.3687386709629592e-08 0.0000000000000000e+00  -3.4119511504679627e-07 5.4505896860617151e-08 0.0000000000000000e+00  -3.1741895518033073e-07 5.5402427578681444e-08 0.0000000000000000e+00  -2.9400049131167344e-07 5.6251468051483657e-08 0.0000000000000000e+00  -2.7074439259178089e-07 5.7102396827920646e-08 0.0000000000000000e+00  -2.4780465847602774e-07 5.7937412245523449e-08 0.0000000000000000e+00  -2.2512606851290908e-07 5.8600522080544485e-08 0.0000000000000000e+00  -2.0272281002815009e-07 5.9340916998616231e-08 0.0000000000000000e+00  -1.8062338807621282e-07 5.9950306668212846e-08 0.0000000000000000e+00  -1.5872627253686814e-07 6.0530007691455348e-08 0.0000000000000000e+00  -1.3723758546873480e-07 6.1066751279864408e-08 0.0000000000000000e+00  -1.1591721633508791e-07 6.1507707685098135e-08 0.0000000000000000e+00  -9.4999358273751775e-08 6.2369828102030710e-08 0.0000000000000000e+00  -7.3554215114886715e-08 6.3116733013981741e-08 0.0000000000000000e+00  -5.0916974470907117e-08 6.1839489836264620e-08 0.0000000000000000e+00  -2.5919054760896049e-08 5.7297202732964838e-08 0.0000000000000000e+00  -5.1023371224768857e-08 -4.2731449255934690e-10 0.0000000000000000e+00  -1.1692543264576014e-06 -1.3617194337168460e-08 0.0000000000000000e+00  -1.1119968401535464e-06 -1.1380615978355737e-08 0.0000000000000000e+00  -1.0201521779173833e-06 -7.1660701470139734e-09 0.0000000000000000e+00  -8.4555012643978631e-08 1.1958072257929061e-10 0.0000000000000000e+00  -9.6327054044351452e-07 -4.6780291102399070e-09 0.0000000000000000e+00  -1.2464023535848228e-07 1.0469886028753058e-09 0.0000000000000000e+00  -9.0602059392257891e-07 -3.1443870927715416e-09 0.0000000000000000e+00  -1.9223938603322167e-07 8.4314641997069227e-10 0.0000000000000000e+00  -2.3602629851028499e-07 -3.4222841576065677e-10 0.0000000000000000e+00  -8.4948458312073466e-07 -2.1927713484398179e-09 0.0000000000000000e+00  -3.5355357357976417e-07 -1.3192580696537132e-09 0.0000000000000000e+00  -7.3862413018438158e-07 -1.9221034485216033e-09 0.0000000000000000e+00  -2.7992755270666112e-07 -1.4508946047447996e-10 0.0000000000000000e+00  -4.0101500872077662e-07 -2.7848700944439674e-09 0.0000000000000000e+00  -6.8434328803863345e-07 -2.3545152708525172e-09 0.0000000000000000e+00  -7.9367859545595623e-07 -1.8129555922350732e-09 0.0000000000000000e+00  -4.5046615429593654e-07 -3.3340167758158290e-09 0.0000000000000000e+00  -6.3086292057156855e-07 -2.9050641319161175e-09 0.0000000000000000e+00  -4.9881048017775325e-07 -2.8887958298376882e-09 0.0000000000000000e+00  -5.7927979659225421e-07 -4.0225010674199982e-09 0.0000000000000000e+00  -5.3722398172036042e-07 -3.5524012652092817e-09 0.0000000000000000e+00  -3.1486161868832517e-07 -1.5512955323953409e-09 0.0000000000000000e+00  -1.0677666342870121e-06 -8.5042155738835693e-09 0.0000000000000000e+00  -1.5682571039207870e-07 2.1610777051444803e-10 0.0000000000000000e+00  -1.1409569843132239e-06 2.6120570972114531e-09 0.0000000000000000e+00  -6.5555160062173891e-08 2.3565048177384937e-08 0.0000000000000000e+00  -9.3486357921913924e-07 9.5621232607899394e-09 0.0000000000000000e+00  -9.9255594807635166e-07 7.5232569247768930e-09 0.0000000000000000e+00  -1.0509765000795590e-07 -2.1664271105189129e-08 0.0000000000000000e+00  -2.1349384750962809e-07 -1.7320014748391007e-08 0.0000000000000000e+00  -7.6607638110793216e-07 1.2342958322668870e-08 0.0000000000000000e+00  -8.7786833486476241e-07 1.1059609724450047e-08 0.0000000000000000e+00  -3.7655553279099528e-07 -1.8610966339432922e-08 0.0000000000000000e+00  -7.1134714426712443e-07 1.2309963936063009e-08 0.0000000000000000e+00  -2.5869377953531820e-07 -1.7531639119395251e-08 0.0000000000000000e+00  -4.2555616575330729e-07 -1.8989064419387270e-08 0.0000000000000000e+00  -6.5744328006925863e-07 1.2053949014136078e-08 0.0000000000000000e+00  -8.2159720575358417e-07 1.1970120448936966e-08 0.0000000000000000e+00  -4.7524129442225428e-07 -2.2570179240071524e-08 0.0000000000000000e+00  -6.0437920626096105e-07 1.1786020097531061e-08 0.0000000000000000e+00  -3.1263165083321006e-08 -1.3612625789135294e-08 0.0000000000000000e+00  -3.0402557694067359e-08 1.2172913457908985e-08 0.0000000000000000e+00  -1.1925804949182426e-06 -2.4502892378801988e-08 0.0000000000000000e+00 