<?xml version="1.0"?>
<VTKFile type="UnstructuredGrid"  version="0.1"  >
<UnstructuredGrid>
<Piece  NumberOfPoints="1419" NumberOfCells="2698">
<Points>
<DataArray  type="Float64"  NumberOfComponents="3"  format="ascii">0 0 0  0 0.41 0  2.5 0 0  2.5 0.41 0  0.6 0.19 0  0.6 0.21 0  0.25 0.2 0  0.15 0.2 0  0.2489897948556636 0.21 0  0.2489897948556636 0.19 0  0.6 0.2 0  0 0.3807142857143437 0  0 0.3514285714286952 0  0 0.3221428571430699 0  0 0.29285714285744 0  0 0.2635714285718054 0  0 0.2342857142861561 0  0 0.2050000000005308 0  0 0.175714285714732 0  0 0.1464285714289574 0  0 0.1171428571431897 0  0 0.08785714285737878 0  0 0.05857142857161107 0  0 0.02928571428580012 0  0.03015443760436003 0 0  0.06140001986583606 0 0  0.09377624077125973 0 0  0.1273239957535082 0 0  0.1620856860351972 0 0  0.1981052433264291 0 0  0.235428184091502 0 0  0.2741016576309132 0 0  0.3141745521465447 0 0  0.3556974926295285 0 0  0.3987229542472677 0 0  0.4433053055141081 0 0  0.4895008759286886 0 0  0.5373680609405097 0 0  0.5869673343216626 0 0  0.6383613676634521 0 0  0.6916151138468254 0 0  0.7467958595648856 0 0  0.8039733463919316 0 0  0.8632198139502143 0 0  0.9246101326867038 0 0  0.9882218810934433 0 0  1.054135445558498 0 0  1.122434100542598 0 0  1.193204177141305 0 0  1.266535089879536 0 0  1.342519516046404 0 0  1.421253448503939 0 0  1.502836389106271 0 0  1.587371439758838 0 0  1.674965418777374 0 0  1.765729001825544 0 0  1.859776908880082 0 0  1.957227977487062 0 0  2.058205329869943 0 0  2.162836591189951 0 0  2.271253957290865 0 0  2.383594446803425 0 0  2.5 0.1024999999997612 0  2.5 0.2049999999994743 0  2.5 0.3074999999997183 0  2.383594446803656 0.41 0  2.271253957291315 0.41 0  2.162836591190598 0.41 0  2.058205329870775 0.41 0  1.957227977488067 0.41 0  1.859776908881246 0.41 0  1.765729001826854 0.41 0  1.674965418778818 0.41 0  1.58737143976041 0.41 0  1.502836389107956 0.41 0  1.421253448505726 0.41 0  1.342519516048286 0.41 0  1.266535089881505 0.41 0  1.193204177143353 0.41 0  1.122434100544716 0.41 0  1.05413544556068 0.41 0  0.9882218810956305 0.41 0  0.9246101326886647 0.41 0  0.8632198139519631 0.41 0  0.8039733463934788 0.41 0  0.7467958595662458 0.41 0  0.6916151138480078 0.41 0  0.6383613676644679 0.41 0  0.5869673343225223 0.41 0  0.5373680609412221 0.41 0  0.4895008759292634 0.41 0  0.4433053055145528 0.41 0  0.3987229542475914 0.41 0  0.3556974926297398 0.41 0  0.3141745521466497 0.41 0  0.2741016576310038 0.41 0  0.2354281840915826 0.41 0  0.1981052433265003 0.41 0  0.1620856860352591 0.41 0  0.1273239957535623 0.41 0  0.09377624077128965 0.41 0  0.06140001986584975 0.41 0  0.03015443760436654 0.41 0  0.2497468076502589 0.2050254481002335 0  0.2497468076502614 0.1949745518997913 0  0.2469965252529372 0.1829317073451959 0  0.2439893735792749 0.1762316384219906 0  0.2400332147834255 0.1700443375285386 0  0.2352133972704371 0.1645032867342007 0  0.2296339016332438 0.1597280261969788 0  0.2234150974217223 0.1558215752574715 0  0.2166911463437691 0.1528682099456123 0  0.2096071079204251 0.1509316448471593 0  0.2023158100364996 0.1500536585536553 0  0.194974551899914 0.1502531923497262 0  0.1877417105387872 0.1515259415822739 0  0.1807733240461124 0.153844448527136 0  0.1742197252835808 0.15715869474974 0  0.1682222986673531 0.1613971801805478 0  0.162910430003803 0.1664684656256651 0  0.1583987151779087 0.1722631454351573 0  0.1547844879126891 0.178656207771761 0  0.1521457199348551 0.1855097315605723 0  0.1505393388476355 0.1926758619366523 0  0.1505393388476328 0.2073241380633295 0  0.1521457199348437 0.2144902684393899 0  0.1547844879126531 0.221343792228163 0  0.1583987151778488 0.2277368545647528 0  0.1629104300036858 0.2335315343742052 0  0.1682222986671726 0.2386028198193036 0  0.1742197252833576 0.2428413052501257 0  0.1807733240458683 0.2461555514727623 0  0.1877417105384929 0.2484740584176516 0  0.1949745518995776 0.2497468076502398 0  0.202315810036185 0.2499463414463592 0  0.2096071079201568 0.2490683551528932 0  0.2166911463435495 0.2471317900544655 0  0.2234150974215506 0.2441784247426195 0  0.2296339016331197 0.2402719738031125 0  0.2352133972703547 0.2354967132658811 0  0.2400332147833751 0.2299556624715287 0  0.2439893735792577 0.2237683615780412 0  0.246996525252926 0.2170682926548348 0  0.25645809709277 0.21 0  0.2639263993298655 0.21 0  0.271394701566961 0.21 0  0.2788630038040554 0.21 0  0.2863313060411479 0.21 0  0.2937996082782405 0.21 0  0.301267910515333 0.21 0  0.3087362127524279 0.21 0  0.3162045149895234 0.21 0  0.3236728172265972 0.21 0  0.3311411194636928 0.21 0  0.3386094217007701 0.21 0  0.3460777239378666 0.21 0  0.3535460261749672 0.21 0  0.3610143284120516 0.21 0  0.3684826306491596 0.21 0  0.3759509328862226 0.21 0  0.383419235123329 0.21 0  0.3908875373604028 0.21 0  0.3983558395975142 0.21 0  0.4058241418345938 0.21 0  0.4132924440716992 0.21 0  0.4207607463087888 0.21 0  0.4282290485459029 0.21 0  0.4356973507830418 0.21 0  0.4431656530201649 0.21 0  0.4506339552573136 0.21 0  0.4581022574944306 0.21 0  0.4655705597315852 0.21 0  0.4730388619686996 0.21 0  0.480507164205851 0.21 0  0.4879754664429498 0.21 0  0.4954437686800938 0.21 0  0.502912070917267 0.21 0  0.5103803731544119 0.21 0  0.5178486753915261 0.21 0  0.5253169776286404 0.21 0  0.5327852798657868 0.21 0  0.5402535821029386 0.21 0  0.54772188434007 0.21 0  0.5551901865771842 0.21 0  0.5626584888143201 0.21 0  0.5701267910514778 0.21 0  0.5775950932886138 0.21 0  0.5850633955257281 0.21 0  0.5925316977628483 0.21 0  0.6 0.2050000000000054 0  0.6 0.1950000000000217 0  0.5925316977628897 0.19 0  0.5850633955257988 0.19 0  0.5775950932887378 0.19 0  0.5701267910515998 0.19 0  0.5626584888145268 0.19 0  0.5551901865773963 0.19 0  0.547721884340339 0.19 0  0.5402535821032429 0.19 0  0.5327852798661811 0.19 0  0.5253169776290537 0.19 0  0.5178486753919799 0.19 0  0.5103803731549078 0.19 0  0.502912070917822 0.19 0  0.4954437686807294 0.19 0  0.4879754664436223 0.19 0  0.4805071642065402 0.19 0  0.4730388619694271 0.19 0  0.4655705597323621 0.19 0  0.4581022574952563 0.19 0  0.4506339552581777 0.19 0  0.4431656530210671 0.19 0  0.4356973507839815 0.19 0  0.4282290485468779 0.19 0  0.4207607463097617 0.19 0  0.4132924440726327 0.19 0  0.4058241418354857 0.19 0  0.3983558395983636 0.19 0  0.3908875373612097 0.19 0  0.3834192351240934 0.19 0  0.3759509328869369 0.19 0  0.3684826306498175 0.19 0  0.361014328412667 0.19 0  0.3535460261755617 0.19 0  0.3460777239384295 0.19 0  0.3386094217012945 0.19 0  0.3311411194641595 0.19 0  0.3236728172270245 0.19 0  0.3162045149898895 0.19 0  0.3087362127527544 0.19 0  0.3012679105156187 0.19 0  0.2937996082784807 0.19 0  0.2863313060413428 0.19 0  0.2788630038042048 0.19 0  0.2713947015670686 0.19 0  0.2639263993299336 0.19 0  0.2564580970927985 0.19 0  0.2607803159922026 0.2000727136295815 0  0.5887803774232762 0.2001272386983733 0  0.5745072403740523 0.2002044435018727 0  0.5511891430099709 0.2001122610077113 0  0.2751288526855082 0.20000000000002 0  0.5365194309847112 0.1999999999999436 0  0.2894621222999649 0.1998691686390484 0  0.5215828265105155 0.1999999999999228 0  0.3127789816668748 0.1998657885438805 0  0.3274069683451451 0.2000000000000796 0  0.5066462220363641 0.199999999999908 0  0.3650630746574081 0.199866017807523 0  0.476773013087985 0.1999999999998713 0  0.3417402379596385 0.1998691686391011 0  0.3796850840047755 0.200000000000134 0  0.4618364086138087 0.1999999999998546 0  0.4917096175621762 0.1999999999998808 0  0.3946216884789568 0.2000000000001512 0  0.446899804139621 0.1999999999998389 0  0.4089549580935208 0.1998691686391595 0  0.4322718174608562 0.200127451265745 0  0.4201487168029707 0.1999966199048527 0  0.3528922713220932 0.2000185703532356 0  0.5633122436674589 0.1999814296467508 0  0.3006558810093873 0.1999966199048318 0  0.5815926498168407 0.1966545283159175 0  0.2677053789419034 0.1964246479135325 0  0.5290511287476175 0.1970915826863981 0  0.5439877332217911 0.197091582686394 0  0.2825131256993216 0.2035478995978015 0  0.3199386661080599 0.202908417313604 0  0.4842413153250809 0.1970915826863873 0  0.5141145242734466 0.1970915826863843 0  0.3722167817676917 0.2029084173136195 0  0.4693047108508938 0.1970915826863783 0  0.3348752705822316 0.202908417313609 0  0.3871533862418661 0.2029084173136212 0  0.4543681063767183 0.1970915826863795 0  0.4991779197992749 0.1970915826863902 0  0.4020059614928624 0.203547899597858 0  0.4394315019025246 0.1970915826863714 0  0.2550657455369551 0.2034088125358657 0  0.2548908499171161 0.1966940311614271 0  0.5946539510196798 0.2024302972968126 0  0.267698176732111 0.2039977513680092 0  0.4261685417851465 0.196409292431739 0  0.3590076176283495 0.196411355804271 0  0.5571672426447437 0.2036011176410121 0  0.3066757059912147 0.1964092924317024 0  0.594380730180568 0.1966558399668133 0  0.4842413153245942 0.2040749161535287 0  0.4693047108503577 0.2040749161535231 0  0.3871533862424271 0.1959250838464788 0  0.372246743208829 0.1959123236376545 0  0.5141145242731028 0.2040749161535395 0  0.4543681063761134 0.2040749161535186 0  0.4019979587101454 0.1959834479682427 0  0.4394608940728603 0.2040870543693135 0  0.5439623148931173 0.2040856076781014 0  0.5290511287473298 0.2040749161535501 0  0.4991779197988497 0.2040749161535382 0  0.3347912413592433 0.1959225448935183 0  0.3199680582793816 0.1959123018030061 0  0.2825051229162361 0.1959834479681729 0  0.3590471196690275 0.2036304442587945 0  0.5571594006495384 0.1963685282145804 0  0.3067669986803285 0.203627750582736 0  0.4262598344738712 0.2036568242185335 0  0.5814408164431408 0.2041285596160068 0  0.5688286748170428 0.1961819304477386 0  0.4145905603063645 0.2038180695522843 0  0.3473758401724931 0.2038180695522752 0  0.2950977245128307 0.2038180695522663 0  0.5688286748170693 0.203818069552238 0  0.2950977245127906 0.1961819304477774 0  0.3473758401723931 0.1961819304478349 0  0.4145905603061963 0.1961819304479011 0  0.2601812407614425 0.2056861609747042
[...]
<PointData  Vectors="f_40-1"> 
<DataArray  type="Float64"  Name="f_40-1"  NumberOfComponents="3" format="ascii">0.0000000000000000e+00 0.0000000000000000e+00 0.0000000000000000e+00  0.0000000000000000e+00 0.0000000000000000e+00 0.0000000000000000e+00  0.0000000000000000e+00 0.0000000000000000e+00 0.0000000000000000e+00  0.0000000000000000e+00 0.0000000000000000e+00 0.0000000000000000e+00  -2.2442974132451890e-06 8.3981936534293732e-09 0.0000000000000000e+00  -2.2284013670520545e-06 -1.8727037590383460e-07 0.0000000000000000e+00  0.0000000000000000e+00 0.0000000000000000e+00 0.0000000000000000e+00  0.0000000000000000e+00 0.0000000000000000e+00 0.0000000000000000e+00  0.0000000000000000e+00 0.0000000000000000e+00 0.0000000000000000e+00  0.0000000000000000e+00 0.0000000000000000e+00 0.0000000000000000e+00  -2.2393656805973828e-06 -8.9361737926254697e-08 0.0000000000000000e+00  0.0000000000000000e+00 0.0000000000000000e+00 0.0000000000000000e+00  0.0000000000000000e+00 0.0000000000000000e+00 0.0000000000000000e+00  0.0000000000000000e+00 0.0000000000000000e+00 0.0000000000000000e+00  0.0000000000000000e+00 0.0000000000000000e+00 0.0000000000000000e+00  0.0000000000000000e+00 0.0000000000000000e+00 0.0000000000000000e+00  0.0000000000000000e+00 0.0000000000000000e+00 0.0000000000000000e+00  0.0000000000000000e+00 0.0000000000000000e+00 0.0000000000000000e+00  0.0000000000000000e+00 0.0000000000000000e+00 0.0000000000000000e+00  0.0000000000000000e+00 0.0000000000000000e+00 0.0000000000000000e+00  0.0000000000000000e+00 0.0000000000000000e+00 0.0000000000000000e+00  0.0000000000000000e+00 0.0000000000000000e+00 0.0000000000000000e+00  0.0000000000000000e+00 0.0000000000000000e+00 0.0000000000000000e+00  0.0000000000000000e+00 0.0000000000000000e+00 0.0000000000000000e+00  0.0000000000000000e+00 0.0000000000000000e+00 0.0000000000000000e+00  0.0000000000000000e+00 0.0000000000000000e+00 0.0000000000000000e+00  0.0000000000000000e+00 0.0000000000000000e+00 0.0000000000000000e+00  0.0000000000000000e+00 0.0000000000000000e+00 0.0000000000000000e+00  0.0000000000000000e+00 0.0000000000000000e+00 0.0000000000000000e+00  0.0000000000000000e+00 0.0000000000000000e+00 0.0000000000000000e+00  0.0000000000000000e+00 0.0000000000000000e+00 0.0000000000000000e+00  0.0000000000000000e+00 0.0000000000000000e+00 0.0000000000000000e+00  0.0000000000000000e+00 0.0000000000000000e+00 0.0000000000000000e+00  0.0000000000000000e+00 0.0000000000000000e+00 0.0000000000000000e+00  0.0000000000000000e+00 0.0000000000000000e+00 0.0000000000000000e+00  0.0000000000000000e+00 0.0000000000000000e+00 0.0000000000000000e+00  0.0000000000000000e+00 0.0000000000000000e+00 0.0000000000000000e+00  0.0000000000000000e+00 0.0000000000000000e+00 0.0000000000000000e+00  0.0000000000000000e+00 0.0000000000000000e+00 0.0000000000000000e+00  0.0000000000000000e+00 0.0000000000000000e+00 0.0000000000000000e+00  0.0000000000000000e+00 0.0000000000000000e+00 0.0000000000000000e+00  0.0000000000000000e+00 0.0000000000000000e+00 0.0000000000000000e+00  0.0000000000000000e+00 0.0000000000000000e+00 0.0000000000000000e+00  0.0000000000000000e+00 0.0000000000000000e+00 0.0000000000000000e+00  0.0000000000000000e+00 0.0000000000000000e+00 0.0000000000000000e+00  0.0000000000000000e+00 0.0000000000000000e+00 0.0000000000000000e+00  0.0000000000000000e+00 0.0000000000000000e+00 0.0000000000000000e+00  0.0000000000000000e+00 0.0000000000000000e+00 0.0000000000000000e+00  0.0000000000000000e+00 0.0000000000000000e+00 0.0000000000000000e+00  0.0000000000000000e+00 0.0000000000000000e+00 0.0000000000000000e+00  0.0000000000000000e+00 0.0000000000000000e+00 0.0000000000000000e+00  0.0000000000000000e+00 0.0000000000000000e+00 0.0000000000000000e+00  0.0000000000000000e+00 0.0000000000000000e+00 0.0000000000000000e+00  0.0000000000000000e+00 0.0000000000000000e+00 0.0000000000000000e+00  0.0000000000000000e+00 0.0000000000000000e+00 0.0000000000000000e+00  0.0000000000000000e+00 0.0000000000000000e+00 0.0000000000000000e+00  0.0000000000000000e+00 0.0000000000000000e+00 0.0000000000000000e+00  0.0000000000000000e+00 0.0000000000000000e+00 0.0000000000000000e+00  0.0000000000000000e+00 0.0000000000000000e+00 0.0000000000000000e+00  0.0000000000000000e+00 0.0000000000000000e+00 0.0000000000000000e+00  0.0000000000000000e+00 0.0000000000000000e+00 0.0000000000000000e+00  0.0000000000000000e+00 0.0000000000000000e+00 0.0000000000000000e+00  0.0000000000000000e+00 0.0000000000000000e+00 0.0000000000000000e+00  0.0000000000000000e+00 0.0000000000000000e+00 0.0000000000000000e+00  0.0000000000000000e+00 0.0000000000000000e+00 0.0000000000000000e+00  0.0000000000000000e+00 0.0000000000000000e+00 0.0000000000000000e+00  0.0000000000000000e+00 0.0000000000000000e+00 0.0000000000000000e+00  0.0000000000000000e+00 0.0000000000000000e+00 0.0000000000000000e+00  0.0000000000000000e+00 0.0000000000000000e+00 0.0000000000000000e+00  0.0000000000000000e+00 0.0000000000000000e+00 0.0000000000000000e+00  0.0000000000000000e+00 0.0000000000000000e+00 0.0000000000000000e+00  0.0000000000000000e+00 0.0000000000000000e+00 0.0000000000000000e+00  0.0000000000000000e+00 0.0000000000000000e+00 0.0000000000000000e+00  0.0000000000000000e+00 0.0000000000000000e+00 0.0000000000000000e+00  0.0000000000000000e+00 0.0000000000000000e+00 0.0000000000000000e+00  0.0000000000000000e+00 0.0000000000000000e+00 0.0000000000000000e+00  0.0000000000000000e+00 0.0000000000000000e+00 0.0000000000000000e+00  0.0000000000000000e+00 0.0000000000000000e+00 0.0000000000000000e+00  0.0000000000000000e+00 0.0000000000000000e+00 0.0000000000000000e+00  0.0000000000000000e+00 0.0000000000000000e+00 0.0000000000000000e+00  0.0000000000000000e+00 0.0000000000000000e+00 0.0000000000000000e+00  0.0000000000000000e+00 0.0000000000000000e+00 0.0000000000000000e+00  0.0000000000000000e+00 0.0000000000000000e+00 0.0000000000000000e+00  0.0000000000000000e+00 0.0000000000000000e+00 0.0000000000000000e+00  0.0000000000000000e+00 0.0000000000000000e+00 0.0000000000000000e+00  0.0000000000000000e+00 0.0000000000000000e+00 0.0000000000000000e+00  0.0000000000000000e+00 0.0000000000000000e+00 0.0000000000000000e+00  0.0000000000000000e+00 0.0000000000000000e+00 0.0000000000000000e+00  0.0000000000000000e+00 0.0000000000000000e+00 0.0000000000000000e+00  0.0000000000000000e+00 0.0000000000000000e+00 0.0000000000000000e+00  0.0000000000000000e+00 0.0000000000000000e+00 0.0000000000000000e+00  0.0000000000000000e+00 0.0000000000000000e+00 0.0000000000000000e+00  0.0000000000000000e+00 0.0000000000000000e+00 0.0000000000000000e+00  0.0000000000000000e+00 0.0000000000000000e+00 0.0000000000000000e+00  0.0000000000000000e+00 0.0000000000000000e+00 0.0000000000000000e+00  0.0000000000000000e+00 0.0000000000000000e+00 0.0000000000000000e+00  0.0000000000000000e+00 0.0000000000000000e+00 0.0000000000000000e+00  0.0000000000000000e+00 0.0000000000000000e+00 0.0000000000000000e+00  0.0000000000000000e+00 0.0000000000000000e+00 0.0000000000000000e+00  0.0000000000000000e+00 0.0000000000000000e+00 0.0000000000000000e+00  0.0000000000000000e+00 0.0000000000000000e+00 0.0000000000000000e+00  0.0000000000000000e+00 0.0000000000000000e+00 0.0000000000000000e+00  0.0000000000000000e+00 0.0000000000000000e+00 0.0000000000000000e+00  0.0000000000000000e+00 0.0000000000000000e+00 0.0000000000000000e+00  0.0000000000000000e+00 0.0000000000000000e+00 0.0000000000000000e+00  0.0000000000000000e+00 0.0000000000000000e+00 0.0000000000000000e+00  0.0000000000000000e+00 0.0000000000000000e+00 0.0000000000000000e+00  0.0000000000000000e+00 0.0000000000000000e+00 0.0000000000000000e+00  0.0000000000000000e+00 0.0000000000000000e+00 0.0000000000000000e+00  0.0000000000000000e+00 0.0000000000000000e+00 0.0000000000000000e+00  0.0000000000000000e+00 0.0000000000000000e+00 0.0000000000000000e+00  0.0000000000000000e+00 0.0000000000000000e+00 0.0000000000000000e+00  0.0000000000000000e+00 0.0000000000000000e+00 0.0000000000000000e+00  0.0000000000000000e+00 0.0000000000000000e+00 0.0000000000000000e+00  0.0000000000000000e+00 0.0000000000000000e+00 0.0000000000000000e+00  0.0000000000000000e+00 0.0000000000000000e+00 0.0000000000000000e+00  0.0000000000000000e+00 0.0000000000000000e+00 0.0000000000000000e+00  0.0000000000000000e+00 0.0000000000000000e+00 0.0000000000000000e+00  0.0000000000000000e+00 0.0000000000000000e+00 0.0000000000000000e+00  0.0000000000000000e+00 0.0000000000000000e+00 0.0000000000000000e+00  0.0000000000000000e+00 0.0000000000000000e+00 0.0000000000000000e+00  0.0000000000000000e+00 0.0000000000000000e+00 0.0000000000000000e+00  0.0000000000000000e+00 0.0000000000000000e+00 0.0000000000000000e+00  0.0000000000000000e+00 0.0000000000000000e+00 0.0000000000000000e+00  0.0000000000000000e+00 0.0000000000000000e+00 0.0000000000000000e+00  0.0000000000000000e+00 0.0000000000000000e+00 0.0000000000000000e+00  0.0000000000000000e+00 0.0000000000000000e+00 0.0000000000000000e+00  0.0000000000000000e+00 0.0000000000000000e+00 0.0000000000000000e+00  0.0000000000000000e+00 0.0000000000000000e+00 0.0000000000000000e+00  0.0000000000000000e+00 0.0000000000000000e+00 0.0000000000000000e+00  0.0000000000000000e+00 0.0000000000000000e+00 0.0000000000000000e+00  0.0000000000000000e+00 0.0000000000000000e+00 0.0000000000000000e+00  0.0000000000000000e+00 0.0000000000000000e+00 0.0000000000000000e+00  0.0000000000000000e+00 0.0000000000000000e+00 0.0000000000000000e+00  0.0000000000000000e+00 0.0000000000000000e+00 0.0000000000000000e+00  0.0000000000000000e+00 0.0000000000000000e+00 0.0000000000000000e+00  0.0000000000000000e+00 0.0000000000000000e+00 0.0000000000000000e+00  0.0000000000000000e+00 0.0000000000000000e+00 0.0000000000000000e+00  0.0000000000000000e+00 0.0000000000000000e+00 0.0000000000000000e+00  0.0000000000000000e+00 0.0000000000000000e+00 0.0000000000000000e+00  0.0000000000000000e+00 0.0000000000000000e+00 0.0000000000000000e+00  0.0000000000000000e+00 0.0000000000000000e+00 0.0000000000000000e+00  0.0000000000000000e+00 0.0000000000000000e+00 0.0000000000000000e+00  -4.4303674492435289e-08 -1.4301247763296072e-07 0.0000000000000000e+00  -8.6355004027978553e-08 -1.5324697336001751e-07 0.0000000000000000e+00  -1.2173400680807705e-07 -1.5558027035089321e-07 0.0000000000000000e+00  -1.5366894452521531e-07 -1.5291543518674859e-07 0.0000000000000000e+00  -1.8443836887181974e-07 -1.5041075295146132e-07 0.0000000000000000e+00  -2.1615913501586102e-07 -1.4909886868963001e-07 0.0000000000000000e+00  -2.4841397742966510e-07 -1.4774879907017159e-07 0.0000000000000000e+00  -2.8175311419213122e-07 -1.4658803240265564e-07 0.0000000000000000e+00  -3.1562802625590550e-07 -1.4557765919493920e-07 0.0000000000000000e+00  -3.5046309839914897e-07 -1.4455528977664899e-07 0.0000000000000000e+00  -3.8605663906944864e-07 -1.4397719399838765e-07 0.0000000000000000e+00  -4.2254283385871240e-07 -1.4320056441591456e-07 0.0000000000000000e+00  -4.5998117963118747e-07 -1.4262824291171260e-07 0.0000000000000000e+00  -4.9810248012296498e-07 -1.4226587563657457e-07 0.0000000000000000e+00  -5.3738645633119076e-07 -1.4183210202866049e-07 0.0000000000000000e+00  -5.7727365702432574e-07 -1.4170118577728319e-07 0.0000000000000000e+00  -6.1816123436461206e-07 -1.4119863459114111e-07 0.0000000000000000e+00  -6.5992715894058940e-07 -1.4123957119746730e-07 0.0000000000000000e+00  -7.0254576777636949e-07 -1.4074332511062096e-07 0.0000000000000000e+00  -7.4599022428969802e-07 -1.4075651563902930e-07 0.0000000000000000e+00  -7.9028947550559494e-07 -1.4025281317070296e-07 0.0000000000000000e+00  -8.3558356752285141e-07 -1.3994139814704220e-07 0.0000000000000000e+00  -8.8140329800035664e-07 -1.3969351654997836e-07 0.0000000000000000e+00  -9.2834358273789771e-07 -1.3923828859738116e-07 0.0000000000000000e+00  -9.7581204534852760e-07 -1.3913927897173927e-07 0.0000000000000000e+00  -1.0242366526749053e-06 -1.3858038546801329e-07 0.0000000000000000e+00  -1.0735132186865997e-06 -1.3875065015654918e-07 0.0000000000000000e+00  -1.1235263744023763e-06 -1.3842866795469670e-07 0.0000000000000000e+00  -1.1743931966561181e-06 -1.3874934858686676e-07 0.0000000000000000e+00  -1.2259997014274008e-06 -1.3884065050150493e-07 0.0000000000000000e+00  -1.2783956899207401e-06 -1.3952085360349538e-07 0.0000000000000000e+00  -1.3316564561068978e-06 -1.4005775027823226e-07 0.0000000000000000e+00  -1.3855764467954150e-06 -1.4133224068021138e-07 0.0000000000000000e+00  -1.4404122578824575e-06 -1.4227813487855971e-07 0.0000000000000000e+00  -1.4961368625126723e-06 -1.4415071897838932e-07 0.0000000000000000e+00  -1.5526288818729001e-06 -1.4585776547833036e-07 0.0000000000000000e+00  -1.6099186805639586e-06 -1.4835900288285828e-07 0.0000000000000000e+00  -1.6680410495790250e-06 -1.5071592071876001e-07 0.0000000000000000e+00  -1.7270336555587609e-06 -1.5377633931195379e-07 0.0000000000000000e+00  -1.7869565759304440e-06 -1.5673243073011771e-07 0.0000000000000000e+00  -1.8477794729795686e-06 -1.6022795187981614e-07 0.0000000000000000e+00  -1.9093185863541046e-06 -1.6374429952048622e-07 0.0000000000000000e+00  -1.9720292464436538e-06 -1.6760901803877583e-07 0.0000000000000000e+00  -2.0352130793789415e-06 -1.7156383746418391e-07 0.0000000000000000e+00  -2.0993980001862296e-06 -1.7548060682542761e-07 0.0000000000000000e+00  -2.1641146873314552e-06 -1.8005163514927495e-07 0.0000000000000000e+00  -2.2351014799478853e-06 -1.3826377639999686e-07 0.0000000000000000e+00  -2.2427384492425955e-06 -4.0475990219784795e-08 0.0000000000000000e+00  -2.1795201840405771e-06 1.2973051970022235e-08 0.0000000000000000e+00  -2.1144469649396456e-06 1.9950115729435231e-08 0.0000000000000000e+00  -2.0498409777313445e-06 2.7153019470441107e-08 0.0000000000000000e+00  -1.9861043344187873e-06 3.4014532980649099e-08 0.0000000000000000e+00  -1.9228932031890407e-06 4.0695420159765716e-08 0.0000000000000000e+00  -1.8608129958095143e-06 4.7106704905687091e-08 0.0000000000000000e+00  -1.7992768756900741e-06 5.3264473196237531e-08 0.0000000000000000e+00  -1.7387364295510465e-06 5.9262231892714992e-08 0.0000000000000000e+00  -1.6788844645428593e-06 6.4690914626900452e-08 0.0000000000000000e+00  -1.6199626376164537e-06 7.0188377942764013e-08 0.0000000000000000e+00  -1.5617845671550244e-06 7.5026910833499378e-08 0.0000000000000000e+00  -1.5045587321673881e-06 7.9862616741541626e-08 0.0000000000000000e+00  -1.4480566923662208e-06 8.4004002275082932e-08 0.0000000000000000e+00  -1.3924981721868618e-06 8.8202251137806406e-08 0.0000000000000000e+00  -1.3376961299848659e-06 9.1734430915339806e-08 0.0000000000000000e+00  -1.2838336489179656e-06 9.5375101220888737e-08 0.0000000000000000e+00  -1.2307751957891095e-06 9.8438000647647107e-08 0.0000000000000000e+00  -1.1786919234115522e-06 1.0163785747969841e-07 0.0000000000000000e+00  -1.1274184529839143e-06 1.0425049892557249e-07 0.0000000000000000e+00  -1.0770554860589377e-06 1.0709163395383317e-07 0.0000000000000000e+00  -1.0275232003589425e-06 1.0944923355015412e-07 0.0000000000000000e+00  -9.7888606647315824e-07 1.1208275620193291e-07 0.0000000000000000e+00  -9.3122986297500690e-07 1.1450306801655710e-07 0.0000000000000000e+00  -8.8424636410539926e-07 1.1689130803110866e-07 0.0000000000000000e+00  -8.3842040550228397e-07 1.1933481817088977e-07 0.0000000000000000e+00  -7.9312974900428154e-07 1.2162515891333672e-07 0.0000000000000000e+00  -7.4884650658065788e-07 1.2426698879883846e-07 0.0000000000000000e+00  -7.0535641927669320e-07 1.2640056959483314e-07 0.0000000000000000e+00  -6.6274413511900255e-07 1.2919475945450908e-07 0.0000000000000000e+00  -6.2099955419369212e-07 1.3135564376875877e-07 0.0000000000000000e+00  -5.8006813123586339e-07 1.3406709802307947e-07 0.0000000000000000e+00  -5.4005357517090252e-07 1.3631629564045614e-07 0.0000000000000000e+00  -5.0059826817568182e-07 1.3876237771180737e-07 0.0000000000000000e+00  -4.6224685852910981e-07 1.4098019563092136e-07 0.0000000000000000e+00  -4.2444632790421988e-07 1.4318116923034462e-07 0.0000000000000000e+00  -3.8762889690213927e-07 1.4530659421594856e-07 0.0000000000000000e+00  -3.5161722998232166e-07 1.4692177963414336e-07 0.0000000000000000e+00  -3.1643395905406172e-07 1.4874237810462066e-07 0.0000000000000000e+00  -2.8214932424812417e-07 1.5017232795395360e-07 0.0000000000000000e+00  -2.4846452512237201e-07 1.5148988641799845e-07 0.0000000000000000e+00  -2.1588944291012091e-07 1.5266385234850010e-07 0.0000000000000000e+00  -1.8380152063025744e-07 1.5355701046479097e-07 0.0000000000000000e+00  -1.5282803404527104e-07 1.5550251223423710e-07 0.0000000000000000e+00  -1.2063126148818329e-07 1.5710054983256108e-07 0.0000000000000000e+00  -8.5560987333641461e-08 1.5384685234554265e-07 0.0000000000000000e+00  -4.4372816019434209e-08 1.4239583767170289e-07 0.0000000000000000e+00  -9.5128381136916797e-08 -8.3972735165885596e-10 0.0000000000000000e+00  -2.1399717853914324e-06 -8.1748718022333515e-08 0.0000000000000000e+00  -2.0159126529008583e-06 -7.1844620870734402e-08 0.0000000000000000e+00  -1.8212244327172782e-06 -5.4948460043266758e-08 0.0000000000000000e+00  -1.3784142683209870e-07 9.8394996227958293e-10 0.0000000000000000e+00  -1.7030685783692574e-06 -4.4901650410324136e-08 0.0000000000000000e+00  -1.9713357174984688e-07 3.7474629496052015e-09 0.0000000000000000e+00  -1.5859503327695976e-06 -3.7012274950663420e-08 0.0000000000000000e+00  -3.0017674787793296e-07 3.7734788320438508e-09 0.0000000000000000e+00  -3.6881474177792541e-07 1.0315746579415135e-09 0.0000000000000000e+00  -1.4721725549343189e-06 -3.0430632772535193e-08 0.0000000000000000e+00  -5.6014556778413425e-07 -1.4428668564653907e-09 0.0000000000000000e+00  -1.2546373932102506e-06 -2.0961009552561981e-08 0.0000000000000000e+00  -4.3903998251406936e-07 1.6148749590924975e-09 0.0000000000000000e+00  -6.4032780375306818e-07 -5.4743432845106925e-09 0.0000000000000000e+00  -1.1508797026576676e-06 -1.7710173490926529e-08 0.0000000000000000e+00  -1.3617331873199633e-06 -2.5130462110111801e-08 0.0000000000000000e+00  -7.2553241846135857e-07 -7.6937727816320654e-09 0.0000000000000000e+00  -1.0504652046973420e-06 -1.5127529084663352e-08 0.0000000000000000e+00  -8.1045656517405045e-07 -8.0144279377716200e-09 0.0000000000000000e+00  -9.5529350483941169e-07 -1.4561147593335854e-08 0.0000000000000000e+00  -8.7918168027290070e-07 -1.1255126904595155e-08 0.0000000000000000e+00  -4.9610748692911970e-07 -1.8886071307272956e-09 0.0000000000000000e+00  -1.9217519848533953e-06 -6.1694731136191835e-08 0.0000000000000000e+00  -2.4587084489517762e-07 1.9754535108321039e-09 0.0000000000000000e+00  -2.0796630394504174e-06 -4.2240679486441123e-08 0.0000000000000000e+00  -1.1151176977218594e-07 5.8904002434014517e-08 0.0000000000000000e+00  -1.6456623767849260e-06 -9.2783896421707485e-09 0.0000000000000000e+00  -1.7646751865727457e-06 -1.8553322553613337e-08 0.0000000000000000e+00  -1.6818077774674639e-07 -5.2786003055268765e-08 0.0000000000000000e+00  -3.3330695202019043e-07 -4.1107959256892702e-08 0.0000000000000000e+00  -1.3086653342556437e-06 1.0991460423443154e-08 0.0000000000000000e+00  -1.5299838266833154e-06 -1.2294568526717678e-09 0.0000000000000000e+00  -5.9862722758034521e-07 -4.4217582950711936e-08 0.0000000000000000e+00  -1.2030616471872126e-06 1.5480746217951034e-08 0.0000000000000000e+00  -4.0483571578366878e-07 -4.1448260598250886e-08 0.0000000000000000e+00  -6.8216655298380951e-07 -4.5689358395636260e-08 0.0000000000000000e+00  -1.1008600838599179e-06 1.9155028867234419e-08 0.0000000000000000e+00  -1.4176532133262424e-06 5.4911921706741537e-09 0.0000000000000000e+00  -7.6846488511829601e-07 -5.5524789601177801e-08 0.0000000000000000e+00  -1.0020222321881062e-06 2.2305104747220898e-08 0.0000000000000000e+00  -6.2522137829921627e-08 -3.3945468212020844e-08 0.0000000000000000e+00  -6.0864809676765949e-08 3.0542643645697775e-08 0.0000000000000000e+00  -2.1901530711247259e-06 -1.0860511682652809e-07 0.0000000000000000e+