<?xml version="1.0"?>
<VTKFile type="UnstructuredGrid"  version="0.1"  >
<UnstructuredGrid>
<Piece  NumberOfPoints="1419" NumberOfCells="2698">
<Points>
<DataArray  type="Float64"  NumberOfComponents="3"  format="ascii">0 0 0  0 0.41 0  2.5 0 0  2.5 0.41 0  0.6 0.19 0  0.6 0.21 0  0.25 0.2 0  0.15 0.2 0  0.2489897948556636 0.21 0  0.2489897948556636 0.19 0  0.6 0.2 0  0 0.3807142857143437 0  0 0.3514285714286952 0  0 0.3221428571430699 0  0 0.29285714285744 0  0 0.2635714285718054 0  0 0.2342857142861561 0  0 0.2050000000005308 0  0 0.175714285714732 0  0 0.1464285714289574 0  0 0.1171428571431897 0  0 0.08785714285737878 0  0 0.05857142857161107 0  0 0.02928571428580012 0  0.03015443760436003 0 0  0.06140001986583606 0 0  0.09377624077125973 0 0  0.1273239957535082 0 0  0.1620856860351972 0 0  0.1981052433264291 0 0  0.235428184091502 0 0  0.2741016576309132 0 0  0.3141745521465447 0 0  0.3556974926295285 0 0  0.3987229542472677 0 0  0.4433053055141081 0 0  0.4895008759286886 0 0  0.5373680609405097 0 0  0.5869673343216626 0 0  0.6383613676634521 0 0  0.6916151138468254 0 0  0.7467958595648856 0 0  0.8039733463919316 0 0  0.8632198139502143 0 0  0.9246101326867038 0 0  0.9882218810934433 0 0  1.054135445558498 0 0  1.122434100542598 0 0  1.193204177141305 0 0  1.266535089879536 0 0  1.342519516046404 0 0  1.421253448503939 0 0  1.502836389106271 0 0  1.587371439758838 0 0  1.674965418777374 0 0  1.765729001825544 0 0  1.859776908880082 0 0  1.957227977487062 0 0  2.058205329869943 0 0  2.162836591189951 0 0  2.271253957290865 0 0  2.383594446803425 0 0  2.5 0.1024999999997612 0  2.5 0.2049999999994743 0  2.5 0.3074999999997183 0  2.383594446803656 0.41 0  2.271253957291315 0.41 0  2.162836591190598 0.41 0  2.058205329870775 0.41 0  1.957227977488067 0.41 0  1.859776908881246 0.41 0  1.765729001826854 0.41 0  1.674965418778818 0.41 0  1.58737143976041 0.41 0  1.502836389107956 0.41 0  1.421253448505726 0.41 0  1.342519516048286 0.41 0  1.266535089881505 0.41 0  1.193204177143353 0.41 0  1.122434100544716 0.41 0  1.05413544556068 0.41 0  0.9882218810956305 0.41 0  0.9246101326886647 0.41 0  0.8632198139519631 0.41 0  0.8039733463934788 0.41 0  0.7467958595662458 0.41 0  0.6916151138480078 0.41 0  0.6383613676644679 0.41 0  0.5869673343225223 0.41 0  0.5373680609412221 0.41 0  0.4895008759292634 0.41 0  0.4433053055145528 0.41 0  0.3987229542475914 0.41 0  0.3556974926297398 0.41 0  0.3141745521466497 0.41 0  0.2741016576310038 0.41 0  0.2354281840915826 0.41 0  0.1981052433265003 0.41 0  0.1620856860352591 0.41 0  0.1273239957535623 0.41 0  0.09377624077128965 0.41 0  0.06140001986584975 0.41 0  0.03015443760436654 0.41 0  0.2497468076502589 0.2050254481002335 0  0.2497468076502614 0.1949745518997913 0  0.2469965252529372 0.1829317073451959 0  0.2439893735792749 0.1762316384219906 0  0.2400332147834255 0.1700443375285386 0  0.2352133972704371 0.1645032867342007 0  0.2296339016332438 0.1597280261969788 0  0.2234150974217223 0.1558215752574715 0  0.2166911463437691 0.1528682099456123 0  0.2096071079204251 0.1509316448471593 0  0.2023158100364996 0.1500536585536553 0  0.194974551899914 0.1502531923497262 0  0.1877417105387872 0.1515259415822739 0  0.1807733240461124 0.153844448527136 0  0.1742197252835808 0.15715869474974 0  0.1682222986673531 0.1613971801805478 0  0.162910430003803 0.1664684656256651 0  0.1583987151779087 0.1722631454351573 0  0.1547844879126891 0.178656207771761 0  0.1521457199348551 0.1855097315605723 0  0.1505393388476355 0.1926758619366523 0  0.1505393388476328 0.2073241380633295 0  0.1521457199348437 0.2144902684393899 0  0.1547844879126531 0.221343792228163 0  0.1583987151778488 0.2277368545647528 0  0.1629104300036858 0.2335315343742052 0  0.1682222986671726 0.2386028198193036 0  0.1742197252833576 0.2428413052501257 0  0.1807733240458683 0.2461555514727623 0  0.1877417105384929 0.2484740584176516 0  0.1949745518995776 0.2497468076502398 0  0.202315810036185 0.2499463414463592 0  0.2096071079201568 0.2490683551528932 0  0.2166911463435495 0.2471317900544655 0  0.2234150974215506 0.2441784247426195 0  0.2296339016331197 0.2402719738031125 0  0.2352133972703547 0.2354967132658811 0  0.2400332147833751 0.2299556624715287 0  0.2439893735792577 0.2237683615780412 0  0.246996525252926 0.2170682926548348 0  0.25645809709277 0.21 0  0.2639263993298655 0.21 0  0.271394701566961 0.21 0  0.2788630038040554 0.21 0  0.2863313060411479 0.21 0  0.2937996082782405 0.21 0  0.301267910515333 0.21 0  0.3087362127524279 0.21 0  0.3162045149895234 0.21 0  0.3236728172265972 0.21 0  0.3311411194636928 0.21 0  0.3386094217007701 0.21 0  0.3460777239378666 0.21 0  0.3535460261749672 0.21 0  0.3610143284120516 0.21 0  0.3684826306491596 0.21 0  0.3759509328862226 0.21 0  0.383419235123329 0.21 0  0.3908875373604028 0.21 0  0.3983558395975142 0.21 0  0.4058241418345938 0.21 0  0.4132924440716992 0.21 0  0.4207607463087888 0.21 0  0.4282290485459029 0.21 0  0.4356973507830418 0.21 0  0.4431656530201649 0.21 0  0.4506339552573136 0.21 0  0.4581022574944306 0.21 0  0.4655705597315852 0.21 0  0.4730388619686996 0.21 0  0.480507164205851 0.21 0  0.4879754664429498 0.21 0  0.4954437686800938 0.21 0  0.502912070917267 0.21 0  0.5103803731544119 0.21 0  0.5178486753915261 0.21 0  0.5253169776286404 0.21 0  0.5327852798657868 0.21 0  0.5402535821029386 0.21 0  0.54772188434007 0.21 0  0.5551901865771842 0.21 0  0.5626584888143201 0.21 0  0.5701267910514778 0.21 0  0.5775950932886138 0.21 0  0.5850633955257281 0.21 0  0.5925316977628483 0.21 0  0.6 0.2050000000000054 0  0.6 0.1950000000000217 0  0.5925316977628897 0.19 0  0.5850633955257988 0.19 0  0.5775950932887378 0.19 0  0.5701267910515998 0.19 0  0.5626584888145268 0.19 0  0.5551901865773963 0.19 0  0.547721884340339 0.19 0  0.5402535821032429 0.19 0  0.5327852798661811 0.19 0  0.5253169776290537 0.19 0  0.5178486753919799 0.19 0  0.5103803731549078 0.19 0  0.502912070917822 0.19 0  0.4954437686807294 0.19 0  0.4879754664436223 0.19 0  0.4805071642065402 0.19 0  0.4730388619694271 0.19 0  0.4655705597323621 0.19 0  0.4581022574952563 0.19 0  0.4506339552581777 0.19 0  0.4431656530210671 0.19 0  0.4356973507839815 0.19 0  0.4282290485468779 0.19 0  0.4207607463097617 0.19 0  0.4132924440726327 0.19 0  0.4058241418354857 0.19 0  0.3983558395983636 0.19 0  0.3908875373612097 0.19 0  0.3834192351240934 0.19 0  0.3759509328869369 0.19 0  0.3684826306498175 0.19 0  0.361014328412667 0.19 0  0.3535460261755617 0.19 0  0.3460777239384295 0.19 0  0.3386094217012945 0.19 0  0.3311411194641595 0.19 0  0.3236728172270245 0.19 0  0.3162045149898895 0.19 0  0.3087362127527544 0.19 0  0.3012679105156187 0.19 0  0.2937996082784807 0.19 0  0.2863313060413428 0.19 0  0.2788630038042048 0.19 0  0.2713947015670686 0.19 0  0.2639263993299336 0.19 0  0.2564580970927985 0.19 0  0.2607803159922026 0.2000727136295815 0  0.5887803774232762 0.2001272386983733 0  0.5745072403740523 0.2002044435018727 0  0.5511891430099709 0.2001122610077113 0  0.2751288526855082 0.20000000000002 0  0.5365194309847112 0.1999999999999436 0  0.2894621222999649 0.1998691686390484 0  0.5215828265105155 0.1999999999999228 0  0.3127789816668748 0.1998657885438805 0  0.3274069683451451 0.2000000000000796 0  0.5066462220363641 0.199999999999908 0  0.3650630746574081 0.199866017807523 0  0.476773013087985 0.1999999999998713 0  0.3417402379596385 0.1998691686391011 0  0.3796850840047755 0.200000000000134 0  0.4618364086138087 0.1999999999998546 0  0.4917096175621762 0.1999999999998808 0  0.3946216884789568 0.2000000000001512 0  0.446899804139621 0.1999999999998389 0  0.4089549580935208 0.1998691686391595 0  0.4322718174608562 0.200127451265745 0  0.4201487168029707 0.1999966199048527 0  0.3528922713220932 0.2000185703532356 0  0.5633122436674589 0.1999814296467508 0  0.3006558810093873 0.1999966199048318 0  0.5815926498168407 0.1966545283159175 0  0.2677053789419034 0.1964246479135325 0  0.5290511287476175 0.1970915826863981 0  0.5439877332217911 0.197091582686394 0  0.2825131256993216 0.2035478995978015 0  0.3199386661080599 0.202908417313604 0  0.4842413153250809 0.1970915826863873 0  0.5141145242734466 0.1970915826863843 0  0.3722167817676917 0.2029084173136195 0  0.4693047108508938 0.1970915826863783 0  0.3348752705822316 0.202908417313609 0  0.3871533862418661 0.2029084173136212 0  0.4543681063767183 0.1970915826863795 0  0.4991779197992749 0.1970915826863902 0  0.4020059614928624 0.203547899597858 0  0.4394315019025246 0.1970915826863714 0  0.2550657455369551 0.2034088125358657 0  0.2548908499171161 0.1966940311614271 0  0.5946539510196798 0.2024302972968126 0  0.267698176732111 0.2039977513680092 0  0.4261685417851465 0.196409292431739 0  0.3590076176283495 0.196411355804271 0  0.5571672426447437 0.2036011176410121 0  0.3066757059912147 0.1964092924317024 0  0.594380730180568 0.1966558399668133 0  0.4842413153245942 0.2040749161535287 0  0.4693047108503577 0.2040749161535231 0  0.3871533862424271 0.1959250838464788 0  0.372246743208829 0.1959123236376545 0  0.5141145242731028 0.2040749161535395 0  0.4543681063761134 0.2040749161535186 0  0.4019979587101454 0.1959834479682427 0  0.4394608940728603 0.2040870543693135 0  0.5439623148931173 0.2040856076781014 0  0.5290511287473298 0.2040749161535501 0  0.4991779197988497 0.2040749161535382 0  0.3347912413592433 0.1959225448935183 0  0.3199680582793816 0.1959123018030061 0  0.2825051229162361 0.1959834479681729 0  0.3590471196690275 0.2036304442587945 0  0.5571594006495384 0.1963685282145804 0  0.3067669986803285 0.203627750582736 0  0.4262598344738712 0.2036568242185335 0  0.5814408164431408 0.2041285596160068 0  0.5688286748170428 0.1961819304477386 0  0.4145905603063645 0.2038180695522843 0  0.3473758401724931 0.2038180695522752 0  0.2950977245128307 0.2038180695522663 0  0.5688286748170693 0.203818069552238 0  0.2950977245127906 0.1961819304477774 0  0.3473758401723931 0.1961819304478349 0  0.4145905603061963 0.1961819304479011 0  0.2601812407614425 0.2056861609747042
[...]
<PointData  Vectors="f_40-1"> 
<DataArray  type="Float64"  Name="f_40-1"  NumberOfComponents="3" format="ascii">0.0000000000000000e+00 0.0000000000000000e+00 0.0000000000000000e+00  0.0000000000000000e+00 0.0000000000000000e+00 0.0000000000000000e+00  0.0000000000000000e+00 0.0000000000000000e+00 0.0000000000000000e+00  0.0000000000000000e+00 0.0000000000000000e+00 0.0000000000000000e+00  -1.2685891561761973e-06 3.1313594843978448e-08 0.0000000000000000e+00  -1.2644666826124241e-06 -6.7247592616952035e-08 0.0000000000000000e+00  0.0000000000000000e+00 0.0000000000000000e+00 0.0000000000000000e+00  0.0000000000000000e+00 0.0000000000000000e+00 0.0000000000000000e+00  0.0000000000000000e+00 0.0000000000000000e+00 0.0000000000000000e+00  0.0000000000000000e+00 0.0000000000000000e+00 0.0000000000000000e+00  -1.2672366428009468e-06 -1.7930531836275662e-08 0.0000000000000000e+00  0.0000000000000000e+00 0.0000000000000000e+00 0.0000000000000000e+00  0.0000000000000000e+00 0.0000000000000000e+00 0.0000000000000000e+00  0.0000000000000000e+00 0.0000000000000000e+00 0.0000000000000000e+00  0.0000000000000000e+00 0.0000000000000000e+00 0.0000000000000000e+00  0.0000000000000000e+00 0.0000000000000000e+00 0.0000000000000000e+00  0.0000000000000000e+00 0.0000000000000000e+00 0.0000000000000000e+00  0.0000000000000000e+00 0.0000000000000000e+00 0.0000000000000000e+00  0.0000000000000000e+00 0.0000000000000000e+00 0.0000000000000000e+00  0.0000000000000000e+00 0.0000000000000000e+00 0.0000000000000000e+00  0.0000000000000000e+00 0.0000000000000000e+00 0.0000000000000000e+00  0.0000000000000000e+00 0.0000000000000000e+00 0.0000000000000000e+00  0.0000000000000000e+00 0.0000000000000000e+00 0.0000000000000000e+00  0.0000000000000000e+00 0.0000000000000000e+00 0.0000000000000000e+00  0.0000000000000000e+00 0.0000000000000000e+00 0.0000000000000000e+00  0.0000000000000000e+00 0.0000000000000000e+00 0.0000000000000000e+00  0.0000000000000000e+00 0.0000000000000000e+00 0.0000000000000000e+00  0.0000000000000000e+00 0.0000000000000000e+00 0.0000000000000000e+00  0.0000000000000000e+00 0.0000000000000000e+00 0.0000000000000000e+00  0.0000000000000000e+00 0.0000000000000000e+00 0.0000000000000000e+00  0.0000000000000000e+00 0.0000000000000000e+00 0.0000000000000000e+00  0.0000000000000000e+00 0.0000000000000000e+00 0.0000000000000000e+00  0.0000000000000000e+00 0.0000000000000000e+00 0.0000000000000000e+00  0.0000000000000000e+00 0.0000000000000000e+00 0.0000000000000000e+00  0.0000000000000000e+00 0.0000000000000000e+00 0.0000000000000000e+00  0.0000000000000000e+00 0.0000000000000000e+00 0.0000000000000000e+00  0.0000000000000000e+00 0.0000000000000000e+00 0.0000000000000000e+00  0.0000000000000000e+00 0.0000000000000000e+00 0.0000000000000000e+00  0.0000000000000000e+00 0.0000000000000000e+00 0.0000000000000000e+00  0.0000000000000000e+00 0.0000000000000000e+00 0.0000000000000000e+00  0.0000000000000000e+00 0.0000000000000000e+00 0.0000000000000000e+00  0.0000000000000000e+00 0.0000000000000000e+00 0.0000000000000000e+00  0.0000000000000000e+00 0.0000000000000000e+00 0.0000000000000000e+00  0.0000000000000000e+00 0.0000000000000000e+00 0.0000000000000000e+00  0.0000000000000000e+00 0.0000000000000000e+00 0.0000000000000000e+00  0.0000000000000000e+00 0.0000000000000000e+00 0.0000000000000000e+00  0.0000000000000000e+00 0.0000000000000000e+00 0.0000000000000000e+00  0.0000000000000000e+00 0.0000000000000000e+00 0.0000000000000000e+00  0.0000000000000000e+00 0.0000000000000000e+00 0.0000000000000000e+00  0.0000000000000000e+00 0.0000000000000000e+00 0.0000000000000000e+00  0.0000000000000000e+00 0.0000000000000000e+00 0.0000000000000000e+00  0.0000000000000000e+00 0.0000000000000000e+00 0.0000000000000000e+00  0.0000000000000000e+00 0.0000000000000000e+00 0.0000000000000000e+00  0.0000000000000000e+00 0.0000000000000000e+00 0.0000000000000000e+00  0.0000000000000000e+00 0.0000000000000000e+00 0.0000000000000000e+00  0.0000000000000000e+00 0.0000000000000000e+00 0.0000000000000000e+00  0.0000000000000000e+00 0.0000000000000000e+00 0.0000000000000000e+00  0.0000000000000000e+00 0.0000000000000000e+00 0.0000000000000000e+00  0.0000000000000000e+00 0.0000000000000000e+00 0.0000000000000000e+00  0.0000000000000000e+00 0.0000000000000000e+00 0.0000000000000000e+00  0.0000000000000000e+00 0.0000000000000000e+00 0.0000000000000000e+00  0.0000000000000000e+00 0.0000000000000000e+00 0.0000000000000000e+00  0.0000000000000000e+00 0.0000000000000000e+00 0.0000000000000000e+00  0.0000000000000000e+00 0.0000000000000000e+00 0.0000000000000000e+00  0.0000000000000000e+00 0.0000000000000000e+00 0.0000000000000000e+00  0.0000000000000000e+00 0.0000000000000000e+00 0.0000000000000000e+00  0.0000000000000000e+00 0.0000000000000000e+00 0.0000000000000000e+00  0.0000000000000000e+00 0.0000000000000000e+00 0.0000000000000000e+00  0.0000000000000000e+00 0.0000000000000000e+00 0.0000000000000000e+00  0.0000000000000000e+00 0.0000000000000000e+00 0.0000000000000000e+00  0.0000000000000000e+00 0.0000000000000000e+00 0.0000000000000000e+00  0.0000000000000000e+00 0.0000000000000000e+00 0.0000000000000000e+00  0.0000000000000000e+00 0.0000000000000000e+00 0.0000000000000000e+00  0.0000000000000000e+00 0.0000000000000000e+00 0.0000000000000000e+00  0.0000000000000000e+00 0.0000000000000000e+00 0.0000000000000000e+00  0.0000000000000000e+00 0.0000000000000000e+00 0.0000000000000000e+00  0.0000000000000000e+00 0.0000000000000000e+00 0.0000000000000000e+00  0.0000000000000000e+00 0.0000000000000000e+00 0.0000000000000000e+00  0.0000000000000000e+00 0.0000000000000000e+00 0.0000000000000000e+00  0.0000000000000000e+00 0.0000000000000000e+00 0.0000000000000000e+00  0.0000000000000000e+00 0.0000000000000000e+00 0.0000000000000000e+00  0.0000000000000000e+00 0.0000000000000000e+00 0.0000000000000000e+00  0.0000000000000000e+00 0.0000000000000000e+00 0.0000000000000000e+00  0.0000000000000000e+00 0.0000000000000000e+00 0.0000000000000000e+00  0.0000000000000000e+00 0.0000000000000000e+00 0.0000000000000000e+00  0.0000000000000000e+00 0.0000000000000000e+00 0.0000000000000000e+00  0.0000000000000000e+00 0.0000000000000000e+00 0.0000000000000000e+00  0.0000000000000000e+00 0.0000000000000000e+00 0.0000000000000000e+00  0.0000000000000000e+00 0.0000000000000000e+00 0.0000000000000000e+00  0.0000000000000000e+00 0.0000000000000000e+00 0.0000000000000000e+00  0.0000000000000000e+00 0.0000000000000000e+00 0.0000000000000000e+00  0.0000000000000000e+00 0.0000000000000000e+00 0.0000000000000000e+00  0.0000000000000000e+00 0.0000000000000000e+00 0.0000000000000000e+00  0.0000000000000000e+00 0.0000000000000000e+00 0.0000000000000000e+00  0.0000000000000000e+00 0.0000000000000000e+00 0.0000000000000000e+00  0.0000000000000000e+00 0.0000000000000000e+00 0.0000000000000000e+00  0.0000000000000000e+00 0.0000000000000000e+00 0.0000000000000000e+00  0.0000000000000000e+00 0.0000000000000000e+00 0.0000000000000000e+00  0.0000000000000000e+00 0.0000000000000000e+00 0.0000000000000000e+00  0.0000000000000000e+00 0.0000000000000000e+00 0.0000000000000000e+00  0.0000000000000000e+00 0.0000000000000000e+00 0.0000000000000000e+00  0.0000000000000000e+00 0.0000000000000000e+00 0.0000000000000000e+00  0.0000000000000000e+00 0.0000000000000000e+00 0.0000000000000000e+00  0.0000000000000000e+00 0.0000000000000000e+00 0.0000000000000000e+00  0.0000000000000000e+00 0.0000000000000000e+00 0.0000000000000000e+00  0.0000000000000000e+00 0.0000000000000000e+00 0.0000000000000000e+00  0.0000000000000000e+00 0.0000000000000000e+00 0.0000000000000000e+00  0.0000000000000000e+00 0.0000000000000000e+00 0.0000000000000000e+00  0.0000000000000000e+00 0.0000000000000000e+00 0.0000000000000000e+00  0.0000000000000000e+00 0.0000000000000000e+00 0.0000000000000000e+00  0.0000000000000000e+00 0.0000000000000000e+00 0.0000000000000000e+00  0.0000000000000000e+00 0.0000000000000000e+00 0.0000000000000000e+00  0.0000000000000000e+00 0.0000000000000000e+00 0.0000000000000000e+00  0.0000000000000000e+00 0.0000000000000000e+00 0.0000000000000000e+00  0.0000000000000000e+00 0.0000000000000000e+00 0.0000000000000000e+00  0.0000000000000000e+00 0.0000000000000000e+00 0.0000000000000000e+00  0.0000000000000000e+00 0.0000000000000000e+00 0.0000000000000000e+00  0.0000000000000000e+00 0.0000000000000000e+00 0.0000000000000000e+00  0.0000000000000000e+00 0.0000000000000000e+00 0.0000000000000000e+00  0.0000000000000000e+00 0.0000000000000000e+00 0.0000000000000000e+00  0.0000000000000000e+00 0.0000000000000000e+00 0.0000000000000000e+00  0.0000000000000000e+00 0.0000000000000000e+00 0.0000000000000000e+00  0.0000000000000000e+00 0.0000000000000000e+00 0.0000000000000000e+00  0.0000000000000000e+00 0.0000000000000000e+00 0.0000000000000000e+00  0.0000000000000000e+00 0.0000000000000000e+00 0.0000000000000000e+00  0.0000000000000000e+00 0.0000000000000000e+00 0.0000000000000000e+00  0.0000000000000000e+00 0.0000000000000000e+00 0.0000000000000000e+00  0.0000000000000000e+00 0.0000000000000000e+00 0.0000000000000000e+00  0.0000000000000000e+00 0.0000000000000000e+00 0.0000000000000000e+00  0.0000000000000000e+00 0.0000000000000000e+00 0.0000000000000000e+00  0.0000000000000000e+00 0.0000000000000000e+00 0.0000000000000000e+00  0.0000000000000000e+00 0.0000000000000000e+00 0.0000000000000000e+00  0.0000000000000000e+00 0.0000000000000000e+00 0.0000000000000000e+00  0.0000000000000000e+00 0.0000000000000000e+00 0.0000000000000000e+00  0.0000000000000000e+00 0.0000000000000000e+00 0.0000000000000000e+00  0.0000000000000000e+00 0.0000000000000000e+00 0.0000000000000000e+00  0.0000000000000000e+00 0.0000000000000000e+00 0.0000000000000000e+00  0.0000000000000000e+00 0.0000000000000000e+00 0.0000000000000000e+00  0.0000000000000000e+00 0.0000000000000000e+00 0.0000000000000000e+00  0.0000000000000000e+00 0.0000000000000000e+00 0.0000000000000000e+00  0.0000000000000000e+00 0.0000000000000000e+00 0.0000000000000000e+00  0.0000000000000000e+00 0.0000000000000000e+00 0.0000000000000000e+00  0.0000000000000000e+00 0.0000000000000000e+00 0.0000000000000000e+00  -2.6077741208223711e-08 -6.9942729301454158e-08 0.0000000000000000e+00  -5.1273049253315524e-08 -7.5040165223878410e-08 0.0000000000000000e+00  -7.3278250965999767e-08 -7.6351978861210910e-08 0.0000000000000000e+00  -9.3576264790323597e-08 -7.5198564379759086e-08 0.0000000000000000e+00  -1.1327992644584463e-07 -7.4153376305393696e-08 0.0000000000000000e+00  -1.3341219336345913e-07 -7.3671315655759702e-08 0.0000000000000000e+00  -1.5378165558950763e-07 -7.3170323613100360e-08 0.0000000000000000e+00  -1.7464697967377807e-07 -7.2739720287133533e-08 0.0000000000000000e+00  -1.9575252902741854e-07 -7.2370069399032435e-08 0.0000000000000000e+00  -2.1727009140588500e-07 -7.1983058724227519e-08 0.0000000000000000e+00  -2.3912806076781732e-07 -7.1763551817111421e-08 0.0000000000000000e+00  -2.6136970301419791e-07 -7.1438022806654842e-08 0.0000000000000000e+00  -2.8404248389090772e-07 -7.1171183656013317e-08 0.0000000000000000e+00  -3.0700115350975664e-07 -7.0964402768516701e-08 0.0000000000000000e+00  -3.3048741850453517e-07 -7.0701482773663106e-08 0.0000000000000000e+00  -3.5424404075113332e-07 -7.0525278327920594e-08 0.0000000000000000e+00  -3.7841901333083036e-07 -7.0160780846869839e-08 0.0000000000000000e+00  -4.0299920650999719e-07 -6.9962463618690877e-08 0.0000000000000000e+00  -4.2792638473036311e-07 -6.9494486129076958e-08 0.0000000000000000e+00  -4.5323452212006722e-07 -6.9169656763640316e-08 0.0000000000000000e+00  -4.7888878620574236e-07 -6.8566447980932075e-08 0.0000000000000000e+00  -5.0498937784049178e-07 -6.7962433244080543e-08 0.0000000000000000e+00  -5.3128560465681791e-07 -6.7319321663037640e-08 0.0000000000000000e+00  -5.5807333292566390e-07 -6.6526461803134473e-08 0.0000000000000000e+00  -5.8508627777717952e-07 -6.5804725254325078e-08 0.0000000000000000e+00  -6.1248534374642041e-07 -6.4853815350984152e-08 0.0000000000000000e+00  -6.4022925688092301e-07 -6.4145952531186400e-08 0.0000000000000000e+00  -6.6827099872246178e-07 -6.3208959135884007e-08 0.0000000000000000e+00  -6.9666350188449138e-07 -6.2515955173608506e-08 0.0000000000000000e+00  -7.2535236394121302e-07 -6.1714414904245522e-08 0.0000000000000000e+00  -7.5436509223620449e-07 -6.1160784645083522e-08 0.0000000000000000e+00  -7.8372762399749125e-07 -6.0554177567637999e-08 0.0000000000000000e+00  -8.1335776186456166e-07 -6.0262275229921157e-08 0.0000000000000000e+00  -8.4337362613598138e-07 -5.9851249759433966e-08 0.0000000000000000e+00  -8.7376463794679315e-07 -5.9837048070630739e-08 0.0000000000000000e+00  -9.0447279843021585e-07 -5.9774421796599224e-08 0.0000000000000000e+00  -9.3550788718901784e-07 -6.0049596329124725e-08 0.0000000000000000e+00  -9.6688446854200685e-07 -6.0251877595121464e-08 0.0000000000000000e+00  -9.9862089757494601e-07 -6.0736942580865256e-08 0.0000000000000000e+00  -1.0307358684959183e-06 -6.1158749550296171e-08 0.0000000000000000e+00  -1.0632160545446213e-06 -6.1784047628738823e-08 0.0000000000000000e+00  -1.0959661781086168e-06 -6.2400884397113630e-08 0.0000000000000000e+00  -1.1291992798247189e-06 -6.3128782902713636e-08 0.0000000000000000e+00  -1.1626070788838655e-06 -6.3889351552074965e-08 0.0000000000000000e+00  -1.1963959329073200e-06 -6.4614148267546401e-08 0.0000000000000000e+00  -1.2304383348728914e-06 -6.5530374344565749e-08 0.0000000000000000e+00  -1.2661785455550927e-06 -4.2586276876742618e-08 0.0000000000000000e+00  -1.2681463986117623e-06 6.7214903277174362e-09 0.0000000000000000e+00  -1.2344072523322250e-06 3.2680528751902546e-08 0.0000000000000000e+00  -1.2002590334591508e-06 3.4726996547356187e-08 0.0000000000000000e+00  -1.1663459028342817e-06 3.6851431467032393e-08 0.0000000000000000e+00  -1.1327763278053134e-06 3.8870786043352499e-08 0.0000000000000000e+00  -1.0993994815859678e-06 4.0840947264642806e-08 0.0000000000000000e+00  -1.0664834775172631e-06 4.2735183182774239e-08 0.0000000000000000e+00  -1.0337747184122013e-06 4.4546547722421483e-08 0.0000000000000000e+00  -1.0014484117883609e-06 4.6315343206661992e-08 0.0000000000000000e+00  -9.6938971913806622e-07 4.7876043397826985e-08 0.0000000000000000e+00  -9.3769678997760364e-07 4.9477848157712359e-08 0.0000000000000000e+00  -9.0630010130585296e-07 5.0819078291197273e-08 0.0000000000000000e+00  -8.7528710392433235e-07 5.2153801778832479e-08 0.0000000000000000e+00  -8.4456662102335097e-07 5.3190573882078964e-08 0.0000000000000000e+00  -8.1423044622707702e-07 5.4234702635066241e-08 0.0000000000000000e+00  -7.8419926939741901e-07 5.4991934302970304e-08 0.0000000000000000e+00  -7.5457011558745256e-07 5.5789544162382078e-08 0.0000000000000000e+00  -7.2528611628531743e-07 5.6338389263522445e-08 0.0000000000000000e+00  -6.9642204177808206e-07 5.6949089229241766e-08 0.0000000000000000e+00  -6.6791808213995763e-07 5.7321585146565504e-08 0.0000000000000000e+00  -6.3979809172476560e-07 5.7812742483869682e-08 0.0000000000000000e+00  -6.1204829611674485e-07 5.8134700124329271e-08 0.0000000000000000e+00  -5.8467792818237770e-07 5.8622316499726723e-08 0.0000000000000000e+00  -5.5775133745317836e-07 5.9075763891462293e-08 0.0000000000000000e+00  -5.3110012979498630e-07 5.9584794328169913e-08 0.0000000000000000e+00  -5.0496447324501308e-07 6.0180605068849218e-08 0.0000000000000000e+00  -4.7906528491484424e-07 6.0779690407090883e-08 0.0000000000000000e+00  -4.5357545135970475e-07 6.1592910551843506e-08 0.0000000000000000e+00  -4.2842623367401516e-07 6.2275976763991730e-08 0.0000000000000000e+00  -4.0364145364720396e-07 6.3291541402809031e-08 0.0000000000000000e+00  -3.7923018750057692e-07 6.4105318276993928e-08 0.0000000000000000e+00  -3.5515402081805296e-07 6.5184836632840071e-08 0.0000000000000000e+00  -3.3146623842284615e-07 6.6125943014893444e-08 0.0000000000000000e+00  -3.0799763628758950e-07 6.7175571028408967e-08 0.0000000000000000e+00  -2.8501923261808297e-07 6.8176783595873434e-08 0.0000000000000000e+00  -2.6227534073838226e-07 6.9190715365563670e-08 0.0000000000000000e+00  -2.3995097613107228e-07 7.0201262178474122e-08 0.0000000000000000e+00  -2.1797037748356209e-07 7.1008462378049536e-08 0.0000000000000000e+00  -1.9634123428537411e-07 7.1922102882593574e-08 0.0000000000000000e+00  -1.7509234107772259e-07 7.2681196210231775e-08 0.0000000000000000e+00  -1.5409669161685828e-07 7.3406776602623322e-08 0.0000000000000000e+00  -1.3359549263465085e-07 7.4073284994958704e-08 0.0000000000000000e+00  -1.1329830429518672e-07 7.4618699477810619e-08 0.0000000000000000e+00  -9.3483864522865181e-08 7.5663021326056748e-08 0.0000000000000000e+00  -7.3018120495459665e-08 7.6559475975593338e-08 0.0000000000000000e+00  -5.1106493860135015e-08 7.5021688671107263e-08 0.0000000000000000e+00  -2.6230042612961124e-08 6.9498937820271235e-08 0.0000000000000000e+00  -5.3599744990241934e-08 -5.0047958716659636e-10 0.0000000000000000e+00  -1.2154023029577714e-06 -1.6270214489813565e-08 0.0000000000000000e+00  -1.1503910909975226e-06 -1.3928860115455271e-08 0.0000000000000000e+00  -1.0471694359488151e-06 -9.3972768905216851e-09 0.0000000000000000e+00  -8.3582822348310487e-08 1.5871262245674449e-10 0.0000000000000000e+00  -9.8392572629750524e-07 -6.6116833535908985e-09 0.0000000000000000e+00  -1.2152409729996187e-07 1.2374750179298977e-09 0.0000000000000000e+00  -9.2082581674537701e-07 -4.7849516800567505e-09 0.0000000000000000e+00  -1.8614798646060702e-07 8.7618281160431967e-10 0.0000000000000000e+00  -2.2842473910774700e-07 -6.0320564853468613e-10 0.0000000000000000e+00  -8.5908174032929496e-07 -3.4973714841967003e-09 0.0000000000000000e+00  -3.4363305516446058e-07 -1.6012974467354261e-09 0.0000000000000000e+00  -7.3972927347636866e-07 -2.6150206135010258e-09 0.0000000000000000e+00  -2.7115043829818227e-07 -3.4334814892626873e-10 0.0000000000000000e+00  -3.9090585564705561e-07 -3.2249236178796735e-09 0.0000000000000000e+00  -6.8214792424092951e-07 -2.8320395401169043e-09 0.0000000000000000e+00  -7.9871047038645237e-07 -2.7925333895902727e-09 0.0000000000000000e+00  -4.4061319268046483e-07 -3.7400130144663937e-09 0.0000000000000000e+00  -6.2597363354180291e-07 -3.2607894049816312e-09 0.0000000000000000e+00  -4.8966098651685800e-07 -3.0993799128582638e-09 0.0000000000000000e+00  -5.7231386663912904e-07 -4.4740083396832953e-09 0.0000000000000000e+00  -5.2898099457602933e-07 -3.8775448543497902e-09 0.0000000000000000e+00  -3.0543268824033418e-07 -1.9875851351014989e-09 0.0000000000000000e+00  -1.1005361855076109e-06 -1.0772395927791241e-08 0.0000000000000000e+00  -1.5221624601332101e-07 1.7415444888642587e-10 0.0000000000000000e+00  -1.1831811784170139e-06 2.4391655841555715e-09 0.0000000000000000e+00  -6.6066361022365922e-08 2.8600443071147082e-08 0.0000000000000000e+00  -9.5257672542471339e-07 1.0174980832902456e-08 0.0000000000000000e+00  -1.0164338103501769e-06 7.7742020205504327e-09 0.0000000000000000e+00  -1.0298912321212552e-07 -2.6291943608141092e-08 0.0000000000000000e+00  -2.0661182275020651e-07 -2.1211837661997299e-08 0.0000000000000000e+00  -7.6912962782664315e-07 1.4249190671790460e-08 0.0000000000000000e+00  -8.9005936065144872e-07 1.2108337435709117e-08 0.0000000000000000e+00  -3.6649940205609355e-07 -2.2504400474779046e-08 0.0000000000000000e+00  -7.1077544838565042e-07 1.4581048890899507e-08 0.0000000000000000e+00  -2.5042763559245931e-07 -2.1481010398097510e-08 0.0000000000000000e+00  -4.1553233809613107e-07 -2.2784180120187740e-08 0.0000000000000000e+00  -6.5386444126181457e-07 1.4596779320914146e-08 0.0000000000000000e+00  -8.2890610233157965e-07 1.3460896379769347e-08 0.0000000000000000e+00  -4.6571451839093496e-07 -2.6962217855971094e-08 0.0000000000000000e+00  -5.9838361459341415e-07 1.4505233393078725e-08 0.0000000000000000e+00  -3.3950060724838765e-08 -1.6562549395979905e-08 0.0000000000000000e+00  -3.3041375735364301e-08 1.4838069603773693e-08 0.0000000000000000e+00  -1.2420549602550501e-06 -2.8771427925530829e-08 0.0000000000000000e+00 