<?xml version="1.0"?>
<VTKFile type="UnstructuredGrid"  version="0.1"  >
<UnstructuredGrid>
<Piece  NumberOfPoints="1419" NumberOfCells="2698">
<Points>
<DataArray  type="Float64"  NumberOfComponents="3"  format="ascii">0 0 0  0 0.41 0  2.5 0 0  2.5 0.41 0  0.6 0.19 0  0.6 0.21 0  0.25 0.2 0  0.15 0.2 0  0.2489897948556636 0.21 0  0.2489897948556636 0.19 0  0.6 0.2 0  0 0.3807142857143437 0  0 0.3514285714286952 0  0 0.3221428571430699 0  0 0.29285714285744 0  0 0.2635714285718054 0  0 0.2342857142861561 0  0 0.2050000000005308 0  0 0.175714285714732 0  0 0.1464285714289574 0  0 0.1171428571431897 0  0 0.08785714285737878 0  0 0.05857142857161107 0  0 0.02928571428580012 0  0.03015443760436003 0 0  0.06140001986583606 0 0  0.09377624077125973 0 0  0.1273239957535082 0 0  0.1620856860351972 0 0  0.1981052433264291 0 0  0.235428184091502 0 0  0.2741016576309132 0 0  0.3141745521465447 0 0  0.3556974926295285 0 0  0.3987229542472677 0 0  0.4433053055141081 0 0  0.4895008759286886 0 0  0.5373680609405097 0 0  0.5869673343216626 0 0  0.6383613676634521 0 0  0.6916151138468254 0 0  0.7467958595648856 0 0  0.8039733463919316 0 0  0.8632198139502143 0 0  0.9246101326867038 0 0  0.9882218810934433 0 0  1.054135445558498 0 0  1.122434100542598 0 0  1.193204177141305 0 0  1.266535089879536 0 0  1.342519516046404 0 0  1.421253448503939 0 0  1.502836389106271 0 0  1.587371439758838 0 0  1.674965418777374 0 0  1.765729001825544 0 0  1.859776908880082 0 0  1.957227977487062 0 0  2.058205329869943 0 0  2.162836591189951 0 0  2.271253957290865 0 0  2.383594446803425 0 0  2.5 0.1024999999997612 0  2.5 0.2049999999994743 0  2.5 0.3074999999997183 0  2.383594446803656 0.41 0  2.271253957291315 0.41 0  2.162836591190598 0.41 0  2.058205329870775 0.41 0  1.957227977488067 0.41 0  1.859776908881246 0.41 0  1.765729001826854 0.41 0  1.674965418778818 0.41 0  1.58737143976041 0.41 0  1.502836389107956 0.41 0  1.421253448505726 0.41 0  1.342519516048286 0.41 0  1.266535089881505 0.41 0  1.193204177143353 0.41 0  1.122434100544716 0.41 0  1.05413544556068 0.41 0  0.9882218810956305 0.41 0  0.9246101326886647 0.41 0  0.8632198139519631 0.41 0  0.8039733463934788 0.41 0  0.7467958595662458 0.41 0  0.6916151138480078 0.41 0  0.6383613676644679 0.41 0  0.5869673343225223 0.41 0  0.5373680609412221 0.41 0  0.4895008759292634 0.41 0  0.4433053055145528 0.41 0  0.3987229542475914 0.41 0  0.3556974926297398 0.41 0  0.3141745521466497 0.41 0  0.2741016576310038 0.41 0  0.2354281840915826 0.41 0  0.1981052433265003 0.41 0  0.1620856860352591 0.41 0  0.1273239957535623 0.41 0  0.09377624077128965 0.41 0  0.06140001986584975 0.41 0  0.03015443760436654 0.41 0  0.2497468076502589 0.2050254481002335 0  0.2497468076502614 0.1949745518997913 0  0.2469965252529372 0.1829317073451959 0  0.2439893735792749 0.1762316384219906 0  0.2400332147834255 0.1700443375285386 0  0.2352133972704371 0.1645032867342007 0  0.2296339016332438 0.1597280261969788 0  0.2234150974217223 0.1558215752574715 0  0.2166911463437691 0.1528682099456123 0  0.2096071079204251 0.1509316448471593 0  0.2023158100364996 0.1500536585536553 0  0.194974551899914 0.1502531923497262 0  0.1877417105387872 0.1515259415822739 0  0.1807733240461124 0.153844448527136 0  0.1742197252835808 0.15715869474974 0  0.1682222986673531 0.1613971801805478 0  0.162910430003803 0.1664684656256651 0  0.1583987151779087 0.1722631454351573 0  0.1547844879126891 0.178656207771761 0  0.1521457199348551 0.1855097315605723 0  0.1505393388476355 0.1926758619366523 0  0.1505393388476328 0.2073241380633295 0  0.1521457199348437 0.2144902684393899 0  0.1547844879126531 0.221343792228163 0  0.1583987151778488 0.2277368545647528 0  0.1629104300036858 0.2335315343742052 0  0.1682222986671726 0.2386028198193036 0  0.1742197252833576 0.2428413052501257 0  0.1807733240458683 0.2461555514727623 0  0.1877417105384929 0.2484740584176516 0  0.1949745518995776 0.2497468076502398 0  0.202315810036185 0.2499463414463592 0  0.2096071079201568 0.2490683551528932 0  0.2166911463435495 0.2471317900544655 0  0.2234150974215506 0.2441784247426195 0  0.2296339016331197 0.2402719738031125 0  0.2352133972703547 0.2354967132658811 0  0.2400332147833751 0.2299556624715287 0  0.2439893735792577 0.2237683615780412 0  0.246996525252926 0.2170682926548348 0  0.25645809709277 0.21 0  0.2639263993298655 0.21 0  0.271394701566961 0.21 0  0.2788630038040554 0.21 0  0.2863313060411479 0.21 0  0.2937996082782405 0.21 0  0.301267910515333 0.21 0  0.3087362127524279 0.21 0  0.3162045149895234 0.21 0  0.3236728172265972 0.21 0  0.3311411194636928 0.21 0  0.3386094217007701 0.21 0  0.3460777239378666 0.21 0  0.3535460261749672 0.21 0  0.3610143284120516 0.21 0  0.3684826306491596 0.21 0  0.3759509328862226 0.21 0  0.383419235123329 0.21 0  0.3908875373604028 0.21 0  0.3983558395975142 0.21 0  0.4058241418345938 0.21 0  0.4132924440716992 0.21 0  0.4207607463087888 0.21 0  0.4282290485459029 0.21 0  0.4356973507830418 0.21 0  0.4431656530201649 0.21 0  0.4506339552573136 0.21 0  0.4581022574944306 0.21 0  0.4655705597315852 0.21 0  0.4730388619686996 0.21 0  0.480507164205851 0.21 0  0.4879754664429498 0.21 0  0.4954437686800938 0.21 0  0.502912070917267 0.21 0  0.5103803731544119 0.21 0  0.5178486753915261 0.21 0  0.5253169776286404 0.21 0  0.5327852798657868 0.21 0  0.5402535821029386 0.21 0  0.54772188434007 0.21 0  0.5551901865771842 0.21 0  0.5626584888143201 0.21 0  0.5701267910514778 0.21 0  0.5775950932886138 0.21 0  0.5850633955257281 0.21 0  0.5925316977628483 0.21 0  0.6 0.2050000000000054 0  0.6 0.1950000000000217 0  0.5925316977628897 0.19 0  0.5850633955257988 0.19 0  0.5775950932887378 0.19 0  0.5701267910515998 0.19 0  0.5626584888145268 0.19 0  0.5551901865773963 0.19 0  0.547721884340339 0.19 0  0.5402535821032429 0.19 0  0.5327852798661811 0.19 0  0.5253169776290537 0.19 0  0.5178486753919799 0.19 0  0.5103803731549078 0.19 0  0.502912070917822 0.19 0  0.4954437686807294 0.19 0  0.4879754664436223 0.19 0  0.4805071642065402 0.19 0  0.4730388619694271 0.19 0  0.4655705597323621 0.19 0  0.4581022574952563 0.19 0  0.4506339552581777 0.19 0  0.4431656530210671 0.19 0  0.4356973507839815 0.19 0  0.4282290485468779 0.19 0  0.4207607463097617 0.19 0  0.4132924440726327 0.19 0  0.4058241418354857 0.19 0  0.3983558395983636 0.19 0  0.3908875373612097 0.19 0  0.3834192351240934 0.19 0  0.3759509328869369 0.19 0  0.3684826306498175 0.19 0  0.361014328412667 0.19 0  0.3535460261755617 0.19 0  0.3460777239384295 0.19 0  0.3386094217012945 0.19 0  0.3311411194641595 0.19 0  0.3236728172270245 0.19 0  0.3162045149898895 0.19 0  0.3087362127527544 0.19 0  0.3012679105156187 0.19 0  0.2937996082784807 0.19 0  0.2863313060413428 0.19 0  0.2788630038042048 0.19 0  0.2713947015670686 0.19 0  0.2639263993299336 0.19 0  0.2564580970927985 0.19 0  0.2607803159922026 0.2000727136295815 0  0.5887803774232762 0.2001272386983733 0  0.5745072403740523 0.2002044435018727 0  0.5511891430099709 0.2001122610077113 0  0.2751288526855082 0.20000000000002 0  0.5365194309847112 0.1999999999999436 0  0.2894621222999649 0.1998691686390484 0  0.5215828265105155 0.1999999999999228 0  0.3127789816668748 0.1998657885438805 0  0.3274069683451451 0.2000000000000796 0  0.5066462220363641 0.199999999999908 0  0.3650630746574081 0.199866017807523 0  0.476773013087985 0.1999999999998713 0  0.3417402379596385 0.1998691686391011 0  0.3796850840047755 0.200000000000134 0  0.4618364086138087 0.1999999999998546 0  0.4917096175621762 0.1999999999998808 0  0.3946216884789568 0.2000000000001512 0  0.446899804139621 0.1999999999998389 0  0.4089549580935208 0.1998691686391595 0  0.4322718174608562 0.200127451265745 0  0.4201487168029707 0.1999966199048527 0  0.3528922713220932 0.2000185703532356 0  0.5633122436674589 0.1999814296467508 0  0.3006558810093873 0.1999966199048318 0  0.5815926498168407 0.1966545283159175 0  0.2677053789419034 0.1964246479135325 0  0.5290511287476175 0.1970915826863981 0  0.5439877332217911 0.197091582686394 0  0.2825131256993216 0.2035478995978015 0  0.3199386661080599 0.202908417313604 0  0.4842413153250809 0.1970915826863873 0  0.5141145242734466 0.1970915826863843 0  0.3722167817676917 0.2029084173136195 0  0.4693047108508938 0.1970915826863783 0  0.3348752705822316 0.202908417313609 0  0.3871533862418661 0.2029084173136212 0  0.4543681063767183 0.1970915826863795 0  0.4991779197992749 0.1970915826863902 0  0.4020059614928624 0.203547899597858 0  0.4394315019025246 0.1970915826863714 0  0.2550657455369551 0.2034088125358657 0  0.2548908499171161 0.1966940311614271 0  0.5946539510196798 0.2024302972968126 0  0.267698176732111 0.2039977513680092 0  0.4261685417851465 0.196409292431739 0  0.3590076176283495 0.196411355804271 0  0.5571672426447437 0.2036011176410121 0  0.3066757059912147 0.1964092924317024 0  0.594380730180568 0.1966558399668133 0  0.4842413153245942 0.2040749161535287 0  0.4693047108503577 0.2040749161535231 0  0.3871533862424271 0.1959250838464788 0  0.372246743208829 0.1959123236376545 0  0.5141145242731028 0.2040749161535395 0  0.4543681063761134 0.2040749161535186 0  0.4019979587101454 0.1959834479682427 0  0.4394608940728603 0.2040870543693135 0  0.5439623148931173 0.2040856076781014 0  0.5290511287473298 0.2040749161535501 0  0.4991779197988497 0.2040749161535382 0  0.3347912413592433 0.1959225448935183 0  0.3199680582793816 0.1959123018030061 0  0.2825051229162361 0.1959834479681729 0  0.3590471196690275 0.2036304442587945 0  0.5571594006495384 0.1963685282145804 0  0.3067669986803285 0.203627750582736 0  0.4262598344738712 0.2036568242185335 0  0.5814408164431408 0.2041285596160068 0  0.5688286748170428 0.1961819304477386 0  0.4145905603063645 0.2038180695522843 0  0.3473758401724931 0.2038180695522752 0  0.2950977245128307 0.2038180695522663 0  0.5688286748170693 0.203818069552238 0  0.2950977245127906 0.1961819304477774 0  0.3473758401723931 0.1961819304478349 0  0.4145905603061963 0.1961819304479011 0  0.2601812407614425 0.2056861609747042
[...]
<PointData  Vectors="f_40-1"> 
<DataArray  type="Float64"  Name="f_40-1"  NumberOfComponents="3" format="ascii">0.0000000000000000e+00 0.0000000000000000e+00 0.0000000000000000e+00  0.0000000000000000e+00 0.0000000000000000e+00 0.0000000000000000e+00  0.0000000000000000e+00 0.0000000000000000e+00 0.0000000000000000e+00  0.0000000000000000e+00 0.0000000000000000e+00 0.0000000000000000e+00  -3.3771350947499090e-06 -1.9859098736228307e-07 0.0000000000000000e+00  -3.3241915489997629e-06 -5.3837862715721226e-07 0.0000000000000000e+00  0.0000000000000000e+00 0.0000000000000000e+00 0.0000000000000000e+00  0.0000000000000000e+00 0.0000000000000000e+00 0.0000000000000000e+00  0.0000000000000000e+00 0.0000000000000000e+00 0.0000000000000000e+00  0.0000000000000000e+00 0.0000000000000000e+00 0.0000000000000000e+00  -3.3582213942634440e-06 -3.6837386936451736e-07 0.0000000000000000e+00  0.0000000000000000e+00 0.0000000000000000e+00 0.0000000000000000e+00  0.0000000000000000e+00 0.0000000000000000e+00 0.0000000000000000e+00  0.0000000000000000e+00 0.0000000000000000e+00 0.0000000000000000e+00  0.0000000000000000e+00 0.0000000000000000e+00 0.0000000000000000e+00  0.0000000000000000e+00 0.0000000000000000e+00 0.0000000000000000e+00  0.0000000000000000e+00 0.0000000000000000e+00 0.0000000000000000e+00  0.0000000000000000e+00 0.0000000000000000e+00 0.0000000000000000e+00  0.0000000000000000e+00 0.0000000000000000e+00 0.0000000000000000e+00  0.0000000000000000e+00 0.0000000000000000e+00 0.0000000000000000e+00  0.0000000000000000e+00 0.0000000000000000e+00 0.0000000000000000e+00  0.0000000000000000e+00 0.0000000000000000e+00 0.0000000000000000e+00  0.0000000000000000e+00 0.0000000000000000e+00 0.0000000000000000e+00  0.0000000000000000e+00 0.0000000000000000e+00 0.0000000000000000e+00  0.0000000000000000e+00 0.0000000000000000e+00 0.0000000000000000e+00  0.0000000000000000e+00 0.0000000000000000e+00 0.0000000000000000e+00  0.0000000000000000e+00 0.0000000000000000e+00 0.0000000000000000e+00  0.0000000000000000e+00 0.0000000000000000e+00 0.0000000000000000e+00  0.0000000000000000e+00 0.0000000000000000e+00 0.0000000000000000e+00  0.0000000000000000e+00 0.0000000000000000e+00 0.0000000000000000e+00  0.0000000000000000e+00 0.0000000000000000e+00 0.0000000000000000e+00  0.0000000000000000e+00 0.0000000000000000e+00 0.0000000000000000e+00  0.0000000000000000e+00 0.0000000000000000e+00 0.0000000000000000e+00  0.0000000000000000e+00 0.0000000000000000e+00 0.0000000000000000e+00  0.0000000000000000e+00 0.0000000000000000e+00 0.0000000000000000e+00  0.0000000000000000e+00 0.0000000000000000e+00 0.0000000000000000e+00  0.0000000000000000e+00 0.0000000000000000e+00 0.0000000000000000e+00  0.0000000000000000e+00 0.0000000000000000e+00 0.0000000000000000e+00  0.0000000000000000e+00 0.0000000000000000e+00 0.0000000000000000e+00  0.0000000000000000e+00 0.0000000000000000e+00 0.0000000000000000e+00  0.0000000000000000e+00 0.0000000000000000e+00 0.0000000000000000e+00  0.0000000000000000e+00 0.0000000000000000e+00 0.0000000000000000e+00  0.0000000000000000e+00 0.0000000000000000e+00 0.0000000000000000e+00  0.0000000000000000e+00 0.0000000000000000e+00 0.0000000000000000e+00  0.0000000000000000e+00 0.0000000000000000e+00 0.0000000000000000e+00  0.0000000000000000e+00 0.0000000000000000e+00 0.0000000000000000e+00  0.0000000000000000e+00 0.0000000000000000e+00 0.0000000000000000e+00  0.0000000000000000e+00 0.0000000000000000e+00 0.0000000000000000e+00  0.0000000000000000e+00 0.0000000000000000e+00 0.0000000000000000e+00  0.0000000000000000e+00 0.0000000000000000e+00 0.0000000000000000e+00  0.0000000000000000e+00 0.0000000000000000e+00 0.0000000000000000e+00  0.0000000000000000e+00 0.0000000000000000e+00 0.0000000000000000e+00  0.0000000000000000e+00 0.0000000000000000e+00 0.0000000000000000e+00  0.0000000000000000e+00 0.0000000000000000e+00 0.0000000000000000e+00  0.0000000000000000e+00 0.0000000000000000e+00 0.0000000000000000e+00  0.0000000000000000e+00 0.0000000000000000e+00 0.0000000000000000e+00  0.0000000000000000e+00 0.0000000000000000e+00 0.0000000000000000e+00  0.0000000000000000e+00 0.0000000000000000e+00 0.0000000000000000e+00  0.0000000000000000e+00 0.0000000000000000e+00 0.0000000000000000e+00  0.0000000000000000e+00 0.0000000000000000e+00 0.0000000000000000e+00  0.0000000000000000e+00 0.0000000000000000e+00 0.0000000000000000e+00  0.0000000000000000e+00 0.0000000000000000e+00 0.0000000000000000e+00  0.0000000000000000e+00 0.0000000000000000e+00 0.0000000000000000e+00  0.0000000000000000e+00 0.0000000000000000e+00 0.0000000000000000e+00  0.0000000000000000e+00 0.0000000000000000e+00 0.0000000000000000e+00  0.0000000000000000e+00 0.0000000000000000e+00 0.0000000000000000e+00  0.0000000000000000e+00 0.0000000000000000e+00 0.0000000000000000e+00  0.0000000000000000e+00 0.0000000000000000e+00 0.0000000000000000e+00  0.0000000000000000e+00 0.0000000000000000e+00 0.0000000000000000e+00  0.0000000000000000e+00 0.0000000000000000e+00 0.0000000000000000e+00  0.0000000000000000e+00 0.0000000000000000e+00 0.0000000000000000e+00  0.0000000000000000e+00 0.0000000000000000e+00 0.0000000000000000e+00  0.0000000000000000e+00 0.0000000000000000e+00 0.0000000000000000e+00  0.0000000000000000e+00 0.0000000000000000e+00 0.0000000000000000e+00  0.0000000000000000e+00 0.0000000000000000e+00 0.0000000000000000e+00  0.0000000000000000e+00 0.0000000000000000e+00 0.0000000000000000e+00  0.0000000000000000e+00 0.0000000000000000e+00 0.0000000000000000e+00  0.0000000000000000e+00 0.0000000000000000e+00 0.0000000000000000e+00  0.0000000000000000e+00 0.0000000000000000e+00 0.0000000000000000e+00  0.0000000000000000e+00 0.0000000000000000e+00 0.0000000000000000e+00  0.0000000000000000e+00 0.0000000000000000e+00 0.0000000000000000e+00  0.0000000000000000e+00 0.0000000000000000e+00 0.0000000000000000e+00  0.0000000000000000e+00 0.0000000000000000e+00 0.0000000000000000e+00  0.0000000000000000e+00 0.0000000000000000e+00 0.0000000000000000e+00  0.0000000000000000e+00 0.0000000000000000e+00 0.0000000000000000e+00  0.0000000000000000e+00 0.0000000000000000e+00 0.0000000000000000e+00  0.0000000000000000e+00 0.0000000000000000e+00 0.0000000000000000e+00  0.0000000000000000e+00 0.0000000000000000e+00 0.0000000000000000e+00  0.0000000000000000e+00 0.0000000000000000e+00 0.0000000000000000e+00  0.0000000000000000e+00 0.0000000000000000e+00 0.0000000000000000e+00  0.0000000000000000e+00 0.0000000000000000e+00 0.0000000000000000e+00  0.0000000000000000e+00 0.0000000000000000e+00 0.0000000000000000e+00  0.0000000000000000e+00 0.0000000000000000e+00 0.0000000000000000e+00  0.0000000000000000e+00 0.0000000000000000e+00 0.0000000000000000e+00  0.0000000000000000e+00 0.0000000000000000e+00 0.0000000000000000e+00  0.0000000000000000e+00 0.0000000000000000e+00 0.0000000000000000e+00  0.0000000000000000e+00 0.0000000000000000e+00 0.0000000000000000e+00  0.0000000000000000e+00 0.0000000000000000e+00 0.0000000000000000e+00  0.0000000000000000e+00 0.0000000000000000e+00 0.0000000000000000e+00  0.0000000000000000e+00 0.0000000000000000e+00 0.0000000000000000e+00  0.0000000000000000e+00 0.0000000000000000e+00 0.0000000000000000e+00  0.0000000000000000e+00 0.0000000000000000e+00 0.0000000000000000e+00  0.0000000000000000e+00 0.0000000000000000e+00 0.0000000000000000e+00  0.0000000000000000e+00 0.0000000000000000e+00 0.0000000000000000e+00  0.0000000000000000e+00 0.0000000000000000e+00 0.0000000000000000e+00  0.0000000000000000e+00 0.0000000000000000e+00 0.0000000000000000e+00  0.0000000000000000e+00 0.0000000000000000e+00 0.0000000000000000e+00  0.0000000000000000e+00 0.0000000000000000e+00 0.0000000000000000e+00  0.0000000000000000e+00 0.0000000000000000e+00 0.0000000000000000e+00  0.0000000000000000e+00 0.0000000000000000e+00 0.0000000000000000e+00  0.0000000000000000e+00 0.0000000000000000e+00 0.0000000000000000e+00  0.0000000000000000e+00 0.0000000000000000e+00 0.0000000000000000e+00  0.0000000000000000e+00 0.0000000000000000e+00 0.0000000000000000e+00  0.0000000000000000e+00 0.0000000000000000e+00 0.0000000000000000e+00  0.0000000000000000e+00 0.0000000000000000e+00 0.0000000000000000e+00  0.0000000000000000e+00 0.0000000000000000e+00 0.0000000000000000e+00  0.0000000000000000e+00 0.0000000000000000e+00 0.0000000000000000e+00  0.0000000000000000e+00 0.0000000000000000e+00 0.0000000000000000e+00  0.0000000000000000e+00 0.0000000000000000e+00 0.0000000000000000e+00  0.0000000000000000e+00 0.0000000000000000e+00 0.0000000000000000e+00  0.0000000000000000e+00 0.0000000000000000e+00 0.0000000000000000e+00  0.0000000000000000e+00 0.0000000000000000e+00 0.0000000000000000e+00  0.0000000000000000e+00 0.0000000000000000e+00 0.0000000000000000e+00  0.0000000000000000e+00 0.0000000000000000e+00 0.0000000000000000e+00  0.0000000000000000e+00 0.0000000000000000e+00 0.0000000000000000e+00  0.0000000000000000e+00 0.0000000000000000e+00 0.0000000000000000e+00  0.0000000000000000e+00 0.0000000000000000e+00 0.0000000000000000e+00  0.0000000000000000e+00 0.0000000000000000e+00 0.0000000000000000e+00  0.0000000000000000e+00 0.0000000000000000e+00 0.0000000000000000e+00  0.0000000000000000e+00 0.0000000000000000e+00 0.0000000000000000e+00  0.0000000000000000e+00 0.0000000000000000e+00 0.0000000000000000e+00  0.0000000000000000e+00 0.0000000000000000e+00 0.0000000000000000e+00  0.0000000000000000e+00 0.0000000000000000e+00 0.0000000000000000e+00  0.0000000000000000e+00 0.0000000000000000e+00 0.0000000000000000e+00  0.0000000000000000e+00 0.0000000000000000e+00 0.0000000000000000e+00  0.0000000000000000e+00 0.0000000000000000e+00 0.0000000000000000e+00  0.0000000000000000e+00 0.0000000000000000e+00 0.0000000000000000e+00  0.0000000000000000e+00 0.0000000000000000e+00 0.0000000000000000e+00  0.0000000000000000e+00 0.0000000000000000e+00 0.0000000000000000e+00  0.0000000000000000e+00 0.0000000000000000e+00 0.0000000000000000e+00  0.0000000000000000e+00 0.0000000000000000e+00 0.0000000000000000e+00  0.0000000000000000e+00 0.0000000000000000e+00 0.0000000000000000e+00  0.0000000000000000e+00 0.0000000000000000e+00 0.0000000000000000e+00  -6.2247199636459533e-08 -2.5801210063496047e-07 0.0000000000000000e+00  -1.1957549092868887e-07 -2.7617206695582400e-07 0.0000000000000000e+00  -1.6451787567684684e-07 -2.7973159858149151e-07 0.0000000000000000e+00  -2.0331627759843682e-07 -2.7427182193115774e-07 0.0000000000000000e+00  -2.4005252999535080e-07 -2.6894466741350593e-07 0.0000000000000000e+00  -2.7860012486419510e-07 -2.6575480002028745e-07 0.0000000000000000e+00  -3.1815885002279482e-07 -2.6245451298875843e-07 0.0000000000000000e+00  -3.5975424064119325e-07 -2.5950891959681928e-07 0.0000000000000000e+00  -4.0236231952463157e-07 -2.5689109423075678e-07 0.0000000000000000e+00  -4.4685688287850328e-07 -2.5431109153375653e-07 0.0000000000000000e+00  -4.9275324756420906e-07 -2.5277065401046122e-07 0.0000000000000000e+00  -5.4045063127384015e-07 -2.5100724925775689e-07 0.0000000000000000e+00  -5.8991295582666534e-07 -2.4993277104212259e-07 0.0000000000000000e+00  -6.4080177207212289e-07 -2.4953175121794378e-07 0.0000000000000000e+00  -6.9394096602264605e-07 -2.4937473263989012e-07 0.0000000000000000e+00  -7.4818596198755676e-07 -2.5020390427915027e-07 0.0000000000000000e+00  -8.0458547694036479e-07 -2.5070514422926457e-07 0.0000000000000000e+00  -8.6259926127433468e-07 -2.5281424324836868e-07 0.0000000000000000e+00  -9.2254689648894472e-07 -2.5430417097133586e-07 0.0000000000000000e+00  -9.8403937667383644e-07 -2.5736419442759450e-07 0.0000000000000000e+00  -1.0474744019615123e-06 -2.5987054716451655e-07 0.0000000000000000e+00  -1.1128833502045694e-06 -2.6334731717406135e-07 0.0000000000000000e+00  -1.1795921465151999e-06 -2.6736355517507759e-07 0.0000000000000000e+00  -1.2486216133517983e-06 -2.7148059004414933e-07 0.0000000000000000e+00  -1.3187681603210000e-06 -2.7671179413497617e-07 0.0000000000000000e+00  -1.3910682828376748e-06 -2.8140681961190960e-07 0.0000000000000000e+00  -1.4652231422446223e-06 -2.8798694446036903e-07 0.0000000000000000e+00  -1.5410466187177976e-06 -2.9383065787034142e-07 0.0000000000000000e+00  -1.6187393656894560e-06 -3.0130881614177403e-07 0.0000000000000000e+00  -1.6981143137512791e-06 -3.0850872295631864e-07 0.0000000000000000e+00  -1.7792329365623851e-06 -3.1716370537309224e-07 0.0000000000000000e+00  -1.8622837189337219e-06 -3.2562561024012044e-07 0.0000000000000000e+00  -1.9468235357289939e-06 -3.3577588176211138e-07 0.0000000000000000e+00  -2.0333976050452366e-06 -3.4530172074142858e-07 0.0000000000000000e+00  -2.1219324345878236e-06 -3.5684078960071890e-07 0.0000000000000000e+00  -2.2121893422679528e-06 -3.6802944840579872e-07 0.0000000000000000e+00  -2.3042112682716084e-06 -3.8091452313584035e-07 0.0000000000000000e+00  -2.3980871091241429e-06 -3.9346594501468723e-07 0.0000000000000000e+00  -2.4938770923008101e-06 -4.0751422459757698e-07 0.0000000000000000e+00  -2.5917134570037724e-06 -4.2127848788821007e-07 0.0000000000000000e+00  -2.6915355080095825e-06 -4.3615807263903496e-07 0.0000000000000000e+00  -2.7929570586725510e-06 -4.5105095381693995e-07 0.0000000000000000e+00  -2.8968627831054827e-06 -4.6665315296412833e-07 0.0000000000000000e+00  -3.0018442681769391e-06 -4.8241095411561265e-07 0.0000000000000000e+00  -3.1090044811871433e-06 -4.9803033445211523e-07 0.0000000000000000e+00  -3.2172201100572414e-06 -5.1515893999214725e-07 0.0000000000000000e+00  -3.3441415704375053e-06 -4.5322637015982750e-07 0.0000000000000000e+00  -3.3699255036499733e-06 -2.8355570004065949e-07 0.0000000000000000e+00  -3.2691316253316888e-06 -1.8255422862123912e-07 0.0000000000000000e+00  -3.1601643690673083e-06 -1.6081745627897797e-07 0.0000000000000000e+00  -3.0521371433021436e-06 -1.3850386026597756e-07 0.0000000000000000e+00  -2.9460450270410254e-06 -1.1693884267151983e-07 0.0000000000000000e+00  -2.8411339124446499e-06 -9.5735014089453615e-08 0.0000000000000000e+00  -2.7386495971622904e-06 -7.5060065514354030e-08 0.0000000000000000e+00  -2.6374060896650504e-06 -5.4911626057235190e-08 0.0000000000000000e+00  -2.5383307331002246e-06 -3.5028196439276313e-08 0.0000000000000000e+00  -2.4407741507238121e-06 -1.6359286897342790e-08 0.0000000000000000e+00  -2.3452383771614218e-06 2.5103994230815429e-09 0.0000000000000000e+00  -2.2513171643393861e-06 1.9958477276234549e-08 0.0000000000000000e+00  -2.1594550898500351e-06 3.7432746060234068e-08 0.0000000000000000e+00  -2.0691481482910269e-06 5.3385622363005311e-08 0.0000000000000000e+00  -1.9808750432773912e-06 6.9430841252203002e-08 0.0000000000000000e+00  -1.8941818570849025e-06 8.3964354772010177e-08 0.0000000000000000e+00  -1.8095281849229715e-06 9.8635031489150532e-08 0.0000000000000000e+00  -1.7265184487373309e-06 1.1190854285962922e-07 0.0000000000000000e+00  -1.6456219872954709e-06 1.2530462151703463e-07 0.0000000000000000e+00  -1.5663459280594658e-06 1.3721426517872309e-07 0.0000000000000000e+00  -1.4890675666691416e-06 1.4934551835277000e-07 0.0000000000000000e+00  -1.4134069148271260e-06 1.6012370217290093e-07 0.0000000000000000e+00  -1.3397372107414447e-06 1.7113672946953543e-07 0.0000000000000000e+00  -1.2679741378209211e-06 1.8126165068045489e-07 0.0000000000000000e+00  -1.1977352377042279e-06 1.9093274886560056e-07 0.0000000000000000e+00  -1.1298610144235235e-06 2.0016324950772811e-07 0.0000000000000000e+00  -1.0630118306613542e-06 2.0866236416266301e-07 0.0000000000000000e+00  -9.9834780509920463e-07 2.1732334108396991e-07 0.0000000000000000e+00  -9.3530175688580321e-07 2.2440812760897690e-07 0.0000000000000000e+00  -8.7415146081526564e-07 2.3231140078323918e-07 0.0000000000000000e+00  -8.1477791340905449e-07 2.3840130707744133e-07 0.0000000000000000e+00  -7.5718124950731576e-07 2.4516734283258745e-07 0.0000000000000000e+00  -7.0145894828249748e-07 2.5047154954794260e-07 0.0000000000000000e+00  -6.4705116012530443e-07 2.5584138458367758e-07 0.0000000000000000e+00  -5.9490445929460271e-07 2.6031831159478522e-07 0.0000000000000000e+00  -5.4388711151041161e-07 2.6449135685052633e-07 0.0000000000000000e+00  -4.9497803061903482e-07 2.6826061136600769e-07 0.0000000000000000e+00  -4.4775805819148231e-07 2.7078580240706844e-07 0.0000000000000000e+00  -4.0228658394410195e-07 2.7361271656539680e-07 0.0000000000000000e+00  -3.5867909034658345e-07 2.7554183415738182e-07 0.0000000000000000e+00  -3.1634111685420002e-07 2.7722800991330965e-07 0.0000000000000000e+00  -2.7619148851109495e-07 2.7862048533652333e-07 0.0000000000000000e+00  -2.3706428156609456e-07 2.7949858785592657e-07 0.0000000000000000e+00  -2.0013971553259655e-07 2.8238400220287522e-07 0.0000000000000000e+00  -1.6117725407017891e-07 2.8465126881791666e-07 0.0000000000000000e+00  -1.1713594408130129e-07 2.7844109303767612e-07 0.0000000000000000e+00  -6.1867789882502092e-08 2.5741954208659453e-07 0.0000000000000000e+00  -1.4321325752777853e-07 -1.2088391883775333e-09 0.0000000000000000e+00  -3.1905837343753953e-06 -3.4096044844668578e-07 0.0000000000000000e+00  -2.9826366685139437e-06 -3.0593774413119833e-07 0.0000000000000000e+00  -2.6607661293856014e-06 -2.4787348453837197e-07 0.0000000000000000e+00  -1.8363966285347256e-07 3.0943726297053428e-09 0.0000000000000000e+00  -2.4678306973092477e-06 -2.1261219169090429e-07 0.0000000000000000e+00  -2.5440416746855028e-07 9.5000377568432324e-09 0.0000000000000000e+00  -2.2782653965277194e-06 -1.8110970776159369e-07 0.0000000000000000e+00  -3.8239495246832932e-07 1.2055407197982540e-08 0.0000000000000000e+00  -4.7065484434291694e-07 8.3350411515134880e-09 0.0000000000000000e+00  -2.0960217117987085e-06 -1.5235147223665217e-07 0.0000000000000000e+00  -7.2735882358566509e-07 2.6157182643274407e-09 0.0000000000000000e+00  -1.7534016140088836e-06 -1.0327776558268103e-07 0.0000000000000000e+00  -5.6307216665200763e-07 9.8706967460713483e-09 0.0000000000000000e+00  -8.3907901427387174e-07 -7.8353464294152059e-09 0.0000000000000000e+00  -1.5929678728095875e-06 -8.2724167262482054e-08 0.0000000000000000e+00  -1.9210718205077357e-06 -1.2643181054236825e-07 0.0000000000000000e+00  -9.6005526428974568e-07 -1.7063467081886369e-08 0.0000000000000000e+00  -1.4397497592657430e-06 -6.4577382612430926e-08 0.0000000000000000e+00  -1.0828198883570066e-06 -2.4650759294435001e-08 0.0000000000000000e+00  -1.2963992560329136e-06 -5.1721212331997282e-08 0.0000000000000000e+00  -1.1836788267335450e-06 -3.7328123211850495e-08 0.0000000000000000e+00  -6.3993760697053411e-07 3.1273680076692136e-09 0.0000000000000000e+00  -2.8267741185474057e-06 -2.7447251512788446e-07 0.0000000000000000e+00  -3.1445067652197355e-07 7.5215996321561575e-09 0.0000000000000000e+00  -3.0937650913036491e-06 -2.6371614046542031e-07 0.0000000000000000e+00  -1.5481576657618932e-07 1.0709195667642887e-07 0.0000000000000000e+00  -2.3783073853670992e-06 -1.4130585111532996e-07 0.0000000000000000e+00  -2.5719958440906722e-06 -1.7558892099051112e-07 0.0000000000000000e+00  -2.1997793741471572e-07 -9.3234753037067966e-08 0.0000000000000000e+00  -4.2486781840264711e-07 -6.8167741832030543e-08 0.0000000000000000e+00  -1.8409591648535485e-06 -5.4569542865972284e-08 0.0000000000000000e+00  -2.1919109485308978e-06 -1.0954832104926514e-07 0.0000000000000000e+00  -7.7988394486584230e-07 -7.5565869339634779e-08 0.0000000000000000e+00  -1.6764033638130622e-06 -3.1148153305291765e-08 0.0000000000000000e+00  -5.1773904682918947e-07 -6.7813508662617122e-08 0.0000000000000000e+00  -8.9703818562913708e-07 -8.2353024080109667e-08 0.0000000000000000e+00  -1.5191414448516723e-06 -1.0276481319867176e-08 0.0000000000000000e+00  -2.0128110022634221e-06 -8.0643122891402845e-08 0.0000000000000000e+00  -1.0199435780654130e-06 -1.0612499643878243e-07 0.0000000000000000e+00  -1.3690612592921168e-06 8.3125696645915262e-09 0.0000000000000000e+00  -9.9262303679996773e-08 -6.1427325357235734e-08 0.0000000000000000e+00  -9.6656202737626486e-08 5.5466801152085827e-08 0.0000000000000000e+00  -3.2721210139818495e-06 -3.9472687164616530e-07 0.000000