<?xml version="1.0"?>
<VTKFile type="UnstructuredGrid"  version="0.1"  >
<UnstructuredGrid>
<Piece  NumberOfPoints="1419" NumberOfCells="2698">
<Points>
<DataArray  type="Float64"  NumberOfComponents="3"  format="ascii">0 0 0  0 0.41 0  2.5 0 0  2.5 0.41 0  0.6 0.19 0  0.6 0.21 0  0.25 0.2 0  0.15 0.2 0  0.2489897948556636 0.21 0  0.2489897948556636 0.19 0  0.6 0.2 0  0 0.3807142857143437 0  0 0.3514285714286952 0  0 0.3221428571430699 0  0 0.29285714285744 0  0 0.2635714285718054 0  0 0.2342857142861561 0  0 0.2050000000005308 0  0 0.175714285714732 0  0 0.1464285714289574 0  0 0.1171428571431897 0  0 0.08785714285737878 0  0 0.05857142857161107 0  0 0.02928571428580012 0  0.03015443760436003 0 0  0.06140001986583606 0 0  0.09377624077125973 0 0  0.1273239957535082 0 0  0.1620856860351972 0 0  0.1981052433264291 0 0  0.235428184091502 0 0  0.2741016576309132 0 0  0.3141745521465447 0 0  0.3556974926295285 0 0  0.3987229542472677 0 0  0.4433053055141081 0 0  0.4895008759286886 0 0  0.5373680609405097 0 0  0.5869673343216626 0 0  0.6383613676634521 0 0  0.6916151138468254 0 0  0.7467958595648856 0 0  0.8039733463919316 0 0  0.8632198139502143 0 0  0.9246101326867038 0 0  0.9882218810934433 0 0  1.054135445558498 0 0  1.122434100542598 0 0  1.193204177141305 0 0  1.266535089879536 0 0  1.342519516046404 0 0  1.421253448503939 0 0  1.502836389106271 0 0  1.587371439758838 0 0  1.674965418777374 0 0  1.765729001825544 0 0  1.859776908880082 0 0  1.957227977487062 0 0  2.058205329869943 0 0  2.162836591189951 0 0  2.271253957290865 0 0  2.383594446803425 0 0  2.5 0.1024999999997612 0  2.5 0.2049999999994743 0  2.5 0.3074999999997183 0  2.383594446803656 0.41 0  2.271253957291315 0.41 0  2.162836591190598 0.41 0  2.058205329870775 0.41 0  1.957227977488067 0.41 0  1.859776908881246 0.41 0  1.765729001826854 0.41 0  1.674965418778818 0.41 0  1.58737143976041 0.41 0  1.502836389107956 0.41 0  1.421253448505726 0.41 0  1.342519516048286 0.41 0  1.266535089881505 0.41 0  1.193204177143353 0.41 0  1.122434100544716 0.41 0  1.05413544556068 0.41 0  0.9882218810956305 0.41 0  0.9246101326886647 0.41 0  0.8632198139519631 0.41 0  0.8039733463934788 0.41 0  0.7467958595662458 0.41 0  0.6916151138480078 0.41 0  0.6383613676644679 0.41 0  0.5869673343225223 0.41 0  0.5373680609412221 0.41 0  0.4895008759292634 0.41 0  0.4433053055145528 0.41 0  0.3987229542475914 0.41 0  0.3556974926297398 0.41 0  0.3141745521466497 0.41 0  0.2741016576310038 0.41 0  0.2354281840915826 0.41 0  0.1981052433265003 0.41 0  0.1620856860352591 0.41 0  0.1273239957535623 0.41 0  0.09377624077128965 0.41 0  0.06140001986584975 0.41 0  0.03015443760436654 0.41 0  0.2497468076502589 0.2050254481002335 0  0.2497468076502614 0.1949745518997913 0  0.2469965252529372 0.1829317073451959 0  0.2439893735792749 0.1762316384219906 0  0.2400332147834255 0.1700443375285386 0  0.2352133972704371 0.1645032867342007 0  0.2296339016332438 0.1597280261969788 0  0.2234150974217223 0.1558215752574715 0  0.2166911463437691 0.1528682099456123 0  0.2096071079204251 0.1509316448471593 0  0.2023158100364996 0.1500536585536553 0  0.194974551899914 0.1502531923497262 0  0.1877417105387872 0.1515259415822739 0  0.1807733240461124 0.153844448527136 0  0.1742197252835808 0.15715869474974 0  0.1682222986673531 0.1613971801805478 0  0.162910430003803 0.1664684656256651 0  0.1583987151779087 0.1722631454351573 0  0.1547844879126891 0.178656207771761 0  0.1521457199348551 0.1855097315605723 0  0.1505393388476355 0.1926758619366523 0  0.1505393388476328 0.2073241380633295 0  0.1521457199348437 0.2144902684393899 0  0.1547844879126531 0.221343792228163 0  0.1583987151778488 0.2277368545647528 0  0.1629104300036858 0.2335315343742052 0  0.1682222986671726 0.2386028198193036 0  0.1742197252833576 0.2428413052501257 0  0.1807733240458683 0.2461555514727623 0  0.1877417105384929 0.2484740584176516 0  0.1949745518995776 0.2497468076502398 0  0.202315810036185 0.2499463414463592 0  0.2096071079201568 0.2490683551528932 0  0.2166911463435495 0.2471317900544655 0  0.2234150974215506 0.2441784247426195 0  0.2296339016331197 0.2402719738031125 0  0.2352133972703547 0.2354967132658811 0  0.2400332147833751 0.2299556624715287 0  0.2439893735792577 0.2237683615780412 0  0.246996525252926 0.2170682926548348 0  0.25645809709277 0.21 0  0.2639263993298655 0.21 0  0.271394701566961 0.21 0  0.2788630038040554 0.21 0  0.2863313060411479 0.21 0  0.2937996082782405 0.21 0  0.301267910515333 0.21 0  0.3087362127524279 0.21 0  0.3162045149895234 0.21 0  0.3236728172265972 0.21 0  0.3311411194636928 0.21 0  0.3386094217007701 0.21 0  0.3460777239378666 0.21 0  0.3535460261749672 0.21 0  0.3610143284120516 0.21 0  0.3684826306491596 0.21 0  0.3759509328862226 0.21 0  0.383419235123329 0.21 0  0.3908875373604028 0.21 0  0.3983558395975142 0.21 0  0.4058241418345938 0.21 0  0.4132924440716992 0.21 0  0.4207607463087888 0.21 0  0.4282290485459029 0.21 0  0.4356973507830418 0.21 0  0.4431656530201649 0.21 0  0.4506339552573136 0.21 0  0.4581022574944306 0.21 0  0.4655705597315852 0.21 0  0.4730388619686996 0.21 0  0.480507164205851 0.21 0  0.4879754664429498 0.21 0  0.4954437686800938 0.21 0  0.502912070917267 0.21 0  0.5103803731544119 0.21 0  0.5178486753915261 0.21 0  0.5253169776286404 0.21 0  0.5327852798657868 0.21 0  0.5402535821029386 0.21 0  0.54772188434007 0.21 0  0.5551901865771842 0.21 0  0.5626584888143201 0.21 0  0.5701267910514778 0.21 0  0.5775950932886138 0.21 0  0.5850633955257281 0.21 0  0.5925316977628483 0.21 0  0.6 0.2050000000000054 0  0.6 0.1950000000000217 0  0.5925316977628897 0.19 0  0.5850633955257988 0.19 0  0.5775950932887378 0.19 0  0.5701267910515998 0.19 0  0.5626584888145268 0.19 0  0.5551901865773963 0.19 0  0.547721884340339 0.19 0  0.5402535821032429 0.19 0  0.5327852798661811 0.19 0  0.5253169776290537 0.19 0  0.5178486753919799 0.19 0  0.5103803731549078 0.19 0  0.502912070917822 0.19 0  0.4954437686807294 0.19 0  0.4879754664436223 0.19 0  0.4805071642065402 0.19 0  0.4730388619694271 0.19 0  0.4655705597323621 0.19 0  0.4581022574952563 0.19 0  0.4506339552581777 0.19 0  0.4431656530210671 0.19 0  0.4356973507839815 0.19 0  0.4282290485468779 0.19 0  0.4207607463097617 0.19 0  0.4132924440726327 0.19 0  0.4058241418354857 0.19 0  0.3983558395983636 0.19 0  0.3908875373612097 0.19 0  0.3834192351240934 0.19 0  0.3759509328869369 0.19 0  0.3684826306498175 0.19 0  0.361014328412667 0.19 0  0.3535460261755617 0.19 0  0.3460777239384295 0.19 0  0.3386094217012945 0.19 0  0.3311411194641595 0.19 0  0.3236728172270245 0.19 0  0.3162045149898895 0.19 0  0.3087362127527544 0.19 0  0.3012679105156187 0.19 0  0.2937996082784807 0.19 0  0.2863313060413428 0.19 0  0.2788630038042048 0.19 0  0.2713947015670686 0.19 0  0.2639263993299336 0.19 0  0.2564580970927985 0.19 0  0.2607803159922026 0.2000727136295815 0  0.5887803774232762 0.2001272386983733 0  0.5745072403740523 0.2002044435018727 0  0.5511891430099709 0.2001122610077113 0  0.2751288526855082 0.20000000000002 0  0.5365194309847112 0.1999999999999436 0  0.2894621222999649 0.1998691686390484 0  0.5215828265105155 0.1999999999999228 0  0.3127789816668748 0.1998657885438805 0  0.3274069683451451 0.2000000000000796 0  0.5066462220363641 0.199999999999908 0  0.3650630746574081 0.199866017807523 0  0.476773013087985 0.1999999999998713 0  0.3417402379596385 0.1998691686391011 0  0.3796850840047755 0.200000000000134 0  0.4618364086138087 0.1999999999998546 0  0.4917096175621762 0.1999999999998808 0  0.3946216884789568 0.2000000000001512 0  0.446899804139621 0.1999999999998389 0  0.4089549580935208 0.1998691686391595 0  0.4322718174608562 0.200127451265745 0  0.4201487168029707 0.1999966199048527 0  0.3528922713220932 0.2000185703532356 0  0.5633122436674589 0.1999814296467508 0  0.3006558810093873 0.1999966199048318 0  0.5815926498168407 0.1966545283159175 0  0.2677053789419034 0.1964246479135325 0  0.5290511287476175 0.1970915826863981 0  0.5439877332217911 0.197091582686394 0  0.2825131256993216 0.2035478995978015 0  0.3199386661080599 0.202908417313604 0  0.4842413153250809 0.1970915826863873 0  0.5141145242734466 0.1970915826863843 0  0.3722167817676917 0.2029084173136195 0  0.4693047108508938 0.1970915826863783 0  0.3348752705822316 0.202908417313609 0  0.3871533862418661 0.2029084173136212 0  0.4543681063767183 0.1970915826863795 0  0.4991779197992749 0.1970915826863902 0  0.4020059614928624 0.203547899597858 0  0.4394315019025246 0.1970915826863714 0  0.2550657455369551 0.2034088125358657 0  0.2548908499171161 0.1966940311614271 0  0.5946539510196798 0.2024302972968126 0  0.267698176732111 0.2039977513680092 0  0.4261685417851465 0.196409292431739 0  0.3590076176283495 0.196411355804271 0  0.5571672426447437 0.2036011176410121 0  0.3066757059912147 0.1964092924317024 0  0.594380730180568 0.1966558399668133 0  0.4842413153245942 0.2040749161535287 0  0.4693047108503577 0.2040749161535231 0  0.3871533862424271 0.1959250838464788 0  0.372246743208829 0.1959123236376545 0  0.5141145242731028 0.2040749161535395 0  0.4543681063761134 0.2040749161535186 0  0.4019979587101454 0.1959834479682427 0  0.4394608940728603 0.2040870543693135 0  0.5439623148931173 0.2040856076781014 0  0.5290511287473298 0.2040749161535501 0  0.4991779197988497 0.2040749161535382 0  0.3347912413592433 0.1959225448935183 0  0.3199680582793816 0.1959123018030061 0  0.2825051229162361 0.1959834479681729 0  0.3590471196690275 0.2036304442587945 0  0.5571594006495384 0.1963685282145804 0  0.3067669986803285 0.203627750582736 0  0.4262598344738712 0.2036568242185335 0  0.5814408164431408 0.2041285596160068 0  0.5688286748170428 0.1961819304477386 0  0.4145905603063645 0.2038180695522843 0  0.3473758401724931 0.2038180695522752 0  0.2950977245128307 0.2038180695522663 0  0.5688286748170693 0.203818069552238 0  0.2950977245127906 0.1961819304477774 0  0.3473758401723931 0.1961819304478349 0  0.4145905603061963 0.1961819304479011 0  0.2601812407614425 0.2056861609747042
[...]
<PointData  Vectors="f_40-1"> 
<DataArray  type="Float64"  Name="f_40-1"  NumberOfComponents="3" format="ascii">0.0000000000000000e+00 0.0000000000000000e+00 0.0000000000000000e+00  0.0000000000000000e+00 0.0000000000000000e+00 0.0000000000000000e+00  0.0000000000000000e+00 0.0000000000000000e+00 0.0000000000000000e+00  0.0000000000000000e+00 0.0000000000000000e+00 0.0000000000000000e+00  -9.1785404956941292e-07 2.2702875057239980e-08 0.0000000000000000e+00  -9.1463272820837596e-07 -4.2409323209520164e-08 0.0000000000000000e+00  0.0000000000000000e+00 0.0000000000000000e+00 0.0000000000000000e+00  0.0000000000000000e+00 0.0000000000000000e+00 0.0000000000000000e+00  0.0000000000000000e+00 0.0000000000000000e+00 0.0000000000000000e+00  0.0000000000000000e+00 0.0000000000000000e+00 0.0000000000000000e+00  -9.1691146254786094e-07 -9.8277583597390015e-09 0.0000000000000000e+00  0.0000000000000000e+00 0.0000000000000000e+00 0.0000000000000000e+00  0.0000000000000000e+00 0.0000000000000000e+00 0.0000000000000000e+00  0.0000000000000000e+00 0.0000000000000000e+00 0.0000000000000000e+00  0.0000000000000000e+00 0.0000000000000000e+00 0.0000000000000000e+00  0.0000000000000000e+00 0.0000000000000000e+00 0.0000000000000000e+00  0.0000000000000000e+00 0.0000000000000000e+00 0.0000000000000000e+00  0.0000000000000000e+00 0.0000000000000000e+00 0.0000000000000000e+00  0.0000000000000000e+00 0.0000000000000000e+00 0.0000000000000000e+00  0.0000000000000000e+00 0.0000000000000000e+00 0.0000000000000000e+00  0.0000000000000000e+00 0.0000000000000000e+00 0.0000000000000000e+00  0.0000000000000000e+00 0.0000000000000000e+00 0.0000000000000000e+00  0.0000000000000000e+00 0.0000000000000000e+00 0.0000000000000000e+00  0.0000000000000000e+00 0.0000000000000000e+00 0.0000000000000000e+00  0.0000000000000000e+00 0.0000000000000000e+00 0.0000000000000000e+00  0.0000000000000000e+00 0.0000000000000000e+00 0.0000000000000000e+00  0.0000000000000000e+00 0.0000000000000000e+00 0.0000000000000000e+00  0.0000000000000000e+00 0.0000000000000000e+00 0.0000000000000000e+00  0.0000000000000000e+00 0.0000000000000000e+00 0.0000000000000000e+00  0.0000000000000000e+00 0.0000000000000000e+00 0.0000000000000000e+00  0.0000000000000000e+00 0.0000000000000000e+00 0.0000000000000000e+00  0.0000000000000000e+00 0.0000000000000000e+00 0.0000000000000000e+00  0.0000000000000000e+00 0.0000000000000000e+00 0.0000000000000000e+00  0.0000000000000000e+00 0.0000000000000000e+00 0.0000000000000000e+00  0.0000000000000000e+00 0.0000000000000000e+00 0.0000000000000000e+00  0.0000000000000000e+00 0.0000000000000000e+00 0.0000000000000000e+00  0.0000000000000000e+00 0.0000000000000000e+00 0.0000000000000000e+00  0.0000000000000000e+00 0.0000000000000000e+00 0.0000000000000000e+00  0.0000000000000000e+00 0.0000000000000000e+00 0.0000000000000000e+00  0.0000000000000000e+00 0.0000000000000000e+00 0.0000000000000000e+00  0.0000000000000000e+00 0.0000000000000000e+00 0.0000000000000000e+00  0.0000000000000000e+00 0.0000000000000000e+00 0.0000000000000000e+00  0.0000000000000000e+00 0.0000000000000000e+00 0.0000000000000000e+00  0.0000000000000000e+00 0.0000000000000000e+00 0.0000000000000000e+00  0.0000000000000000e+00 0.0000000000000000e+00 0.0000000000000000e+00  0.0000000000000000e+00 0.0000000000000000e+00 0.0000000000000000e+00  0.0000000000000000e+00 0.0000000000000000e+00 0.0000000000000000e+00  0.0000000000000000e+00 0.0000000000000000e+00 0.0000000000000000e+00  0.0000000000000000e+00 0.0000000000000000e+00 0.0000000000000000e+00  0.0000000000000000e+00 0.0000000000000000e+00 0.0000000000000000e+00  0.0000000000000000e+00 0.0000000000000000e+00 0.0000000000000000e+00  0.0000000000000000e+00 0.0000000000000000e+00 0.0000000000000000e+00  0.0000000000000000e+00 0.0000000000000000e+00 0.0000000000000000e+00  0.0000000000000000e+00 0.0000000000000000e+00 0.0000000000000000e+00  0.0000000000000000e+00 0.0000000000000000e+00 0.0000000000000000e+00  0.0000000000000000e+00 0.0000000000000000e+00 0.0000000000000000e+00  0.0000000000000000e+00 0.0000000000000000e+00 0.0000000000000000e+00  0.0000000000000000e+00 0.0000000000000000e+00 0.0000000000000000e+00  0.0000000000000000e+00 0.0000000000000000e+00 0.0000000000000000e+00  0.0000000000000000e+00 0.0000000000000000e+00 0.0000000000000000e+00  0.0000000000000000e+00 0.0000000000000000e+00 0.0000000000000000e+00  0.0000000000000000e+00 0.0000000000000000e+00 0.0000000000000000e+00  0.0000000000000000e+00 0.0000000000000000e+00 0.0000000000000000e+00  0.0000000000000000e+00 0.0000000000000000e+00 0.0000000000000000e+00  0.0000000000000000e+00 0.0000000000000000e+00 0.0000000000000000e+00  0.0000000000000000e+00 0.0000000000000000e+00 0.0000000000000000e+00  0.0000000000000000e+00 0.0000000000000000e+00 0.0000000000000000e+00  0.0000000000000000e+00 0.0000000000000000e+00 0.0000000000000000e+00  0.0000000000000000e+00 0.0000000000000000e+00 0.0000000000000000e+00  0.0000000000000000e+00 0.0000000000000000e+00 0.0000000000000000e+00  0.0000000000000000e+00 0.0000000000000000e+00 0.0000000000000000e+00  0.0000000000000000e+00 0.0000000000000000e+00 0.0000000000000000e+00  0.0000000000000000e+00 0.0000000000000000e+00 0.0000000000000000e+00  0.0000000000000000e+00 0.0000000000000000e+00 0.0000000000000000e+00  0.0000000000000000e+00 0.0000000000000000e+00 0.0000000000000000e+00  0.0000000000000000e+00 0.0000000000000000e+00 0.0000000000000000e+00  0.0000000000000000e+00 0.0000000000000000e+00 0.0000000000000000e+00  0.0000000000000000e+00 0.0000000000000000e+00 0.0000000000000000e+00  0.0000000000000000e+00 0.0000000000000000e+00 0.0000000000000000e+00  0.0000000000000000e+00 0.0000000000000000e+00 0.0000000000000000e+00  0.0000000000000000e+00 0.0000000000000000e+00 0.0000000000000000e+00  0.0000000000000000e+00 0.0000000000000000e+00 0.0000000000000000e+00  0.0000000000000000e+00 0.0000000000000000e+00 0.0000000000000000e+00  0.0000000000000000e+00 0.0000000000000000e+00 0.0000000000000000e+00  0.0000000000000000e+00 0.0000000000000000e+00 0.0000000000000000e+00  0.0000000000000000e+00 0.0000000000000000e+00 0.0000000000000000e+00  0.0000000000000000e+00 0.0000000000000000e+00 0.0000000000000000e+00  0.0000000000000000e+00 0.0000000000000000e+00 0.0000000000000000e+00  0.0000000000000000e+00 0.0000000000000000e+00 0.0000000000000000e+00  0.0000000000000000e+00 0.0000000000000000e+00 0.0000000000000000e+00  0.0000000000000000e+00 0.0000000000000000e+00 0.0000000000000000e+00  0.0000000000000000e+00 0.0000000000000000e+00 0.0000000000000000e+00  0.0000000000000000e+00 0.0000000000000000e+00 0.0000000000000000e+00  0.0000000000000000e+00 0.0000000000000000e+00 0.0000000000000000e+00  0.0000000000000000e+00 0.0000000000000000e+00 0.0000000000000000e+00  0.0000000000000000e+00 0.0000000000000000e+00 0.0000000000000000e+00  0.0000000000000000e+00 0.0000000000000000e+00 0.0000000000000000e+00  0.0000000000000000e+00 0.0000000000000000e+00 0.0000000000000000e+00  0.0000000000000000e+00 0.0000000000000000e+00 0.0000000000000000e+00  0.0000000000000000e+00 0.0000000000000000e+00 0.0000000000000000e+00  0.0000000000000000e+00 0.0000000000000000e+00 0.0000000000000000e+00  0.0000000000000000e+00 0.0000000000000000e+00 0.0000000000000000e+00  0.0000000000000000e+00 0.0000000000000000e+00 0.0000000000000000e+00  0.0000000000000000e+00 0.0000000000000000e+00 0.0000000000000000e+00  0.0000000000000000e+00 0.0000000000000000e+00 0.0000000000000000e+00  0.0000000000000000e+00 0.0000000000000000e+00 0.0000000000000000e+00  0.0000000000000000e+00 0.0000000000000000e+00 0.0000000000000000e+00  0.0000000000000000e+00 0.0000000000000000e+00 0.0000000000000000e+00  0.0000000000000000e+00 0.0000000000000000e+00 0.0000000000000000e+00  0.0000000000000000e+00 0.0000000000000000e+00 0.0000000000000000e+00  0.0000000000000000e+00 0.0000000000000000e+00 0.0000000000000000e+00  0.0000000000000000e+00 0.0000000000000000e+00 0.0000000000000000e+00  0.0000000000000000e+00 0.0000000000000000e+00 0.0000000000000000e+00  0.0000000000000000e+00 0.0000000000000000e+00 0.0000000000000000e+00  0.0000000000000000e+00 0.0000000000000000e+00 0.0000000000000000e+00  0.0000000000000000e+00 0.0000000000000000e+00 0.0000000000000000e+00  0.0000000000000000e+00 0.0000000000000000e+00 0.0000000000000000e+00  0.0000000000000000e+00 0.0000000000000000e+00 0.0000000000000000e+00  0.0000000000000000e+00 0.0000000000000000e+00 0.0000000000000000e+00  0.0000000000000000e+00 0.0000000000000000e+00 0.0000000000000000e+00  0.0000000000000000e+00 0.0000000000000000e+00 0.0000000000000000e+00  0.0000000000000000e+00 0.0000000000000000e+00 0.0000000000000000e+00  0.0000000000000000e+00 0.0000000000000000e+00 0.0000000000000000e+00  0.0000000000000000e+00 0.0000000000000000e+00 0.0000000000000000e+00  0.0000000000000000e+00 0.0000000000000000e+00 0.0000000000000000e+00  0.0000000000000000e+00 0.0000000000000000e+00 0.0000000000000000e+00  0.0000000000000000e+00 0.0000000000000000e+00 0.0000000000000000e+00  0.0000000000000000e+00 0.0000000000000000e+00 0.0000000000000000e+00  0.0000000000000000e+00 0.0000000000000000e+00 0.0000000000000000e+00  0.0000000000000000e+00 0.0000000000000000e+00 0.0000000000000000e+00  0.0000000000000000e+00 0.0000000000000000e+00 0.0000000000000000e+00  0.0000000000000000e+00 0.0000000000000000e+00 0.0000000000000000e+00  0.0000000000000000e+00 0.0000000000000000e+00 0.0000000000000000e+00  0.0000000000000000e+00 0.0000000000000000e+00 0.0000000000000000e+00  0.0000000000000000e+00 0.0000000000000000e+00 0.0000000000000000e+00  0.0000000000000000e+00 0.0000000000000000e+00 0.0000000000000000e+00  0.0000000000000000e+00 0.0000000000000000e+00 0.0000000000000000e+00  0.0000000000000000e+00 0.0000000000000000e+00 0.0000000000000000e+00  0.0000000000000000e+00 0.0000000000000000e+00 0.0000000000000000e+00  0.0000000000000000e+00 0.0000000000000000e+00 0.0000000000000000e+00  0.0000000000000000e+00 0.0000000000000000e+00 0.0000000000000000e+00  0.0000000000000000e+00 0.0000000000000000e+00 0.0000000000000000e+00  0.0000000000000000e+00 0.0000000000000000e+00 0.0000000000000000e+00  -1.9778325638292038e-08 -4.3508524536879072e-08 0.0000000000000000e+00  -3.9187343987878339e-08 -4.6702322399343702e-08 0.0000000000000000e+00  -5.6699391513940086e-08 -4.7563899580754898e-08 0.0000000000000000e+00  -7.3156411248865644e-08 -4.6865185895106268e-08 0.0000000000000000e+00  -8.9246914234071981e-08 -4.6220179375213911e-08 0.0000000000000000e+00  -1.0560010869547385e-07 -4.5913217429011284e-08 0.0000000000000000e+00  -1.2208485222305460e-07 -4.5581228472028508e-08 0.0000000000000000e+00  -1.3885792061596989e-07 -4.5286667329813265e-08 0.0000000000000000e+00  -1.5575588545096869e-07 -4.5017366550860263e-08 0.0000000000000000e+00  -1.7287717536441440e-07 -4.4741212641927259e-08 0.0000000000000000e+00  -1.9017250333929074e-07 -4.4559190175246064e-08 0.0000000000000000e+00  -2.0766363832431482e-07 -4.4330460441267215e-08 0.0000000000000000e+00  -2.2536559103168484e-07 -4.4139730101844783e-08 0.0000000000000000e+00  -2.4320518914562967e-07 -4.3999603527556167e-08 0.0000000000000000e+00  -2.6130298295911341e-07 -4.3840832032830290e-08 0.0000000000000000e+00  -2.7951806525526585e-07 -4.3746401913014205e-08 0.0000000000000000e+00  -2.9793388939182171e-07 -4.3563095631764776e-08 0.0000000000000000e+00  -3.1653124932350853e-07 -4.3487984474319776e-08 0.0000000000000000e+00  -3.3528633326663636e-07 -4.3280002851741486e-08 0.0000000000000000e+00  -3.5420800920214814e-07 -4.3158796226947679e-08 0.0000000000000000e+00  -3.7328144745893201e-07 -4.2897709481724619e-08 0.0000000000000000e+00  -3.9255216682359398e-07 -4.2633072136336615e-08 0.0000000000000000e+00  -4.1189444362408359e-07 -4.2350113095880799e-08 0.0000000000000000e+00  -4.3145303177575052e-07 -4.1966010723420000e-08 0.0000000000000000e+00  -4.5109473515459380e-07 -4.1619506357485497e-08 0.0000000000000000e+00  -4.7089167903226143e-07 -4.1110617879450464e-08 0.0000000000000000e+00  -4.9083305794852494e-07 -4.0702974430542383e-08 0.0000000000000000e+00  -5.1087859416764329e-07 -4.0139324756409789e-08 0.0000000000000000e+00  -5.3105590868717986e-07 -3.9655192648671954e-08 0.0000000000000000e+00  -5.5133123658766218e-07 -3.9088446368317423e-08 0.0000000000000000e+00  -5.7171654444770715e-07 -3.8596590383490726e-08 0.0000000000000000e+00  -5.9222504720787272e-07 -3.8065924914858807e-08 0.0000000000000000e+00  -6.1280971942822998e-07 -3.7669365351472065e-08 0.0000000000000000e+00  -6.3352352329201952e-07 -3.7216295823397438e-08 0.0000000000000000e+00  -6.5435850208999689e-07 -3.6970772488987343e-08 0.0000000000000000e+00  -6.7529970641933362e-07 -3.6731773883761220e-08 0.0000000000000000e+00  -6.9635331366015319e-07 -3.6696667492756187e-08 0.0000000000000000e+00  -7.1753614032702685e-07 -3.6698107813498086e-08 0.0000000000000000e+00  -7.3885270428788775e-07 -3.6900055750436516e-08 0.0000000000000000e+00  -7.6033156390064726e-07 -3.7155449280121292e-08 0.0000000000000000e+00  -7.8195759850996309e-07 -3.7591059879604955e-08 0.0000000000000000e+00  -8.0371734375959601e-07 -3.8078996670402151e-08 0.0000000000000000e+00  -8.2571157311382856e-07 -3.8699132762785208e-08 0.0000000000000000e+00  -8.4777625072591231e-07 -3.9366909794401389e-08 0.0000000000000000e+00  -8.7004599198207848e-07 -4.0065379959135945e-08 0.0000000000000000e+00  -8.9240349334179007e-07 -4.0923838536613144e-08 0.0000000000000000e+00  -9.1604918738161546e-07 -2.6104408699363458e-08 0.0000000000000000e+00  -9.1757675848152731e-07 6.4429277858487689e-09 0.0000000000000000e+00  -8.9547800552568451e-07 2.3611029083988559e-08 0.0000000000000000e+00  -8.7299978592403556e-07 2.5078395512840474e-08 0.0000000000000000e+00  -8.5057757562535598e-07 2.6567901819205921e-08 0.0000000000000000e+00  -8.2828632897009543e-07 2.7959102980764112e-08 0.0000000000000000e+00  -8.0607444164044164e-07 2.9271656909662145e-08 0.0000000000000000e+00  -7.8406500332625987e-07 3.0461817081823478e-08 0.0000000000000000e+00  -7.6211451058517249e-07 3.1548375093162007e-08 0.0000000000000000e+00  -7.4035458458868550e-07 3.2521148311365213e-08 0.0000000000000000e+00  -7.1868775305179833e-07 3.3313226383253366e-08 0.0000000000000000e+00  -6.9720134584869322e-07 3.4044156417278109e-08 0.0000000000000000e+00  -6.7582470949641150e-07 3.4585885750443652e-08 0.0000000000000000e+00  -6.5463216890084649e-07 3.5069186693062528e-08 0.0000000000000000e+00  -6.3355205742076235e-07 3.5379579344946906e-08 0.0000000000000000e+00  -6.1265440867389155e-07 3.5676063825753393e-08 0.0000000000000000e+00  -5.9189308091600111e-07 3.5832154434523940e-08 0.0000000000000000e+00  -5.7129572802895413e-07 3.6011686158435982e-08 0.0000000000000000e+00  -5.5084574566254706e-07 3.6102312487675019e-08 0.0000000000000000e+00  -5.3055770223207012e-07 3.6248336980528122e-08 0.0000000000000000e+00  -5.1041888185368735e-07 3.6326068598181582e-08 0.0000000000000000e+00  -4.9042192168498316e-07 3.6496433916234699e-08 0.0000000000000000e+00  -4.7058398208105302e-07 3.6630498874971195e-08 0.0000000000000000e+00  -4.5087333811925721e-07 3.6869863171285895e-08 0.0000000000000000e+00  -4.3134662658614844e-07 3.7133995201712805e-08 0.0000000000000000e+00  -4.1190388953713599e-07 3.7432869230761192e-08 0.0000000000000000e+00  -3.9266981643208173e-07 3.7809911944188692e-08 0.0000000000000000e+00  -3.7351896448624765e-07 3.8191760887669510e-08 0.0000000000000000e+00  -3.5453888531404369e-07 3.8693204279916913e-08 0.0000000000000000e+00  -3.3569227209644036e-07 3.9119635580181757e-08 0.0000000000000000e+00  -3.1699706881386578e-07 3.9720140029576094e-08 0.0000000000000000e+00  -2.9845942545313718e-07 4.0204296709567926e-08 0.0000000000000000e+00  -2.8006817662112020e-07 4.0826693250232760e-08 0.0000000000000000e+00  -2.6185662057583789e-07 4.1363668941772523e-08 0.0000000000000000e+00  -2.4374241202646036e-07 4.1953528589193135e-08 0.0000000000000000e+00  -2.2586972949434499e-07 4.2504895461347247e-08 0.0000000000000000e+00  -2.0810685225974982e-07 4.3063038042545147e-08 0.0000000000000000e+00  -1.9055951131505801e-07 4.3612505603417628e-08 0.0000000000000000e+00  -1.7319280870190640e-07 4.4052080489707898e-08 0.0000000000000000e+00  -1.5601569218972535e-07 4.4557577632309290e-08 0.0000000000000000e+00  -1.3905521933583617e-07 4.4986546539982351e-08 0.0000000000000000e+00  -1.2222942242120262e-07 4.5403949204664158e-08 0.0000000000000000e+00  -1.0569434314844536e-07 4.5811231665216263e-08 0.0000000000000000e+00  -8.9277496874933788e-08 4.6159510953964352e-08 0.0000000000000000e+00  -7.3147245950975313e-08 4.6838360434772279e-08 0.0000000000000000e+00  -5.6608475756683426e-08 4.7444241135272431e-08 0.0000000000000000e+00  -3.9158513711970487e-08 4.6522365579443869e-08 0.0000000000000000e+00  -1.9921895712476064e-08 4.3144718367600404e-08 0.0000000000000000e+00  -3.9026333424654190e-08 -3.7040649445510440e-10 0.0000000000000000e+00  -8.8284018026317674e-07 -8.4440956402096914e-09 0.0000000000000000e+00  -8.3991071471961379e-07 -6.5863927729644558e-09 0.0000000000000000e+00  -7.7126250951987641e-07 -3.4521621227920738e-09 0.0000000000000000e+00  -6.5039657406173585e-08 -4.7444163418676232e-11 0.0000000000000000e+00  -7.2881658188011776e-07 -1.8471716897293647e-09 0.0000000000000000e+00  -9.5972510579253756e-08 5.8312247749431528e-10 0.0000000000000000e+00  -6.8612475917527326e-07 -1.1131727056368279e-09 0.0000000000000000e+00  -1.4800721395461975e-07 4.2776829873958281e-10 0.0000000000000000e+00  -1.8161155008590463e-07 -3.9081477412779480e-10 0.0000000000000000e+00  -6.4397157762275865e-07 -8.6897548894461794e-10 0.0000000000000000e+00  -2.7135589408239089e-07 -7.9109810427718800e-10 0.0000000000000000e+00  -5.6125052913483392e-07 -1.3753332163962331e-09 0.0000000000000000e+00  -2.1521465684485333e-07 -1.2427415549578009e-10 0.0000000000000000e+00  -3.0740787773375076e-07 -1.7970229731677472e-09 0.0000000000000000e+00  -5.2067610389558453e-07 -1.8142701704752036e-09 0.0000000000000000e+00  -6.0234820878300700e-07 -1.0094730656923205e-09 0.0000000000000000e+00  -3.4485906455207556e-07 -2.1762958715389675e-09 0.0000000000000000e+00  -4.8063122185298353e-07 -2.1979170519201622e-09 0.0000000000000000e+00  -3.8136729232178666e-07 -1.8788925974004765e-09 0.0000000000000000e+00  -4.4192798281158258e-07 -2.9278321232393726e-09 0.0000000000000000e+00  -4.1030702505838088e-07 -2.4620082881485331e-09 0.0000000000000000e+00  -2.4188369155428681e-07 -1.0796807887605887e-09 0.0000000000000000e+00  -8.0683725889831200e-07 -4.3792965318621676e-09 0.0000000000000000e+00  -1.2076553219063854e-07 -6.0905515156584142e-11 0.0000000000000000e+00  -8.6164403050499489e-07 3.9867320480728861e-09 0.0000000000000000e+00  -5.0351901352887814e-08 1.7663757863975781e-08 0.0000000000000000e+00  -7.0756127557746104e-07 8.8077490768329206e-09 0.0000000000000000e+00  -7.5061865415153819e-07 7.6263700936341740e-09 0.0000000000000000e+00  -8.0885682918823686e-08 -1.6500628672827642e-08 0.0000000000000000e+00  -1.6434244333710087e-07 -1.3238815643927136e-08 0.0000000000000000e+00  -5.8169576044393394e-07 9.6196257125848475e-09 0.0000000000000000e+00  -6.6505567480501951e-07 9.4805148113323858e-09 0.0000000000000000e+00  -2.8885605213911291e-07 -1.3814382539505837e-08 0.0000000000000000e+00  -5.4084176616063362e-07 9.3902217748765656e-09 0.0000000000000000e+00  -1.9899395662099865e-07 -1.3304534103449563e-08 0.0000000000000000e+00  -3.2601066933441452e-07 -1.4039949586458477e-08 0.0000000000000000e+00  -5.0053969201818411e-07 9.1536239982744414e-09 0.0000000000000000e+00  -6.2310058046192984e-07 9.7044436293672605e-09 0.0000000000000000e+00  -3.6356924060074638e-07 -1.6771323601522640e-08 0.0000000000000000e+00  -4.6078349437985515e-07 9.0262227355175960e-09 0.0000000000000000e+00  -2.3832226609375616e-08 -1.0272814799973662e-08 0.0000000000000000e+00  -2.3180266853574710e-08 9.1514238653927267e-09 0.0000000000000000e+00  -9.0031891074735228e-07 -1.6815383748464906e-08 0.0000000000000000e+0