<?xml version="1.0"?>
<VTKFile type="UnstructuredGrid"  version="0.1"  >
<UnstructuredGrid>
<Piece  NumberOfPoints="1419" NumberOfCells="2698">
<Points>
<DataArray  type="Float64"  NumberOfComponents="3"  format="ascii">0 0 0  0 0.41 0  2.5 0 0  2.5 0.41 0  0.6 0.19 0  0.6 0.21 0  0.25 0.2 0  0.15 0.2 0  0.2489897948556636 0.21 0  0.2489897948556636 0.19 0  0.6 0.2 0  0 0.3807142857143437 0  0 0.3514285714286952 0  0 0.3221428571430699 0  0 0.29285714285744 0  0 0.2635714285718054 0  0 0.2342857142861561 0  0 0.2050000000005308 0  0 0.175714285714732 0  0 0.1464285714289574 0  0 0.1171428571431897 0  0 0.08785714285737878 0  0 0.05857142857161107 0  0 0.02928571428580012 0  0.03015443760436003 0 0  0.06140001986583606 0 0  0.09377624077125973 0 0  0.1273239957535082 0 0  0.1620856860351972 0 0  0.1981052433264291 0 0  0.235428184091502 0 0  0.2741016576309132 0 0  0.3141745521465447 0 0  0.3556974926295285 0 0  0.3987229542472677 0 0  0.4433053055141081 0 0  0.4895008759286886 0 0  0.5373680609405097 0 0  0.5869673343216626 0 0  0.6383613676634521 0 0  0.6916151138468254 0 0  0.7467958595648856 0 0  0.8039733463919316 0 0  0.8632198139502143 0 0  0.9246101326867038 0 0  0.9882218810934433 0 0  1.054135445558498 0 0  1.122434100542598 0 0  1.193204177141305 0 0  1.266535089879536 0 0  1.342519516046404 0 0  1.421253448503939 0 0  1.502836389106271 0 0  1.587371439758838 0 0  1.674965418777374 0 0  1.765729001825544 0 0  1.859776908880082 0 0  1.957227977487062 0 0  2.058205329869943 0 0  2.162836591189951 0 0  2.271253957290865 0 0  2.383594446803425 0 0  2.5 0.1024999999997612 0  2.5 0.2049999999994743 0  2.5 0.3074999999997183 0  2.383594446803656 0.41 0  2.271253957291315 0.41 0  2.162836591190598 0.41 0  2.058205329870775 0.41 0  1.957227977488067 0.41 0  1.859776908881246 0.41 0  1.765729001826854 0.41 0  1.674965418778818 0.41 0  1.58737143976041 0.41 0  1.502836389107956 0.41 0  1.421253448505726 0.41 0  1.342519516048286 0.41 0  1.266535089881505 0.41 0  1.193204177143353 0.41 0  1.122434100544716 0.41 0  1.05413544556068 0.41 0  0.9882218810956305 0.41 0  0.9246101326886647 0.41 0  0.8632198139519631 0.41 0  0.8039733463934788 0.41 0  0.7467958595662458 0.41 0  0.6916151138480078 0.41 0  0.6383613676644679 0.41 0  0.5869673343225223 0.41 0  0.5373680609412221 0.41 0  0.4895008759292634 0.41 0  0.4433053055145528 0.41 0  0.3987229542475914 0.41 0  0.3556974926297398 0.41 0  0.3141745521466497 0.41 0  0.2741016576310038 0.41 0  0.2354281840915826 0.41 0  0.1981052433265003 0.41 0  0.1620856860352591 0.41 0  0.1273239957535623 0.41 0  0.09377624077128965 0.41 0  0.06140001986584975 0.41 0  0.03015443760436654 0.41 0  0.2497468076502589 0.2050254481002335 0  0.2497468076502614 0.1949745518997913 0  0.2469965252529372 0.1829317073451959 0  0.2439893735792749 0.1762316384219906 0  0.2400332147834255 0.1700443375285386 0  0.2352133972704371 0.1645032867342007 0  0.2296339016332438 0.1597280261969788 0  0.2234150974217223 0.1558215752574715 0  0.2166911463437691 0.1528682099456123 0  0.2096071079204251 0.1509316448471593 0  0.2023158100364996 0.1500536585536553 0  0.194974551899914 0.1502531923497262 0  0.1877417105387872 0.1515259415822739 0  0.1807733240461124 0.153844448527136 0  0.1742197252835808 0.15715869474974 0  0.1682222986673531 0.1613971801805478 0  0.162910430003803 0.1664684656256651 0  0.1583987151779087 0.1722631454351573 0  0.1547844879126891 0.178656207771761 0  0.1521457199348551 0.1855097315605723 0  0.1505393388476355 0.1926758619366523 0  0.1505393388476328 0.2073241380633295 0  0.1521457199348437 0.2144902684393899 0  0.1547844879126531 0.221343792228163 0  0.1583987151778488 0.2277368545647528 0  0.1629104300036858 0.2335315343742052 0  0.1682222986671726 0.2386028198193036 0  0.1742197252833576 0.2428413052501257 0  0.1807733240458683 0.2461555514727623 0  0.1877417105384929 0.2484740584176516 0  0.1949745518995776 0.2497468076502398 0  0.202315810036185 0.2499463414463592 0  0.2096071079201568 0.2490683551528932 0  0.2166911463435495 0.2471317900544655 0  0.2234150974215506 0.2441784247426195 0  0.2296339016331197 0.2402719738031125 0  0.2352133972703547 0.2354967132658811 0  0.2400332147833751 0.2299556624715287 0  0.2439893735792577 0.2237683615780412 0  0.246996525252926 0.2170682926548348 0  0.25645809709277 0.21 0  0.2639263993298655 0.21 0  0.271394701566961 0.21 0  0.2788630038040554 0.21 0  0.2863313060411479 0.21 0  0.2937996082782405 0.21 0  0.301267910515333 0.21 0  0.3087362127524279 0.21 0  0.3162045149895234 0.21 0  0.3236728172265972 0.21 0  0.3311411194636928 0.21 0  0.3386094217007701 0.21 0  0.3460777239378666 0.21 0  0.3535460261749672 0.21 0  0.3610143284120516 0.21 0  0.3684826306491596 0.21 0  0.3759509328862226 0.21 0  0.383419235123329 0.21 0  0.3908875373604028 0.21 0  0.3983558395975142 0.21 0  0.4058241418345938 0.21 0  0.4132924440716992 0.21 0  0.4207607463087888 0.21 0  0.4282290485459029 0.21 0  0.4356973507830418 0.21 0  0.4431656530201649 0.21 0  0.4506339552573136 0.21 0  0.4581022574944306 0.21 0  0.4655705597315852 0.21 0  0.4730388619686996 0.21 0  0.480507164205851 0.21 0  0.4879754664429498 0.21 0  0.4954437686800938 0.21 0  0.502912070917267 0.21 0  0.5103803731544119 0.21 0  0.5178486753915261 0.21 0  0.5253169776286404 0.21 0  0.5327852798657868 0.21 0  0.5402535821029386 0.21 0  0.54772188434007 0.21 0  0.5551901865771842 0.21 0  0.5626584888143201 0.21 0  0.5701267910514778 0.21 0  0.5775950932886138 0.21 0  0.5850633955257281 0.21 0  0.5925316977628483 0.21 0  0.6 0.2050000000000054 0  0.6 0.1950000000000217 0  0.5925316977628897 0.19 0  0.5850633955257988 0.19 0  0.5775950932887378 0.19 0  0.5701267910515998 0.19 0  0.5626584888145268 0.19 0  0.5551901865773963 0.19 0  0.547721884340339 0.19 0  0.5402535821032429 0.19 0  0.5327852798661811 0.19 0  0.5253169776290537 0.19 0  0.5178486753919799 0.19 0  0.5103803731549078 0.19 0  0.502912070917822 0.19 0  0.4954437686807294 0.19 0  0.4879754664436223 0.19 0  0.4805071642065402 0.19 0  0.4730388619694271 0.19 0  0.4655705597323621 0.19 0  0.4581022574952563 0.19 0  0.4506339552581777 0.19 0  0.4431656530210671 0.19 0  0.4356973507839815 0.19 0  0.4282290485468779 0.19 0  0.4207607463097617 0.19 0  0.4132924440726327 0.19 0  0.4058241418354857 0.19 0  0.3983558395983636 0.19 0  0.3908875373612097 0.19 0  0.3834192351240934 0.19 0  0.3759509328869369 0.19 0  0.3684826306498175 0.19 0  0.361014328412667 0.19 0  0.3535460261755617 0.19 0  0.3460777239384295 0.19 0  0.3386094217012945 0.19 0  0.3311411194641595 0.19 0  0.3236728172270245 0.19 0  0.3162045149898895 0.19 0  0.3087362127527544 0.19 0  0.3012679105156187 0.19 0  0.2937996082784807 0.19 0  0.2863313060413428 0.19 0  0.2788630038042048 0.19 0  0.2713947015670686 0.19 0  0.2639263993299336 0.19 0  0.2564580970927985 0.19 0  0.2607803159922026 0.2000727136295815 0  0.5887803774232762 0.2001272386983733 0  0.5745072403740523 0.2002044435018727 0  0.5511891430099709 0.2001122610077113 0  0.2751288526855082 0.20000000000002 0  0.5365194309847112 0.1999999999999436 0  0.2894621222999649 0.1998691686390484 0  0.5215828265105155 0.1999999999999228 0  0.3127789816668748 0.1998657885438805 0  0.3274069683451451 0.2000000000000796 0  0.5066462220363641 0.199999999999908 0  0.3650630746574081 0.199866017807523 0  0.476773013087985 0.1999999999998713 0  0.3417402379596385 0.1998691686391011 0  0.3796850840047755 0.200000000000134 0  0.4618364086138087 0.1999999999998546 0  0.4917096175621762 0.1999999999998808 0  0.3946216884789568 0.2000000000001512 0  0.446899804139621 0.1999999999998389 0  0.4089549580935208 0.1998691686391595 0  0.4322718174608562 0.200127451265745 0  0.4201487168029707 0.1999966199048527 0  0.3528922713220932 0.2000185703532356 0  0.5633122436674589 0.1999814296467508 0  0.3006558810093873 0.1999966199048318 0  0.5815926498168407 0.1966545283159175 0  0.2677053789419034 0.1964246479135325 0  0.5290511287476175 0.1970915826863981 0  0.5439877332217911 0.197091582686394 0  0.2825131256993216 0.2035478995978015 0  0.3199386661080599 0.202908417313604 0  0.4842413153250809 0.1970915826863873 0  0.5141145242734466 0.1970915826863843 0  0.3722167817676917 0.2029084173136195 0  0.4693047108508938 0.1970915826863783 0  0.3348752705822316 0.202908417313609 0  0.3871533862418661 0.2029084173136212 0  0.4543681063767183 0.1970915826863795 0  0.4991779197992749 0.1970915826863902 0  0.4020059614928624 0.203547899597858 0  0.4394315019025246 0.1970915826863714 0  0.2550657455369551 0.2034088125358657 0  0.2548908499171161 0.1966940311614271 0  0.5946539510196798 0.2024302972968126 0  0.267698176732111 0.2039977513680092 0  0.4261685417851465 0.196409292431739 0  0.3590076176283495 0.196411355804271 0  0.5571672426447437 0.2036011176410121 0  0.3066757059912147 0.1964092924317024 0  0.594380730180568 0.1966558399668133 0  0.4842413153245942 0.2040749161535287 0  0.4693047108503577 0.2040749161535231 0  0.3871533862424271 0.1959250838464788 0  0.372246743208829 0.1959123236376545 0  0.5141145242731028 0.2040749161535395 0  0.4543681063761134 0.2040749161535186 0  0.4019979587101454 0.1959834479682427 0  0.4394608940728603 0.2040870543693135 0  0.5439623148931173 0.2040856076781014 0  0.5290511287473298 0.2040749161535501 0  0.4991779197988497 0.2040749161535382 0  0.3347912413592433 0.1959225448935183 0  0.3199680582793816 0.1959123018030061 0  0.2825051229162361 0.1959834479681729 0  0.3590471196690275 0.2036304442587945 0  0.5571594006495384 0.1963685282145804 0  0.3067669986803285 0.203627750582736 0  0.4262598344738712 0.2036568242185335 0  0.5814408164431408 0.2041285596160068 0  0.5688286748170428 0.1961819304477386 0  0.4145905603063645 0.2038180695522843 0  0.3473758401724931 0.2038180695522752 0  0.2950977245128307 0.2038180695522663 0  0.5688286748170693 0.203818069552238 0  0.2950977245127906 0.1961819304477774 0  0.3473758401723931 0.1961819304478349 0  0.4145905603061963 0.1961819304479011 0  0.2601812407614425 0.2056861609747042
[...]
<PointData  Vectors="f_40-1"> 
<DataArray  type="Float64"  Name="f_40-1"  NumberOfComponents="3" format="ascii">0.0000000000000000e+00 0.0000000000000000e+00 0.0000000000000000e+00  0.0000000000000000e+00 0.0000000000000000e+00 0.0000000000000000e+00  0.0000000000000000e+00 0.0000000000000000e+00 0.0000000000000000e+00  0.0000000000000000e+00 0.0000000000000000e+00 0.0000000000000000e+00  -3.4788770116529574e-06 -2.7104775505451778e-07 0.0000000000000000e+00  -3.4148154387785632e-06 -6.3988905121626106e-07 0.0000000000000000e+00  0.0000000000000000e+00 0.0000000000000000e+00 0.0000000000000000e+00  0.0000000000000000e+00 0.0000000000000000e+00 0.0000000000000000e+00  0.0000000000000000e+00 0.0000000000000000e+00 0.0000000000000000e+00  0.0000000000000000e+00 0.0000000000000000e+00 0.0000000000000000e+00  -3.4555599083298760e-06 -4.5533425304278327e-07 0.0000000000000000e+00  0.0000000000000000e+00 0.0000000000000000e+00 0.0000000000000000e+00  0.0000000000000000e+00 0.0000000000000000e+00 0.0000000000000000e+00  0.0000000000000000e+00 0.0000000000000000e+00 0.0000000000000000e+00  0.0000000000000000e+00 0.0000000000000000e+00 0.0000000000000000e+00  0.0000000000000000e+00 0.0000000000000000e+00 0.0000000000000000e+00  0.0000000000000000e+00 0.0000000000000000e+00 0.0000000000000000e+00  0.0000000000000000e+00 0.0000000000000000e+00 0.0000000000000000e+00  0.0000000000000000e+00 0.0000000000000000e+00 0.0000000000000000e+00  0.0000000000000000e+00 0.0000000000000000e+00 0.0000000000000000e+00  0.0000000000000000e+00 0.0000000000000000e+00 0.0000000000000000e+00  0.0000000000000000e+00 0.0000000000000000e+00 0.0000000000000000e+00  0.0000000000000000e+00 0.0000000000000000e+00 0.0000000000000000e+00  0.0000000000000000e+00 0.0000000000000000e+00 0.0000000000000000e+00  0.0000000000000000e+00 0.0000000000000000e+00 0.0000000000000000e+00  0.0000000000000000e+00 0.0000000000000000e+00 0.0000000000000000e+00  0.0000000000000000e+00 0.0000000000000000e+00 0.0000000000000000e+00  0.0000000000000000e+00 0.0000000000000000e+00 0.0000000000000000e+00  0.0000000000000000e+00 0.0000000000000000e+00 0.0000000000000000e+00  0.0000000000000000e+00 0.0000000000000000e+00 0.0000000000000000e+00  0.0000000000000000e+00 0.0000000000000000e+00 0.0000000000000000e+00  0.0000000000000000e+00 0.0000000000000000e+00 0.0000000000000000e+00  0.0000000000000000e+00 0.0000000000000000e+00 0.0000000000000000e+00  0.0000000000000000e+00 0.0000000000000000e+00 0.0000000000000000e+00  0.0000000000000000e+00 0.0000000000000000e+00 0.0000000000000000e+00  0.0000000000000000e+00 0.0000000000000000e+00 0.0000000000000000e+00  0.0000000000000000e+00 0.0000000000000000e+00 0.0000000000000000e+00  0.0000000000000000e+00 0.0000000000000000e+00 0.0000000000000000e+00  0.0000000000000000e+00 0.0000000000000000e+00 0.0000000000000000e+00  0.0000000000000000e+00 0.0000000000000000e+00 0.0000000000000000e+00  0.0000000000000000e+00 0.0000000000000000e+00 0.0000000000000000e+00  0.0000000000000000e+00 0.0000000000000000e+00 0.0000000000000000e+00  0.0000000000000000e+00 0.0000000000000000e+00 0.0000000000000000e+00  0.0000000000000000e+00 0.0000000000000000e+00 0.0000000000000000e+00  0.0000000000000000e+00 0.0000000000000000e+00 0.0000000000000000e+00  0.0000000000000000e+00 0.0000000000000000e+00 0.0000000000000000e+00  0.0000000000000000e+00 0.0000000000000000e+00 0.0000000000000000e+00  0.0000000000000000e+00 0.0000000000000000e+00 0.0000000000000000e+00  0.0000000000000000e+00 0.0000000000000000e+00 0.0000000000000000e+00  0.0000000000000000e+00 0.0000000000000000e+00 0.0000000000000000e+00  0.0000000000000000e+00 0.0000000000000000e+00 0.0000000000000000e+00  0.0000000000000000e+00 0.0000000000000000e+00 0.0000000000000000e+00  0.0000000000000000e+00 0.0000000000000000e+00 0.0000000000000000e+00  0.0000000000000000e+00 0.0000000000000000e+00 0.0000000000000000e+00  0.0000000000000000e+00 0.0000000000000000e+00 0.0000000000000000e+00  0.0000000000000000e+00 0.0000000000000000e+00 0.0000000000000000e+00  0.0000000000000000e+00 0.0000000000000000e+00 0.0000000000000000e+00  0.0000000000000000e+00 0.0000000000000000e+00 0.0000000000000000e+00  0.0000000000000000e+00 0.0000000000000000e+00 0.0000000000000000e+00  0.0000000000000000e+00 0.0000000000000000e+00 0.0000000000000000e+00  0.0000000000000000e+00 0.0000000000000000e+00 0.0000000000000000e+00  0.0000000000000000e+00 0.0000000000000000e+00 0.0000000000000000e+00  0.0000000000000000e+00 0.0000000000000000e+00 0.0000000000000000e+00  0.0000000000000000e+00 0.0000000000000000e+00 0.0000000000000000e+00  0.0000000000000000e+00 0.0000000000000000e+00 0.0000000000000000e+00  0.0000000000000000e+00 0.0000000000000000e+00 0.0000000000000000e+00  0.0000000000000000e+00 0.0000000000000000e+00 0.0000000000000000e+00  0.0000000000000000e+00 0.0000000000000000e+00 0.0000000000000000e+00  0.0000000000000000e+00 0.0000000000000000e+00 0.0000000000000000e+00  0.0000000000000000e+00 0.0000000000000000e+00 0.0000000000000000e+00  0.0000000000000000e+00 0.0000000000000000e+00 0.0000000000000000e+00  0.0000000000000000e+00 0.0000000000000000e+00 0.0000000000000000e+00  0.0000000000000000e+00 0.0000000000000000e+00 0.0000000000000000e+00  0.0000000000000000e+00 0.0000000000000000e+00 0.0000000000000000e+00  0.0000000000000000e+00 0.0000000000000000e+00 0.0000000000000000e+00  0.0000000000000000e+00 0.0000000000000000e+00 0.0000000000000000e+00  0.0000000000000000e+00 0.0000000000000000e+00 0.0000000000000000e+00  0.0000000000000000e+00 0.0000000000000000e+00 0.0000000000000000e+00  0.0000000000000000e+00 0.0000000000000000e+00 0.0000000000000000e+00  0.0000000000000000e+00 0.0000000000000000e+00 0.0000000000000000e+00  0.0000000000000000e+00 0.0000000000000000e+00 0.0000000000000000e+00  0.0000000000000000e+00 0.0000000000000000e+00 0.0000000000000000e+00  0.0000000000000000e+00 0.0000000000000000e+00 0.0000000000000000e+00  0.0000000000000000e+00 0.0000000000000000e+00 0.0000000000000000e+00  0.0000000000000000e+00 0.0000000000000000e+00 0.0000000000000000e+00  0.0000000000000000e+00 0.0000000000000000e+00 0.0000000000000000e+00  0.0000000000000000e+00 0.0000000000000000e+00 0.0000000000000000e+00  0.0000000000000000e+00 0.0000000000000000e+00 0.0000000000000000e+00  0.0000000000000000e+00 0.0000000000000000e+00 0.0000000000000000e+00  0.0000000000000000e+00 0.0000000000000000e+00 0.0000000000000000e+00  0.0000000000000000e+00 0.0000000000000000e+00 0.0000000000000000e+00  0.0000000000000000e+00 0.0000000000000000e+00 0.0000000000000000e+00  0.0000000000000000e+00 0.0000000000000000e+00 0.0000000000000000e+00  0.0000000000000000e+00 0.0000000000000000e+00 0.0000000000000000e+00  0.0000000000000000e+00 0.0000000000000000e+00 0.0000000000000000e+00  0.0000000000000000e+00 0.0000000000000000e+00 0.0000000000000000e+00  0.0000000000000000e+00 0.0000000000000000e+00 0.0000000000000000e+00  0.0000000000000000e+00 0.0000000000000000e+00 0.0000000000000000e+00  0.0000000000000000e+00 0.0000000000000000e+00 0.0000000000000000e+00  0.0000000000000000e+00 0.0000000000000000e+00 0.0000000000000000e+00  0.0000000000000000e+00 0.0000000000000000e+00 0.0000000000000000e+00  0.0000000000000000e+00 0.0000000000000000e+00 0.0000000000000000e+00  0.0000000000000000e+00 0.0000000000000000e+00 0.0000000000000000e+00  0.0000000000000000e+00 0.0000000000000000e+00 0.0000000000000000e+00  0.0000000000000000e+00 0.0000000000000000e+00 0.0000000000000000e+00  0.0000000000000000e+00 0.0000000000000000e+00 0.0000000000000000e+00  0.0000000000000000e+00 0.0000000000000000e+00 0.0000000000000000e+00  0.0000000000000000e+00 0.0000000000000000e+00 0.0000000000000000e+00  0.0000000000000000e+00 0.0000000000000000e+00 0.0000000000000000e+00  0.0000000000000000e+00 0.0000000000000000e+00 0.0000000000000000e+00  0.0000000000000000e+00 0.0000000000000000e+00 0.0000000000000000e+00  0.0000000000000000e+00 0.0000000000000000e+00 0.0000000000000000e+00  0.0000000000000000e+00 0.0000000000000000e+00 0.0000000000000000e+00  0.0000000000000000e+00 0.0000000000000000e+00 0.0000000000000000e+00  0.0000000000000000e+00 0.0000000000000000e+00 0.0000000000000000e+00  0.0000000000000000e+00 0.0000000000000000e+00 0.0000000000000000e+00  0.0000000000000000e+00 0.0000000000000000e+00 0.0000000000000000e+00  0.0000000000000000e+00 0.0000000000000000e+00 0.0000000000000000e+00  0.0000000000000000e+00 0.0000000000000000e+00 0.0000000000000000e+00  0.0000000000000000e+00 0.0000000000000000e+00 0.0000000000000000e+00  0.0000000000000000e+00 0.0000000000000000e+00 0.0000000000000000e+00  0.0000000000000000e+00 0.0000000000000000e+00 0.0000000000000000e+00  0.0000000000000000e+00 0.0000000000000000e+00 0.0000000000000000e+00  0.0000000000000000e+00 0.0000000000000000e+00 0.0000000000000000e+00  0.0000000000000000e+00 0.0000000000000000e+00 0.0000000000000000e+00  0.0000000000000000e+00 0.0000000000000000e+00 0.0000000000000000e+00  0.0000000000000000e+00 0.0000000000000000e+00 0.0000000000000000e+00  0.0000000000000000e+00 0.0000000000000000e+00 0.0000000000000000e+00  0.0000000000000000e+00 0.0000000000000000e+00 0.0000000000000000e+00  0.0000000000000000e+00 0.0000000000000000e+00 0.0000000000000000e+00  0.0000000000000000e+00 0.0000000000000000e+00 0.0000000000000000e+00  0.0000000000000000e+00 0.0000000000000000e+00 0.0000000000000000e+00  0.0000000000000000e+00 0.0000000000000000e+00 0.0000000000000000e+00  0.0000000000000000e+00 0.0000000000000000e+00 0.0000000000000000e+00  0.0000000000000000e+00 0.0000000000000000e+00 0.0000000000000000e+00  0.0000000000000000e+00 0.0000000000000000e+00 0.0000000000000000e+00  0.0000000000000000e+00 0.0000000000000000e+00 0.0000000000000000e+00  0.0000000000000000e+00 0.0000000000000000e+00 0.0000000000000000e+00  0.0000000000000000e+00 0.0000000000000000e+00 0.0000000000000000e+00  0.0000000000000000e+00 0.0000000000000000e+00 0.0000000000000000e+00  0.0000000000000000e+00 0.0000000000000000e+00 0.0000000000000000e+00  0.0000000000000000e+00 0.0000000000000000e+00 0.0000000000000000e+00  0.0000000000000000e+00 0.0000000000000000e+00 0.0000000000000000e+00  -6.2403748910610056e-08 -2.8396353055876943e-07 0.0000000000000000e+00  -1.1911579061582261e-07 -3.0394597965849934e-07 0.0000000000000000e+00  -1.6208649740876620e-07 -3.0779715010689289e-07 0.0000000000000000e+00  -1.9831463056711860e-07 -3.0175396032333225e-07 0.0000000000000000e+00  -2.3228534865519373e-07 -2.9583047495692551e-07 0.0000000000000000e+00  -2.6827081136319268e-07 -2.9225260203653137e-07 0.0000000000000000e+00  -3.0538212570913750e-07 -2.8853722786540294e-07 0.0000000000000000e+00  -3.4475549277287646e-07 -2.8520164885791307e-07 0.0000000000000000e+00  -3.8525947871383496e-07 -2.8222658298226011e-07 0.0000000000000000e+00  -4.2787161538764152e-07 -2.7929192443698033e-07 0.0000000000000000e+00  -4.7203994129198643e-07 -2.7753499102572246e-07 0.0000000000000000e+00  -5.1823221111349588e-07 -2.7554992831639323e-07 0.0000000000000000e+00  -5.6638354910058043e-07 -2.7438022303671783e-07 0.0000000000000000e+00  -6.1615068988183878e-07 -2.7401023422981016e-07 0.0000000000000000e+00  -6.6843929240714930e-07 -2.7399009179051424e-07 0.0000000000000000e+00  -7.2195341959968052e-07 -2.7515564336451100e-07 0.0000000000000000e+00  -7.7792805009620738e-07 -2.7604393065769656e-07 0.0000000000000000e+00  -8.3569619375566674e-07 -2.7885560061461163e-07 0.0000000000000000e+00  -8.9569991551104882e-07 -2.8108015152097036e-07 0.0000000000000000e+00  -9.5743038647277656e-07 -2.8519671834959188e-07 0.0000000000000000e+00  -1.0214137593259007e-06 -2.8880496304663345e-07 0.0000000000000000e+00  -1.0876355646227566e-06 -2.9363756399133091e-07 0.0000000000000000e+00  -1.1553950572623201e-06 -2.9917523696665511e-07 0.0000000000000000e+00  -1.2258189607463529e-06 -3.0494408601998683e-07 0.0000000000000000e+00  -1.2975354603047923e-06 -3.1205447736217057e-07 0.0000000000000000e+00  -1.3717648478970524e-06 -3.1863253355537072e-07 0.0000000000000000e+00  -1.4481489934356338e-06 -3.2742586911529628e-07 0.0000000000000000e+00  -1.5264883335219333e-06 -3.3541375278425194e-07 0.0000000000000000e+00  -1.6070065798236329e-06 -3.4530831116613638e-07 0.0000000000000000e+00  -1.6894947895347816e-06 -3.5489089832146748e-07 0.0000000000000000e+00  -1.7740211989928218e-06 -3.6614907796723970e-07 0.0000000000000000e+00  -1.8608011129222057e-06 -3.7717272160976923e-07 0.0000000000000000e+00  -1.9493249977345013e-06 -3.9011921096155476e-07 0.0000000000000000e+00  -2.0402198196092195e-06 -4.0232546624527024e-07 0.0000000000000000e+00  -2.1334022948708759e-06 -4.1682806476559637e-07 0.0000000000000000e+00  -2.2285915329926217e-06 -4.3091407183827826e-07 0.0000000000000000e+00  -2.3258382991712692e-06 -4.4693381179140633e-07 0.0000000000000000e+00  -2.4252446802898407e-06 -4.6255253664173827e-07 0.0000000000000000e+00  -2.5268833565904291e-06 -4.7988164464333663e-07 0.0000000000000000e+00  -2.6309067876933679e-06 -4.9687968944824102e-07 0.0000000000000000e+00  -2.7372440185832796e-06 -5.1516513434105930e-07 0.0000000000000000e+00  -2.8454558146332826e-06 -5.3346939183959408e-07 0.0000000000000000e+00  -2.9565579009244144e-06 -5.5259780348167120e-07 0.0000000000000000e+00  -3.0689326943484573e-06 -5.7191691245120198e-07 0.0000000000000000e+00  -3.1838531193844454e-06 -5.9107808495544878e-07 0.0000000000000000e+00  -3.3000266172420351e-06 -6.1197941330115335e-07 0.0000000000000000e+00  -3.4385725312544521e-06 -5.4743842768347162e-07 0.0000000000000000e+00  -3.4698093016856964e-06 -3.6327323161410282e-07 0.0000000000000000e+00  -3.3628852919441687e-06 -2.5143889660011845e-07 0.0000000000000000e+00  -3.2458269369156708e-06 -2.2529167090311410e-07 0.0000000000000000e+00  -3.1298917823617694e-06 -1.9848709474947293e-07 0.0000000000000000e+00  -3.0162182160942096e-06 -1.7255841285400600e-07 0.0000000000000000e+00  -2.9039439525758948e-06 -1.4705303101575137e-07 0.0000000000000000e+00  -2.7944969603738105e-06 -1.2216464765500947e-07 0.0000000000000000e+00  -2.6865177144659542e-06 -9.7890905937585043e-08 0.0000000000000000e+00  -2.5810736152767158e-06 -7.3918227916958167e-08 0.0000000000000000e+00  -2.4774174157883390e-06 -5.1348225868757311e-08 0.0000000000000000e+00  -2.3761234819128088e-06 -2.8530399510161766e-08 0.0000000000000000e+00  -2.2767281573687504e-06 -7.3420504995496606e-09 0.0000000000000000e+00  -2.1797308947970890e-06 1.3895834825534544e-08 0.0000000000000000e+00  -2.0845595535094370e-06 3.3392630674644274e-08 0.0000000000000000e+00  -1.9917485236569832e-06 5.3015533620701498e-08 0.0000000000000000e+00  -1.9007808238677307e-06 7.0914793379335818e-08 0.0000000000000000e+00  -1.8121743835836065e-06 8.8988316148235435e-08 0.0000000000000000e+00  -1.7254719591249580e-06 1.0546192248558811e-07 0.0000000000000000e+00  -1.6412083308683830e-06 1.2207078372548326e-07 0.0000000000000000e+00  -1.5588047844731183e-06 1.3695748404961774e-07 0.0000000000000000e+00  -1.4787052775342562e-06 1.5206360333983411e-07 0.0000000000000000e+00  -1.4004441344429042e-06 1.6557576712392071e-07 0.0000000000000000e+00  -1.3244845299237321e-06 1.7929388018411342e-07 0.0000000000000000e+00  -1.2506820359722167e-06 1.9191562101545111e-07 0.0000000000000000e+00  -1.1786495757234745e-06 2.0393790331449230e-07 0.0000000000000000e+00  -1.1093150283229057e-06 2.1533372943239058e-07 0.0000000000000000e+00  -1.0411357940585417e-06 2.2580396335722542e-07 0.0000000000000000e+00  -9.7547140301996811e-07 2.3632680197501196e-07 0.0000000000000000e+00  -9.1164951786526865e-07 2.4494272906190617e-07 0.0000000000000000e+00  -8.5000970110456680e-07 2.5436152078840992e-07 0.0000000000000000e+00  -7.9039552884914477e-07 2.6160864488991862e-07 0.0000000000000000e+00  -7.3282814994372106e-07 2.6951595726660287e-07 0.0000000000000000e+00  -6.7739307841165500e-07 2.7565936356979307e-07 0.0000000000000000e+00  -6.2349045879860273e-07 2.8180696984050960e-07 0.0000000000000000e+00  -5.7215796450045161e-07 2.8686509002282696e-07 0.0000000000000000e+00  -5.2211287741845563e-07 2.9153129166124690e-07 0.0000000000000000e+00  -4.7447439708076851e-07 2.9570164541091148e-07 0.0000000000000000e+00  -4.2875579418395594e-07 2.9844100278895105e-07 0.0000000000000000e+00  -3.8502055720835327e-07 3.0150888978811058e-07 0.0000000000000000e+00  -3.4339135170767277e-07 3.0356021848879841e-07 0.0000000000000000e+00  -3.0319689057532914e-07 3.0534600390212902e-07 0.0000000000000000e+00  -2.6544619449424155e-07 3.0680927662960292e-07 0.0000000000000000e+00  -2.2884666261436642e-07 3.0770988121280780e-07 0.0000000000000000e+00  -1.9469713013591346e-07 3.1083943683113087e-07 0.0000000000000000e+00  -1.5832327890304362e-07 3.1329193573170883e-07 0.0000000000000000e+00  -1.1637240475709662e-07 3.0647181642758328e-07 0.0000000000000000e+00  -6.1963515292119547e-08 2.8332867024150061e-07 0.0000000000000000e+00  -1.4789522936449318e-07 -1.3287507367141627e-09 0.0000000000000000e+00  -3.2751211097022810e-06 -4.2189288398093737e-07 0.0000000000000000e+00  -3.0518360074503996e-06 -3.7929179798689356e-07 0.0000000000000000e+00  -2.7079225162389881e-06 -3.0903260841930338e-07 0.0000000000000000e+00  -1.7987854026076274e-07 3.4551368054817697e-09 0.0000000000000000e+00  -2.5027456893660320e-06 -2.6637720755954987e-07 0.0000000000000000e+00  -2.4533719924696617e-07 1.0608612992219104e-08 0.0000000000000000e+00  -2.3018699339849469e-06 -2.2785397464557739e-07 0.0000000000000000e+00  -3.6616965664614651e-07 1.3676831289347128e-08 0.0000000000000000e+00  -4.5090639322093806e-07 9.7321802221213609e-09 0.0000000000000000e+00  -2.1095433125429615e-06 -1.9242790287701645e-07 0.0000000000000000e+00  -7.0232269762356204e-07 3.0348172473232481e-09 0.0000000000000000e+00  -1.7503759127715435e-06 -1.3106652986268104e-07 0.0000000000000000e+00  -5.4061745502382488e-07 1.1462124855499465e-08 0.0000000000000000e+00  -8.1360160907015100e-07 -9.2366470341575319e-09 0.0000000000000000e+00  -1.5834369433704420e-06 -1.0491039905722099e-07 0.0000000000000000e+00  -1.9257221465230718e-06 -1.6019341834872467e-07 0.0000000000000000e+00  -9.3509249398828928e-07 -2.0686236449574181e-08 0.0000000000000000e+00  -1.4248611432381743e-06 -8.1602015429486421e-08 0.0000000000000000e+00  -1.0593254473310525e-06 -3.0800656177436338e-08 0.0000000000000000e+00  -1.2772947189436128e-06 -6.4468183647109992e-08 0.0000000000000000e+00  -1.1620403017682134e-06 -4.6485380147917222e-08 0.0000000000000000e+00  -6.1602329123896155e-07 3.9182529129232705e-09 0.0000000000000000e+00  -2.8851768158097141e-06 -3.4162139536419938e-07 0.0000000000000000e+00  -3.0178596691069550e-07 8.5458751178115105e-09 0.0000000000000000e+00  -3.1722939718070944e-06 -3.3575767956886344e-07 0.0000000000000000e+00  -1.5460082989642258e-07 1.1787797909039433e-07 0.0000000000000000e+00  -2.4087878119716104e-06 -1.8650495054869171e-07 0.0000000000000000e+00  -2.6144711194156116e-06 -2.2818739451990364e-07 0.0000000000000000e+00  -2.1348684642237047e-07 -1.0250471904137269e-07 0.0000000000000000e+00  -4.0684444325917073e-07 -7.4513822365197717e-08 0.0000000000000000e+00  -1.8427955572263812e-06 -7.9651879114113075e-08 0.0000000000000000e+00  -2.2116314295806213e-06 -1.4768193218031055e-07 0.0000000000000000e+00  -7.5421945159261131e-07 -8.3251832580625941e-08 0.0000000000000000e+00  -1.6710740821929354e-06 -5.0226056649777477e-08 0.0000000000000000e+00  -4.9644456770876500e-07 -7.4005573957373925e-08 0.0000000000000000e+00  -8.7127302200004997e-07 -9.1728590673239781e-08 0.0000000000000000e+00  -1.5077997578911516e-06 -2.3762301958876267e-08 0.0000000000000000e+00  -2.0229927395146305e-06 -1.1207618843324115e-07 0.0000000000000000e+00  -9.9492276939045138e-07 -1.1939068809594588e-07 0.0000000000000000e+00  -1.3528194737140799e-06 -6.4373454466835454e-11 0.0000000000000000e+00  -1.0459379807179681e-07 -6.7684189629527933e-08 0.0000000000000000e+00  -1.0187916756644162e-07 6.1123236957185552e-08 0.0000000000000000e+00  -3.3620392346888080e-06 -4.8212690695407546e-07 0.000