<?xml version="1.0"?>
<VTKFile type="UnstructuredGrid"  version="0.1"  >
<UnstructuredGrid>
<Piece  NumberOfPoints="1419" NumberOfCells="2698">
<Points>
<DataArray  type="Float64"  NumberOfComponents="3"  format="ascii">0 0 0  0 0.41 0  2.5 0 0  2.5 0.41 0  0.6 0.19 0  0.6 0.21 0  0.25 0.2 0  0.15 0.2 0  0.2489897948556636 0.21 0  0.2489897948556636 0.19 0  0.6 0.2 0  0 0.3807142857143437 0  0 0.3514285714286952 0  0 0.3221428571430699 0  0 0.29285714285744 0  0 0.2635714285718054 0  0 0.2342857142861561 0  0 0.2050000000005308 0  0 0.175714285714732 0  0 0.1464285714289574 0  0 0.1171428571431897 0  0 0.08785714285737878 0  0 0.05857142857161107 0  0 0.02928571428580012 0  0.03015443760436003 0 0  0.06140001986583606 0 0  0.09377624077125973 0 0  0.1273239957535082 0 0  0.1620856860351972 0 0  0.1981052433264291 0 0  0.235428184091502 0 0  0.2741016576309132 0 0  0.3141745521465447 0 0  0.3556974926295285 0 0  0.3987229542472677 0 0  0.4433053055141081 0 0  0.4895008759286886 0 0  0.5373680609405097 0 0  0.5869673343216626 0 0  0.6383613676634521 0 0  0.6916151138468254 0 0  0.7467958595648856 0 0  0.8039733463919316 0 0  0.8632198139502143 0 0  0.9246101326867038 0 0  0.9882218810934433 0 0  1.054135445558498 0 0  1.122434100542598 0 0  1.193204177141305 0 0  1.266535089879536 0 0  1.342519516046404 0 0  1.421253448503939 0 0  1.502836389106271 0 0  1.587371439758838 0 0  1.674965418777374 0 0  1.765729001825544 0 0  1.859776908880082 0 0  1.957227977487062 0 0  2.058205329869943 0 0  2.162836591189951 0 0  2.271253957290865 0 0  2.383594446803425 0 0  2.5 0.1024999999997612 0  2.5 0.2049999999994743 0  2.5 0.3074999999997183 0  2.383594446803656 0.41 0  2.271253957291315 0.41 0  2.162836591190598 0.41 0  2.058205329870775 0.41 0  1.957227977488067 0.41 0  1.859776908881246 0.41 0  1.765729001826854 0.41 0  1.674965418778818 0.41 0  1.58737143976041 0.41 0  1.502836389107956 0.41 0  1.421253448505726 0.41 0  1.342519516048286 0.41 0  1.266535089881505 0.41 0  1.193204177143353 0.41 0  1.122434100544716 0.41 0  1.05413544556068 0.41 0  0.9882218810956305 0.41 0  0.9246101326886647 0.41 0  0.8632198139519631 0.41 0  0.8039733463934788 0.41 0  0.7467958595662458 0.41 0  0.6916151138480078 0.41 0  0.6383613676644679 0.41 0  0.5869673343225223 0.41 0  0.5373680609412221 0.41 0  0.4895008759292634 0.41 0  0.4433053055145528 0.41 0  0.3987229542475914 0.41 0  0.3556974926297398 0.41 0  0.3141745521466497 0.41 0  0.2741016576310038 0.41 0  0.2354281840915826 0.41 0  0.1981052433265003 0.41 0  0.1620856860352591 0.41 0  0.1273239957535623 0.41 0  0.09377624077128965 0.41 0  0.06140001986584975 0.41 0  0.03015443760436654 0.41 0  0.2497468076502589 0.2050254481002335 0  0.2497468076502614 0.1949745518997913 0  0.2469965252529372 0.1829317073451959 0  0.2439893735792749 0.1762316384219906 0  0.2400332147834255 0.1700443375285386 0  0.2352133972704371 0.1645032867342007 0  0.2296339016332438 0.1597280261969788 0  0.2234150974217223 0.1558215752574715 0  0.2166911463437691 0.1528682099456123 0  0.2096071079204251 0.1509316448471593 0  0.2023158100364996 0.1500536585536553 0  0.194974551899914 0.1502531923497262 0  0.1877417105387872 0.1515259415822739 0  0.1807733240461124 0.153844448527136 0  0.1742197252835808 0.15715869474974 0  0.1682222986673531 0.1613971801805478 0  0.162910430003803 0.1664684656256651 0  0.1583987151779087 0.1722631454351573 0  0.1547844879126891 0.178656207771761 0  0.1521457199348551 0.1855097315605723 0  0.1505393388476355 0.1926758619366523 0  0.1505393388476328 0.2073241380633295 0  0.1521457199348437 0.2144902684393899 0  0.1547844879126531 0.221343792228163 0  0.1583987151778488 0.2277368545647528 0  0.1629104300036858 0.2335315343742052 0  0.1682222986671726 0.2386028198193036 0  0.1742197252833576 0.2428413052501257 0  0.1807733240458683 0.2461555514727623 0  0.1877417105384929 0.2484740584176516 0  0.1949745518995776 0.2497468076502398 0  0.202315810036185 0.2499463414463592 0  0.2096071079201568 0.2490683551528932 0  0.2166911463435495 0.2471317900544655 0  0.2234150974215506 0.2441784247426195 0  0.2296339016331197 0.2402719738031125 0  0.2352133972703547 0.2354967132658811 0  0.2400332147833751 0.2299556624715287 0  0.2439893735792577 0.2237683615780412 0  0.246996525252926 0.2170682926548348 0  0.25645809709277 0.21 0  0.2639263993298655 0.21 0  0.271394701566961 0.21 0  0.2788630038040554 0.21 0  0.2863313060411479 0.21 0  0.2937996082782405 0.21 0  0.301267910515333 0.21 0  0.3087362127524279 0.21 0  0.3162045149895234 0.21 0  0.3236728172265972 0.21 0  0.3311411194636928 0.21 0  0.3386094217007701 0.21 0  0.3460777239378666 0.21 0  0.3535460261749672 0.21 0  0.3610143284120516 0.21 0  0.3684826306491596 0.21 0  0.3759509328862226 0.21 0  0.383419235123329 0.21 0  0.3908875373604028 0.21 0  0.3983558395975142 0.21 0  0.4058241418345938 0.21 0  0.4132924440716992 0.21 0  0.4207607463087888 0.21 0  0.4282290485459029 0.21 0  0.4356973507830418 0.21 0  0.4431656530201649 0.21 0  0.4506339552573136 0.21 0  0.4581022574944306 0.21 0  0.4655705597315852 0.21 0  0.4730388619686996 0.21 0  0.480507164205851 0.21 0  0.4879754664429498 0.21 0  0.4954437686800938 0.21 0  0.502912070917267 0.21 0  0.5103803731544119 0.21 0  0.5178486753915261 0.21 0  0.5253169776286404 0.21 0  0.5327852798657868 0.21 0  0.5402535821029386 0.21 0  0.54772188434007 0.21 0  0.5551901865771842 0.21 0  0.5626584888143201 0.21 0  0.5701267910514778 0.21 0  0.5775950932886138 0.21 0  0.5850633955257281 0.21 0  0.5925316977628483 0.21 0  0.6 0.2050000000000054 0  0.6 0.1950000000000217 0  0.5925316977628897 0.19 0  0.5850633955257988 0.19 0  0.5775950932887378 0.19 0  0.5701267910515998 0.19 0  0.5626584888145268 0.19 0  0.5551901865773963 0.19 0  0.547721884340339 0.19 0  0.5402535821032429 0.19 0  0.5327852798661811 0.19 0  0.5253169776290537 0.19 0  0.5178486753919799 0.19 0  0.5103803731549078 0.19 0  0.502912070917822 0.19 0  0.4954437686807294 0.19 0  0.4879754664436223 0.19 0  0.4805071642065402 0.19 0  0.4730388619694271 0.19 0  0.4655705597323621 0.19 0  0.4581022574952563 0.19 0  0.4506339552581777 0.19 0  0.4431656530210671 0.19 0  0.4356973507839815 0.19 0  0.4282290485468779 0.19 0  0.4207607463097617 0.19 0  0.4132924440726327 0.19 0  0.4058241418354857 0.19 0  0.3983558395983636 0.19 0  0.3908875373612097 0.19 0  0.3834192351240934 0.19 0  0.3759509328869369 0.19 0  0.3684826306498175 0.19 0  0.361014328412667 0.19 0  0.3535460261755617 0.19 0  0.3460777239384295 0.19 0  0.3386094217012945 0.19 0  0.3311411194641595 0.19 0  0.3236728172270245 0.19 0  0.3162045149898895 0.19 0  0.3087362127527544 0.19 0  0.3012679105156187 0.19 0  0.2937996082784807 0.19 0  0.2863313060413428 0.19 0  0.2788630038042048 0.19 0  0.2713947015670686 0.19 0  0.2639263993299336 0.19 0  0.2564580970927985 0.19 0  0.2607803159922026 0.2000727136295815 0  0.5887803774232762 0.2001272386983733 0  0.5745072403740523 0.2002044435018727 0  0.5511891430099709 0.2001122610077113 0  0.2751288526855082 0.20000000000002 0  0.5365194309847112 0.1999999999999436 0  0.2894621222999649 0.1998691686390484 0  0.5215828265105155 0.1999999999999228 0  0.3127789816668748 0.1998657885438805 0  0.3274069683451451 0.2000000000000796 0  0.5066462220363641 0.199999999999908 0  0.3650630746574081 0.199866017807523 0  0.476773013087985 0.1999999999998713 0  0.3417402379596385 0.1998691686391011 0  0.3796850840047755 0.200000000000134 0  0.4618364086138087 0.1999999999998546 0  0.4917096175621762 0.1999999999998808 0  0.3946216884789568 0.2000000000001512 0  0.446899804139621 0.1999999999998389 0  0.4089549580935208 0.1998691686391595 0  0.4322718174608562 0.200127451265745 0  0.4201487168029707 0.1999966199048527 0  0.3528922713220932 0.2000185703532356 0  0.5633122436674589 0.1999814296467508 0  0.3006558810093873 0.1999966199048318 0  0.5815926498168407 0.1966545283159175 0  0.2677053789419034 0.1964246479135325 0  0.5290511287476175 0.1970915826863981 0  0.5439877332217911 0.197091582686394 0  0.2825131256993216 0.2035478995978015 0  0.3199386661080599 0.202908417313604 0  0.4842413153250809 0.1970915826863873 0  0.5141145242734466 0.1970915826863843 0  0.3722167817676917 0.2029084173136195 0  0.4693047108508938 0.1970915826863783 0  0.3348752705822316 0.202908417313609 0  0.3871533862418661 0.2029084173136212 0  0.4543681063767183 0.1970915826863795 0  0.4991779197992749 0.1970915826863902 0  0.4020059614928624 0.203547899597858 0  0.4394315019025246 0.1970915826863714 0  0.2550657455369551 0.2034088125358657 0  0.2548908499171161 0.1966940311614271 0  0.5946539510196798 0.2024302972968126 0  0.267698176732111 0.2039977513680092 0  0.4261685417851465 0.196409292431739 0  0.3590076176283495 0.196411355804271 0  0.5571672426447437 0.2036011176410121 0  0.3066757059912147 0.1964092924317024 0  0.594380730180568 0.1966558399668133 0  0.4842413153245942 0.2040749161535287 0  0.4693047108503577 0.2040749161535231 0  0.3871533862424271 0.1959250838464788 0  0.372246743208829 0.1959123236376545 0  0.5141145242731028 0.2040749161535395 0  0.4543681063761134 0.2040749161535186 0  0.4019979587101454 0.1959834479682427 0  0.4394608940728603 0.2040870543693135 0  0.5439623148931173 0.2040856076781014 0  0.5290511287473298 0.2040749161535501 0  0.4991779197988497 0.2040749161535382 0  0.3347912413592433 0.1959225448935183 0  0.3199680582793816 0.1959123018030061 0  0.2825051229162361 0.1959834479681729 0  0.3590471196690275 0.2036304442587945 0  0.5571594006495384 0.1963685282145804 0  0.3067669986803285 0.203627750582736 0  0.4262598344738712 0.2036568242185335 0  0.5814408164431408 0.2041285596160068 0  0.5688286748170428 0.1961819304477386 0  0.4145905603063645 0.2038180695522843 0  0.3473758401724931 0.2038180695522752 0  0.2950977245128307 0.2038180695522663 0  0.5688286748170693 0.203818069552238 0  0.2950977245127906 0.1961819304477774 0  0.3473758401723931 0.1961819304478349 0  0.4145905603061963 0.1961819304479011 0  0.2601812407614425 0.2056861609747042
[...]
<PointData  Vectors="f_40-1"> 
<DataArray  type="Float64"  Name="f_40-1"  NumberOfComponents="3" format="ascii">0.0000000000000000e+00 0.0000000000000000e+00 0.0000000000000000e+00  0.0000000000000000e+00 0.0000000000000000e+00 0.0000000000000000e+00  0.0000000000000000e+00 0.0000000000000000e+00 0.0000000000000000e+00  0.0000000000000000e+00 0.0000000000000000e+00 0.0000000000000000e+00  -4.2816682447520386e-06 -6.0584497005169924e-07 0.0000000000000000e+00  -4.1718470116336281e-06 -1.0702237409764942e-06 0.0000000000000000e+00  0.0000000000000000e+00 0.0000000000000000e+00 0.0000000000000000e+00  0.0000000000000000e+00 0.0000000000000000e+00 0.0000000000000000e+00  0.0000000000000000e+00 0.0000000000000000e+00 0.0000000000000000e+00  0.0000000000000000e+00 0.0000000000000000e+00 0.0000000000000000e+00  -4.2395843236538146e-06 -8.3792715601597313e-07 0.0000000000000000e+00  0.0000000000000000e+00 0.0000000000000000e+00 0.0000000000000000e+00  0.0000000000000000e+00 0.0000000000000000e+00 0.0000000000000000e+00  0.0000000000000000e+00 0.0000000000000000e+00 0.0000000000000000e+00  0.0000000000000000e+00 0.0000000000000000e+00 0.0000000000000000e+00  0.0000000000000000e+00 0.0000000000000000e+00 0.0000000000000000e+00  0.0000000000000000e+00 0.0000000000000000e+00 0.0000000000000000e+00  0.0000000000000000e+00 0.0000000000000000e+00 0.0000000000000000e+00  0.0000000000000000e+00 0.0000000000000000e+00 0.0000000000000000e+00  0.0000000000000000e+00 0.0000000000000000e+00 0.0000000000000000e+00  0.0000000000000000e+00 0.0000000000000000e+00 0.0000000000000000e+00  0.0000000000000000e+00 0.0000000000000000e+00 0.0000000000000000e+00  0.0000000000000000e+00 0.0000000000000000e+00 0.0000000000000000e+00  0.0000000000000000e+00 0.0000000000000000e+00 0.0000000000000000e+00  0.0000000000000000e+00 0.0000000000000000e+00 0.0000000000000000e+00  0.0000000000000000e+00 0.0000000000000000e+00 0.0000000000000000e+00  0.0000000000000000e+00 0.0000000000000000e+00 0.0000000000000000e+00  0.0000000000000000e+00 0.0000000000000000e+00 0.0000000000000000e+00  0.0000000000000000e+00 0.0000000000000000e+00 0.0000000000000000e+00  0.0000000000000000e+00 0.0000000000000000e+00 0.0000000000000000e+00  0.0000000000000000e+00 0.0000000000000000e+00 0.0000000000000000e+00  0.0000000000000000e+00 0.0000000000000000e+00 0.0000000000000000e+00  0.0000000000000000e+00 0.0000000000000000e+00 0.0000000000000000e+00  0.0000000000000000e+00 0.0000000000000000e+00 0.0000000000000000e+00  0.0000000000000000e+00 0.0000000000000000e+00 0.0000000000000000e+00  0.0000000000000000e+00 0.0000000000000000e+00 0.0000000000000000e+00  0.0000000000000000e+00 0.0000000000000000e+00 0.0000000000000000e+00  0.0000000000000000e+00 0.0000000000000000e+00 0.0000000000000000e+00  0.0000000000000000e+00 0.0000000000000000e+00 0.0000000000000000e+00  0.0000000000000000e+00 0.0000000000000000e+00 0.0000000000000000e+00  0.0000000000000000e+00 0.0000000000000000e+00 0.0000000000000000e+00  0.0000000000000000e+00 0.0000000000000000e+00 0.0000000000000000e+00  0.0000000000000000e+00 0.0000000000000000e+00 0.0000000000000000e+00  0.0000000000000000e+00 0.0000000000000000e+00 0.0000000000000000e+00  0.0000000000000000e+00 0.0000000000000000e+00 0.0000000000000000e+00  0.0000000000000000e+00 0.0000000000000000e+00 0.0000000000000000e+00  0.0000000000000000e+00 0.0000000000000000e+00 0.0000000000000000e+00  0.0000000000000000e+00 0.0000000000000000e+00 0.0000000000000000e+00  0.0000000000000000e+00 0.0000000000000000e+00 0.0000000000000000e+00  0.0000000000000000e+00 0.0000000000000000e+00 0.0000000000000000e+00  0.0000000000000000e+00 0.0000000000000000e+00 0.0000000000000000e+00  0.0000000000000000e+00 0.0000000000000000e+00 0.0000000000000000e+00  0.0000000000000000e+00 0.0000000000000000e+00 0.0000000000000000e+00  0.0000000000000000e+00 0.0000000000000000e+00 0.0000000000000000e+00  0.0000000000000000e+00 0.0000000000000000e+00 0.0000000000000000e+00  0.0000000000000000e+00 0.0000000000000000e+00 0.0000000000000000e+00  0.0000000000000000e+00 0.0000000000000000e+00 0.0000000000000000e+00  0.0000000000000000e+00 0.0000000000000000e+00 0.0000000000000000e+00  0.0000000000000000e+00 0.0000000000000000e+00 0.0000000000000000e+00  0.0000000000000000e+00 0.0000000000000000e+00 0.0000000000000000e+00  0.0000000000000000e+00 0.0000000000000000e+00 0.0000000000000000e+00  0.0000000000000000e+00 0.0000000000000000e+00 0.0000000000000000e+00  0.0000000000000000e+00 0.0000000000000000e+00 0.0000000000000000e+00  0.0000000000000000e+00 0.0000000000000000e+00 0.0000000000000000e+00  0.0000000000000000e+00 0.0000000000000000e+00 0.0000000000000000e+00  0.0000000000000000e+00 0.0000000000000000e+00 0.0000000000000000e+00  0.0000000000000000e+00 0.0000000000000000e+00 0.0000000000000000e+00  0.0000000000000000e+00 0.0000000000000000e+00 0.0000000000000000e+00  0.0000000000000000e+00 0.0000000000000000e+00 0.0000000000000000e+00  0.0000000000000000e+00 0.0000000000000000e+00 0.0000000000000000e+00  0.0000000000000000e+00 0.0000000000000000e+00 0.0000000000000000e+00  0.0000000000000000e+00 0.0000000000000000e+00 0.0000000000000000e+00  0.0000000000000000e+00 0.0000000000000000e+00 0.0000000000000000e+00  0.0000000000000000e+00 0.0000000000000000e+00 0.0000000000000000e+00  0.0000000000000000e+00 0.0000000000000000e+00 0.0000000000000000e+00  0.0000000000000000e+00 0.0000000000000000e+00 0.0000000000000000e+00  0.0000000000000000e+00 0.0000000000000000e+00 0.0000000000000000e+00  0.0000000000000000e+00 0.0000000000000000e+00 0.0000000000000000e+00  0.0000000000000000e+00 0.0000000000000000e+00 0.0000000000000000e+00  0.0000000000000000e+00 0.0000000000000000e+00 0.0000000000000000e+00  0.0000000000000000e+00 0.0000000000000000e+00 0.0000000000000000e+00  0.0000000000000000e+00 0.0000000000000000e+00 0.0000000000000000e+00  0.0000000000000000e+00 0.0000000000000000e+00 0.0000000000000000e+00  0.0000000000000000e+00 0.0000000000000000e+00 0.0000000000000000e+00  0.0000000000000000e+00 0.0000000000000000e+00 0.0000000000000000e+00  0.0000000000000000e+00 0.0000000000000000e+00 0.0000000000000000e+00  0.0000000000000000e+00 0.0000000000000000e+00 0.0000000000000000e+00  0.0000000000000000e+00 0.0000000000000000e+00 0.0000000000000000e+00  0.0000000000000000e+00 0.0000000000000000e+00 0.0000000000000000e+00  0.0000000000000000e+00 0.0000000000000000e+00 0.0000000000000000e+00  0.0000000000000000e+00 0.0000000000000000e+00 0.0000000000000000e+00  0.0000000000000000e+00 0.0000000000000000e+00 0.0000000000000000e+00  0.0000000000000000e+00 0.0000000000000000e+00 0.0000000000000000e+00  0.0000000000000000e+00 0.0000000000000000e+00 0.0000000000000000e+00  0.0000000000000000e+00 0.0000000000000000e+00 0.0000000000000000e+00  0.0000000000000000e+00 0.0000000000000000e+00 0.0000000000000000e+00  0.0000000000000000e+00 0.0000000000000000e+00 0.0000000000000000e+00  0.0000000000000000e+00 0.0000000000000000e+00 0.0000000000000000e+00  0.0000000000000000e+00 0.0000000000000000e+00 0.0000000000000000e+00  0.0000000000000000e+00 0.0000000000000000e+00 0.0000000000000000e+00  0.0000000000000000e+00 0.0000000000000000e+00 0.0000000000000000e+00  0.0000000000000000e+00 0.0000000000000000e+00 0.0000000000000000e+00  0.0000000000000000e+00 0.0000000000000000e+00 0.0000000000000000e+00  0.0000000000000000e+00 0.0000000000000000e+00 0.0000000000000000e+00  0.0000000000000000e+00 0.0000000000000000e+00 0.0000000000000000e+00  0.0000000000000000e+00 0.0000000000000000e+00 0.0000000000000000e+00  0.0000000000000000e+00 0.0000000000000000e+00 0.0000000000000000e+00  0.0000000000000000e+00 0.0000000000000000e+00 0.0000000000000000e+00  0.0000000000000000e+00 0.0000000000000000e+00 0.0000000000000000e+00  0.0000000000000000e+00 0.0000000000000000e+00 0.0000000000000000e+00  0.0000000000000000e+00 0.0000000000000000e+00 0.0000000000000000e+00  0.0000000000000000e+00 0.0000000000000000e+00 0.0000000000000000e+00  0.0000000000000000e+00 0.0000000000000000e+00 0.0000000000000000e+00  0.0000000000000000e+00 0.0000000000000000e+00 0.0000000000000000e+00  0.0000000000000000e+00 0.0000000000000000e+00 0.0000000000000000e+00  0.0000000000000000e+00 0.0000000000000000e+00 0.0000000000000000e+00  0.0000000000000000e+00 0.0000000000000000e+00 0.0000000000000000e+00  0.0000000000000000e+00 0.0000000000000000e+00 0.0000000000000000e+00  0.0000000000000000e+00 0.0000000000000000e+00 0.0000000000000000e+00  0.0000000000000000e+00 0.0000000000000000e+00 0.0000000000000000e+00  0.0000000000000000e+00 0.0000000000000000e+00 0.0000000000000000e+00  0.0000000000000000e+00 0.0000000000000000e+00 0.0000000000000000e+00  0.0000000000000000e+00 0.0000000000000000e+00 0.0000000000000000e+00  0.0000000000000000e+00 0.0000000000000000e+00 0.0000000000000000e+00  0.0000000000000000e+00 0.0000000000000000e+00 0.0000000000000000e+00  0.0000000000000000e+00 0.0000000000000000e+00 0.0000000000000000e+00  0.0000000000000000e+00 0.0000000000000000e+00 0.0000000000000000e+00  0.0000000000000000e+00 0.0000000000000000e+00 0.0000000000000000e+00  0.0000000000000000e+00 0.0000000000000000e+00 0.0000000000000000e+00  0.0000000000000000e+00 0.0000000000000000e+00 0.0000000000000000e+00  0.0000000000000000e+00 0.0000000000000000e+00 0.0000000000000000e+00  0.0000000000000000e+00 0.0000000000000000e+00 0.0000000000000000e+00  0.0000000000000000e+00 0.0000000000000000e+00 0.0000000000000000e+00  0.0000000000000000e+00 0.0000000000000000e+00 0.0000000000000000e+00  0.0000000000000000e+00 0.0000000000000000e+00 0.0000000000000000e+00  0.0000000000000000e+00 0.0000000000000000e+00 0.0000000000000000e+00  0.0000000000000000e+00 0.0000000000000000e+00 0.0000000000000000e+00  0.0000000000000000e+00 0.0000000000000000e+00 0.0000000000000000e+00  0.0000000000000000e+00 0.0000000000000000e+00 0.0000000000000000e+00  0.0000000000000000e+00 0.0000000000000000e+00 0.0000000000000000e+00  0.0000000000000000e+00 0.0000000000000000e+00 0.0000000000000000e+00  0.0000000000000000e+00 0.0000000000000000e+00 0.0000000000000000e+00  0.0000000000000000e+00 0.0000000000000000e+00 0.0000000000000000e+00  -7.5428357376602379e-08 -3.5730679547930718e-07 0.0000000000000000e+00  -1.4345652780840424e-07 -3.8213136696481942e-07 0.0000000000000000e+00  -1.9407527801324937e-07 -3.8651041547315277e-07 0.0000000000000000e+00  -2.3619385053764394e-07 -3.7842882489322166e-07 0.0000000000000000e+00  -2.7549499689233508e-07 -3.7049670819028342e-07 0.0000000000000000e+00  -3.1733351892310418e-07 -3.6565055965042195e-07 0.0000000000000000e+00  -3.6063208333475410e-07 -3.6074065618860082e-07 0.0000000000000000e+00  -4.0680283390778482e-07 -3.5651565246343875e-07 0.0000000000000000e+00  -4.5435911891172374e-07 -3.5295036430036915e-07 0.0000000000000000e+00  -5.0470253495427494e-07 -3.4965526364193852e-07 0.0000000000000000e+00  -5.5694432002269769e-07 -3.4818674795658470e-07 0.0000000000000000e+00  -6.1188719150228433e-07 -3.4668831889562498e-07 0.0000000000000000e+00  -6.6924311073281297e-07 -3.4659312099857675e-07 0.0000000000000000e+00  -7.2876334845987287e-07 -3.4781450448646751e-07 0.0000000000000000e+00  -7.9148375807970603e-07 -3.4986618836043887e-07 0.0000000000000000e+00  -8.5568155891363942e-07 -3.5378933376925246e-07 0.0000000000000000e+00  -9.2316654202521032e-07 -3.5770192184610504e-07 0.0000000000000000e+00  -9.9280490407249675e-07 -3.6452281798410912e-07 0.0000000000000000e+00  -1.0654563340750628e-06 -3.7094971350374965e-07 0.0000000000000000e+00  -1.1401702846929330e-06 -3.8025379252134674e-07 0.0000000000000000e+00  -1.2178905230255862e-06 -3.8930953303107783e-07 0.0000000000000000e+00  -1.2983600665360790e-06 -4.0043797942537426e-07 0.0000000000000000e+00  -1.3809195382950996e-06 -4.1284568437849350e-07 0.0000000000000000e+00  -1.4668348032067796e-06 -4.2605008877837387e-07 0.0000000000000000e+00  -1.5543208571089014e-06 -4.4138398342325267e-07 0.0000000000000000e+00  -1.6450971722276795e-06 -4.5649430325641834e-07 0.0000000000000000e+00  -1.7386106542192175e-06 -4.7490261287954625e-07 0.0000000000000000e+00  -1.8346661286107865e-06 -4.9267717245696702e-07 0.0000000000000000e+00  -1.9334841417763317e-06 -5.1332217362266418e-07 0.0000000000000000e+00  -2.0348752929676326e-06 -5.3392746845304509e-07 0.0000000000000000e+00  -2.1388545473274642e-06 -5.5706874375764116e-07 0.0000000000000000e+00  -2.2457652384247121e-06 -5.8019243092135197e-07 0.0000000000000000e+00  -2.3549148755643166e-06 -6.0611182699439267e-07 0.0000000000000000e+00  -2.4671313534406369e-06 -6.3132116641470533e-07 0.0000000000000000e+00  -2.5822595811582432e-06 -6.5970852043012968e-07 0.0000000000000000e+00  -2.7000005506355217e-06 -6.8768543989079248e-07 0.0000000000000000e+00  -2.8203755457898572e-06 -7.1831070591639822e-07 0.0000000000000000e+00  -2.9435461105618781e-06 -7.4851810352801041e-07 0.0000000000000000e+00  -3.0695617526275421e-06 -7.8104849071539042e-07 0.0000000000000000e+00  -3.1986349719628741e-06 -8.1317219651881821e-07 0.0000000000000000e+00  -3.3306688190176562e-06 -8.4699238777355508e-07 0.0000000000000000e+00  -3.4651090661191654e-06 -8.8084037957890026e-07 0.0000000000000000e+00  -3.6031733706551328e-06 -9.1575672929741363e-07 0.0000000000000000e+00  -3.7428406118326957e-06 -9.5088086214076852e-07 0.0000000000000000e+00  -3.8857419572289153e-06 -9.8577864376120318e-07 0.0000000000000000e+00  -4.0300078456949108e-06 -1.0231088485507577e-06 0.0000000000000000e+00  -4.2105700823252061e-06 -9.5379292391288630e-07 0.0000000000000000e+00  -4.2643973560734237e-06 -7.2211131995002656e-07 0.0000000000000000e+00  -4.1382569895154996e-06 -5.7152215318854143e-07 0.0000000000000000e+00  -3.9928372175356195e-06 -5.2782675468953258e-07 0.0000000000000000e+00  -3.8486204959941170e-06 -4.8317762692530941e-07 0.0000000000000000e+00  -3.7072732353325892e-06 -4.3968616112151671e-07 0.0000000000000000e+00  -3.5676719444955380e-06 -3.9673900280942386e-07 0.0000000000000000e+00  -3.4316124323769658e-06 -3.5458438596117383e-07 0.0000000000000000e+00  -3.2973829761160266e-06 -3.1324064698966533e-07 0.0000000000000000e+00  -3.1663631962668567e-06 -2.7228860707983946e-07 0.0000000000000000e+00  -3.0375483473098204e-06 -2.3321724544724362e-07 0.0000000000000000e+00  -2.9117216954206379e-06 -1.9389718408622778e-07 0.0000000000000000e+00  -2.7882070403525787e-06 -1.5680419118997566e-07 0.0000000000000000e+00  -2.6677384833944614e-06 -1.1976010656237323e-07 0.0000000000000000e+00  -2.5494702739654019e-06 -8.5129453319855149e-08 0.0000000000000000e+00  -2.4342260507956004e-06 -5.0527439668064564e-08 0.0000000000000000e+00  -2.3211848365799388e-06 -1.8407204800375973e-08 0.0000000000000000e+00  -2.2111938641444020e-06 1.3661737707512020e-08 0.0000000000000000e+00  -2.1034619237447964e-06 4.3331754146764646e-08 0.0000000000000000e+00  -1.9989060389031274e-06 7.2853724965970842e-08 0.0000000000000000e+00  -1.8965519764477628e-06 9.9768537842929615e-08 0.0000000000000000e+00  -1.7972465046987965e-06 1.2659537583180275e-07 0.0000000000000000e+00  -1.7001190315869216e-06 1.5092468077325986e-07 0.0000000000000000e+00  -1.6060596926763068e-06 1.7511357692199752e-07 0.0000000000000000e+00  -1.5146072062799035e-06 1.9741811131855960e-07 0.0000000000000000e+00  -1.4255257158452169e-06 2.1855780060953280e-07 0.0000000000000000e+00  -1.3398720201008702e-06 2.3839206520152968e-07 0.0000000000000000e+00  -1.2556022138800229e-06 2.5667001476579283e-07 0.0000000000000000e+00  -1.1746589214575938e-06 2.7456242071929560e-07 0.0000000000000000e+00  -1.0960515204630004e-06 2.8954852073969865e-07 0.0000000000000000e+00  -1.0203070542719160e-06 3.0517896545929185e-07 0.0000000000000000e+00  -9.4714067673611828e-07 3.1758993232187029e-07 0.0000000000000000e+00  -8.7667635352235494e-07 3.3052764682249797e-07 0.0000000000000000e+00  -8.0892873619046282e-07 3.4075347820481240e-07 0.0000000000000000e+00  -7.4326443617528743e-07 3.5070545011043537e-07 0.0000000000000000e+00  -6.8091264886037737e-07 3.5884277622534477e-07 0.0000000000000000e+00  -6.2017525395669875e-07 3.6620506079195492e-07 0.0000000000000000e+00  -5.6263559593822830e-07 3.7261315953759786e-07 0.0000000000000000e+00  -5.0760019911475539e-07 3.7686261798294967e-07 0.0000000000000000e+00  -4.5520529908936145e-07 3.8131572264143854e-07 0.0000000000000000e+00  -4.0556975615412253e-07 3.8417536154998204e-07 0.0000000000000000e+00  -3.5788914410905301e-07 3.8653086354868170e-07 0.0000000000000000e+00  -3.1341340963874382e-07 3.8827286026150625e-07 0.0000000000000000e+00  -2.7046217691010642e-07 3.8917366460856833e-07 0.0000000000000000e+00  -2.3078475301425391e-07 3.9282327057127475e-07 0.0000000000000000e+00  -1.8846564735989141e-07 3.9550062751915503e-07 0.0000000000000000e+00  -1.3925245128527318e-07 3.8657862348499475e-07 0.0000000000000000e+00  -7.4440654155538662e-08 3.5707232898440823e-07 0.0000000000000000e+00  -1.8094525061229044e-07 -1.2784976426135412e-09 0.0000000000000000e+00  -4.0147133503311308e-06 -7.7945151685175378e-07 0.0000000000000000e+00  -3.7365758023485041e-06 -7.0507029373918400e-07 0.0000000000000000e+00  -3.3092635273675934e-06 -5.8282957920159754e-07 0.0000000000000000e+00  -2.1446437657475465e-07 5.6100553110147136e-09 0.0000000000000000e+00  -3.0546797315685675e-06 -5.0800849123077247e-07 0.0000000000000000e+00  -2.9036321313144678e-07 1.5422465222810703e-08 0.0000000000000000e+00  -2.8054447075553372e-06 -4.3833275102582779e-07 0.0000000000000000e+00  -4.3254335433468090e-07 1.9544441075139391e-08 0.0000000000000000e+00  -5.3337408405645502e-07 1.3637137790986783e-08 0.0000000000000000e+00  -2.5670340404835740e-06 -3.7313031525754591e-07 0.0000000000000000e+00  -8.3610203768607361e-07 -2.8340184383220155e-09 0.0000000000000000e+00  -2.1224979362103519e-06 -2.5749806463537253e-07 0.0000000000000000e+00  -6.4085703141640718e-07 1.3790174187479019e-08 0.0000000000000000e+00  -9.7124685259305121e-07 -2.3920025813308648e-08 0.0000000000000000e+00  -1.9162703638052377e-06 -2.0738773690400576e-07 0.0000000000000000e+00  -2.3393947333228130e-06 -3.1277727049501471e-07 0.0000000000000000e+00  -1.1193939702036250e-06 -4.5722187733711765e-08 0.0000000000000000e+00  -1.7206817047020415e-06 -1.6250414587244762e-07 0.0000000000000000e+00  -1.2714576793883078e-06 -6.7212932412222308e-08 0.0000000000000000e+00  -1.5388645214571320e-06 -1.2742398732290915e-07 0.0000000000000000e+00  -1.3974200347225136e-06 -9.5030505435216212e-08 0.0000000000000000e+00  -7.3174101846673405e-07 1.8090492210084032e-09 0.0000000000000000e+00  -3.5297719435517090e-06 -6.4143847167826938e-07 0.0000000000000000e+00  -3.5661594301920549e-07 1.3144260266577351e-08 0.0000000000000000e+00  -3.8917858842617999e-06 -6.6102440841424837e-07 0.0000000000000000e+00  -1.8596144968528308e-07 1.4922920081645816e-07 0.0000000000000000e+00  -2.9422910020973956e-06 -3.9716083072232851e-07 0.0000000000000000e+00  -3.1976690719480336e-06 -4.7101027999114257e-07 0.0000000000000000e+00  -2.5351535727361859e-07 -1.2733432136264744e-07 0.0000000000000000e+00  -4.8062175121104919e-07 -9.1726168660563035e-08 0.0000000000000000e+00  -2.2404834004608316e-06 -2.0227319774553625e-07 0.0000000000000000e+00  -2.6976514985570873e-06 -3.2737417774468004e-07 0.0000000000000000e+00  -8.9781511463724468e-07 -1.1384359816745746e-07 0.0000000000000000e+00  -2.0279198522377445e-06 -1.4730280872644740e-07 0.0000000000000000e+00  -5.8737550397008910e-07 -9.2581161897088692e-08 0.0000000000000000e+00  -1.0399577619273499e-06 -1.3105390304626681e-07 0.0000000000000000e+00  -1.8260464948737999e-06 -9.7597537162542803e-08 0.0000000000000000e+00  -2.4637433848472897e-06 -2.6232155717569996e-07 0.0000000000000000e+00  -1.1902198460857918e-06 -1.7401394767273864e-07 0.0000000000000000e+00  -1.6347147130683281e-06 -5.3092389902873156e-08 0.0000000000000000e+00  -1.2920526841303610e-07 -8.5127729698480762e-08 0.0000000000000000e+00  -1.2581453695605194e-07 7.7142449402072912e-08 0.0000000000000000e+00  -4.1195174833661598e-06 -8.6358357015608095e-07 