<?xml version="1.0"?>
<VTKFile type="UnstructuredGrid"  version="0.1"  >
<UnstructuredGrid>
<Piece  NumberOfPoints="1419" NumberOfCells="2698">
<Points>
<DataArray  type="Float64"  NumberOfComponents="3"  format="ascii">0 0 0  0 0.41 0  2.5 0 0  2.5 0.41 0  0.6 0.19 0  0.6 0.21 0  0.25 0.2 0  0.15 0.2 0  0.2489897948556636 0.21 0  0.2489897948556636 0.19 0  0.6 0.2 0  0 0.3807142857143437 0  0 0.3514285714286952 0  0 0.3221428571430699 0  0 0.29285714285744 0  0 0.2635714285718054 0  0 0.2342857142861561 0  0 0.2050000000005308 0  0 0.175714285714732 0  0 0.1464285714289574 0  0 0.1171428571431897 0  0 0.08785714285737878 0  0 0.05857142857161107 0  0 0.02928571428580012 0  0.03015443760436003 0 0  0.06140001986583606 0 0  0.09377624077125973 0 0  0.1273239957535082 0 0  0.1620856860351972 0 0  0.1981052433264291 0 0  0.235428184091502 0 0  0.2741016576309132 0 0  0.3141745521465447 0 0  0.3556974926295285 0 0  0.3987229542472677 0 0  0.4433053055141081 0 0  0.4895008759286886 0 0  0.5373680609405097 0 0  0.5869673343216626 0 0  0.6383613676634521 0 0  0.6916151138468254 0 0  0.7467958595648856 0 0  0.8039733463919316 0 0  0.8632198139502143 0 0  0.9246101326867038 0 0  0.9882218810934433 0 0  1.054135445558498 0 0  1.122434100542598 0 0  1.193204177141305 0 0  1.266535089879536 0 0  1.342519516046404 0 0  1.421253448503939 0 0  1.502836389106271 0 0  1.587371439758838 0 0  1.674965418777374 0 0  1.765729001825544 0 0  1.859776908880082 0 0  1.957227977487062 0 0  2.058205329869943 0 0  2.162836591189951 0 0  2.271253957290865 0 0  2.383594446803425 0 0  2.5 0.1024999999997612 0  2.5 0.2049999999994743 0  2.5 0.3074999999997183 0  2.383594446803656 0.41 0  2.271253957291315 0.41 0  2.162836591190598 0.41 0  2.058205329870775 0.41 0  1.957227977488067 0.41 0  1.859776908881246 0.41 0  1.765729001826854 0.41 0  1.674965418778818 0.41 0  1.58737143976041 0.41 0  1.502836389107956 0.41 0  1.421253448505726 0.41 0  1.342519516048286 0.41 0  1.266535089881505 0.41 0  1.193204177143353 0.41 0  1.122434100544716 0.41 0  1.05413544556068 0.41 0  0.9882218810956305 0.41 0  0.9246101326886647 0.41 0  0.8632198139519631 0.41 0  0.8039733463934788 0.41 0  0.7467958595662458 0.41 0  0.6916151138480078 0.41 0  0.6383613676644679 0.41 0  0.5869673343225223 0.41 0  0.5373680609412221 0.41 0  0.4895008759292634 0.41 0  0.4433053055145528 0.41 0  0.3987229542475914 0.41 0  0.3556974926297398 0.41 0  0.3141745521466497 0.41 0  0.2741016576310038 0.41 0  0.2354281840915826 0.41 0  0.1981052433265003 0.41 0  0.1620856860352591 0.41 0  0.1273239957535623 0.41 0  0.09377624077128965 0.41 0  0.06140001986584975 0.41 0  0.03015443760436654 0.41 0  0.2497468076502589 0.2050254481002335 0  0.2497468076502614 0.1949745518997913 0  0.2469965252529372 0.1829317073451959 0  0.2439893735792749 0.1762316384219906 0  0.2400332147834255 0.1700443375285386 0  0.2352133972704371 0.1645032867342007 0  0.2296339016332438 0.1597280261969788 0  0.2234150974217223 0.1558215752574715 0  0.2166911463437691 0.1528682099456123 0  0.2096071079204251 0.1509316448471593 0  0.2023158100364996 0.1500536585536553 0  0.194974551899914 0.1502531923497262 0  0.1877417105387872 0.1515259415822739 0  0.1807733240461124 0.153844448527136 0  0.1742197252835808 0.15715869474974 0  0.1682222986673531 0.1613971801805478 0  0.162910430003803 0.1664684656256651 0  0.1583987151779087 0.1722631454351573 0  0.1547844879126891 0.178656207771761 0  0.1521457199348551 0.1855097315605723 0  0.1505393388476355 0.1926758619366523 0  0.1505393388476328 0.2073241380633295 0  0.1521457199348437 0.2144902684393899 0  0.1547844879126531 0.221343792228163 0  0.1583987151778488 0.2277368545647528 0  0.1629104300036858 0.2335315343742052 0  0.1682222986671726 0.2386028198193036 0  0.1742197252833576 0.2428413052501257 0  0.1807733240458683 0.2461555514727623 0  0.1877417105384929 0.2484740584176516 0  0.1949745518995776 0.2497468076502398 0  0.202315810036185 0.2499463414463592 0  0.2096071079201568 0.2490683551528932 0  0.2166911463435495 0.2471317900544655 0  0.2234150974215506 0.2441784247426195 0  0.2296339016331197 0.2402719738031125 0  0.2352133972703547 0.2354967132658811 0  0.2400332147833751 0.2299556624715287 0  0.2439893735792577 0.2237683615780412 0  0.246996525252926 0.2170682926548348 0  0.25645809709277 0.21 0  0.2639263993298655 0.21 0  0.271394701566961 0.21 0  0.2788630038040554 0.21 0  0.2863313060411479 0.21 0  0.2937996082782405 0.21 0  0.301267910515333 0.21 0  0.3087362127524279 0.21 0  0.3162045149895234 0.21 0  0.3236728172265972 0.21 0  0.3311411194636928 0.21 0  0.3386094217007701 0.21 0  0.3460777239378666 0.21 0  0.3535460261749672 0.21 0  0.3610143284120516 0.21 0  0.3684826306491596 0.21 0  0.3759509328862226 0.21 0  0.383419235123329 0.21 0  0.3908875373604028 0.21 0  0.3983558395975142 0.21 0  0.4058241418345938 0.21 0  0.4132924440716992 0.21 0  0.4207607463087888 0.21 0  0.4282290485459029 0.21 0  0.4356973507830418 0.21 0  0.4431656530201649 0.21 0  0.4506339552573136 0.21 0  0.4581022574944306 0.21 0  0.4655705597315852 0.21 0  0.4730388619686996 0.21 0  0.480507164205851 0.21 0  0.4879754664429498 0.21 0  0.4954437686800938 0.21 0  0.502912070917267 0.21 0  0.5103803731544119 0.21 0  0.5178486753915261 0.21 0  0.5253169776286404 0.21 0  0.5327852798657868 0.21 0  0.5402535821029386 0.21 0  0.54772188434007 0.21 0  0.5551901865771842 0.21 0  0.5626584888143201 0.21 0  0.5701267910514778 0.21 0  0.5775950932886138 0.21 0  0.5850633955257281 0.21 0  0.5925316977628483 0.21 0  0.6 0.2050000000000054 0  0.6 0.1950000000000217 0  0.5925316977628897 0.19 0  0.5850633955257988 0.19 0  0.5775950932887378 0.19 0  0.5701267910515998 0.19 0  0.5626584888145268 0.19 0  0.5551901865773963 0.19 0  0.547721884340339 0.19 0  0.5402535821032429 0.19 0  0.5327852798661811 0.19 0  0.5253169776290537 0.19 0  0.5178486753919799 0.19 0  0.5103803731549078 0.19 0  0.502912070917822 0.19 0  0.4954437686807294 0.19 0  0.4879754664436223 0.19 0  0.4805071642065402 0.19 0  0.4730388619694271 0.19 0  0.4655705597323621 0.19 0  0.4581022574952563 0.19 0  0.4506339552581777 0.19 0  0.4431656530210671 0.19 0  0.4356973507839815 0.19 0  0.4282290485468779 0.19 0  0.4207607463097617 0.19 0  0.4132924440726327 0.19 0  0.4058241418354857 0.19 0  0.3983558395983636 0.19 0  0.3908875373612097 0.19 0  0.3834192351240934 0.19 0  0.3759509328869369 0.19 0  0.3684826306498175 0.19 0  0.361014328412667 0.19 0  0.3535460261755617 0.19 0  0.3460777239384295 0.19 0  0.3386094217012945 0.19 0  0.3311411194641595 0.19 0  0.3236728172270245 0.19 0  0.3162045149898895 0.19 0  0.3087362127527544 0.19 0  0.3012679105156187 0.19 0  0.2937996082784807 0.19 0  0.2863313060413428 0.19 0  0.2788630038042048 0.19 0  0.2713947015670686 0.19 0  0.2639263993299336 0.19 0  0.2564580970927985 0.19 0  0.2607803159922026 0.2000727136295815 0  0.5887803774232762 0.2001272386983733 0  0.5745072403740523 0.2002044435018727 0  0.5511891430099709 0.2001122610077113 0  0.2751288526855082 0.20000000000002 0  0.5365194309847112 0.1999999999999436 0  0.2894621222999649 0.1998691686390484 0  0.5215828265105155 0.1999999999999228 0  0.3127789816668748 0.1998657885438805 0  0.3274069683451451 0.2000000000000796 0  0.5066462220363641 0.199999999999908 0  0.3650630746574081 0.199866017807523 0  0.476773013087985 0.1999999999998713 0  0.3417402379596385 0.1998691686391011 0  0.3796850840047755 0.200000000000134 0  0.4618364086138087 0.1999999999998546 0  0.4917096175621762 0.1999999999998808 0  0.3946216884789568 0.2000000000001512 0  0.446899804139621 0.1999999999998389 0  0.4089549580935208 0.1998691686391595 0  0.4322718174608562 0.200127451265745 0  0.4201487168029707 0.1999966199048527 0  0.3528922713220932 0.2000185703532356 0  0.5633122436674589 0.1999814296467508 0  0.3006558810093873 0.1999966199048318 0  0.5815926498168407 0.1966545283159175 0  0.2677053789419034 0.1964246479135325 0  0.5290511287476175 0.1970915826863981 0  0.5439877332217911 0.197091582686394 0  0.2825131256993216 0.2035478995978015 0  0.3199386661080599 0.202908417313604 0  0.4842413153250809 0.1970915826863873 0  0.5141145242734466 0.1970915826863843 0  0.3722167817676917 0.2029084173136195 0  0.4693047108508938 0.1970915826863783 0  0.3348752705822316 0.202908417313609 0  0.3871533862418661 0.2029084173136212 0  0.4543681063767183 0.1970915826863795 0  0.4991779197992749 0.1970915826863902 0  0.4020059614928624 0.203547899597858 0  0.4394315019025246 0.1970915826863714 0  0.2550657455369551 0.2034088125358657 0  0.2548908499171161 0.1966940311614271 0  0.5946539510196798 0.2024302972968126 0  0.267698176732111 0.2039977513680092 0  0.4261685417851465 0.196409292431739 0  0.3590076176283495 0.196411355804271 0  0.5571672426447437 0.2036011176410121 0  0.3066757059912147 0.1964092924317024 0  0.594380730180568 0.1966558399668133 0  0.4842413153245942 0.2040749161535287 0  0.4693047108503577 0.2040749161535231 0  0.3871533862424271 0.1959250838464788 0  0.372246743208829 0.1959123236376545 0  0.5141145242731028 0.2040749161535395 0  0.4543681063761134 0.2040749161535186 0  0.4019979587101454 0.1959834479682427 0  0.4394608940728603 0.2040870543693135 0  0.5439623148931173 0.2040856076781014 0  0.5290511287473298 0.2040749161535501 0  0.4991779197988497 0.2040749161535382 0  0.3347912413592433 0.1959225448935183 0  0.3199680582793816 0.1959123018030061 0  0.2825051229162361 0.1959834479681729 0  0.3590471196690275 0.2036304442587945 0  0.5571594006495384 0.1963685282145804 0  0.3067669986803285 0.203627750582736 0  0.4262598344738712 0.2036568242185335 0  0.5814408164431408 0.2041285596160068 0  0.5688286748170428 0.1961819304477386 0  0.4145905603063645 0.2038180695522843 0  0.3473758401724931 0.2038180695522752 0  0.2950977245128307 0.2038180695522663 0  0.5688286748170693 0.203818069552238 0  0.2950977245127906 0.1961819304477774 0  0.3473758401723931 0.1961819304478349 0  0.4145905603061963 0.1961819304479011 0  0.2601812407614425 0.2056861609747042
[...]
<PointData  Vectors="f_40-1"> 
<DataArray  type="Float64"  Name="f_40-1"  NumberOfComponents="3" format="ascii">0.0000000000000000e+00 0.0000000000000000e+00 0.0000000000000000e+00  0.0000000000000000e+00 0.0000000000000000e+00 0.0000000000000000e+00  0.0000000000000000e+00 0.0000000000000000e+00 0.0000000000000000e+00  0.0000000000000000e+00 0.0000000000000000e+00 0.0000000000000000e+00  -4.3378198920570637e-06 -6.7271950879208229e-07 0.0000000000000000e+00  -4.2192795648761984e-06 -1.1525729169176488e-06 0.0000000000000000e+00  0.0000000000000000e+00 0.0000000000000000e+00 0.0000000000000000e+00  0.0000000000000000e+00 0.0000000000000000e+00 0.0000000000000000e+00  0.0000000000000000e+00 0.0000000000000000e+00 0.0000000000000000e+00  0.0000000000000000e+00 0.0000000000000000e+00 0.0000000000000000e+00  -4.2921011874683306e-06 -9.1253246999466601e-07 0.0000000000000000e+00  0.0000000000000000e+00 0.0000000000000000e+00 0.0000000000000000e+00  0.0000000000000000e+00 0.0000000000000000e+00 0.0000000000000000e+00  0.0000000000000000e+00 0.0000000000000000e+00 0.0000000000000000e+00  0.0000000000000000e+00 0.0000000000000000e+00 0.0000000000000000e+00  0.0000000000000000e+00 0.0000000000000000e+00 0.0000000000000000e+00  0.0000000000000000e+00 0.0000000000000000e+00 0.0000000000000000e+00  0.0000000000000000e+00 0.0000000000000000e+00 0.0000000000000000e+00  0.0000000000000000e+00 0.0000000000000000e+00 0.0000000000000000e+00  0.0000000000000000e+00 0.0000000000000000e+00 0.0000000000000000e+00  0.0000000000000000e+00 0.0000000000000000e+00 0.0000000000000000e+00  0.0000000000000000e+00 0.0000000000000000e+00 0.0000000000000000e+00  0.0000000000000000e+00 0.0000000000000000e+00 0.0000000000000000e+00  0.0000000000000000e+00 0.0000000000000000e+00 0.0000000000000000e+00  0.0000000000000000e+00 0.0000000000000000e+00 0.0000000000000000e+00  0.0000000000000000e+00 0.0000000000000000e+00 0.0000000000000000e+00  0.0000000000000000e+00 0.0000000000000000e+00 0.0000000000000000e+00  0.0000000000000000e+00 0.0000000000000000e+00 0.0000000000000000e+00  0.0000000000000000e+00 0.0000000000000000e+00 0.0000000000000000e+00  0.0000000000000000e+00 0.0000000000000000e+00 0.0000000000000000e+00  0.0000000000000000e+00 0.0000000000000000e+00 0.0000000000000000e+00  0.0000000000000000e+00 0.0000000000000000e+00 0.0000000000000000e+00  0.0000000000000000e+00 0.0000000000000000e+00 0.0000000000000000e+00  0.0000000000000000e+00 0.0000000000000000e+00 0.0000000000000000e+00  0.0000000000000000e+00 0.0000000000000000e+00 0.0000000000000000e+00  0.0000000000000000e+00 0.0000000000000000e+00 0.0000000000000000e+00  0.0000000000000000e+00 0.0000000000000000e+00 0.0000000000000000e+00  0.0000000000000000e+00 0.0000000000000000e+00 0.0000000000000000e+00  0.0000000000000000e+00 0.0000000000000000e+00 0.0000000000000000e+00  0.0000000000000000e+00 0.0000000000000000e+00 0.0000000000000000e+00  0.0000000000000000e+00 0.0000000000000000e+00 0.0000000000000000e+00  0.0000000000000000e+00 0.0000000000000000e+00 0.0000000000000000e+00  0.0000000000000000e+00 0.0000000000000000e+00 0.0000000000000000e+00  0.0000000000000000e+00 0.0000000000000000e+00 0.0000000000000000e+00  0.0000000000000000e+00 0.0000000000000000e+00 0.0000000000000000e+00  0.0000000000000000e+00 0.0000000000000000e+00 0.0000000000000000e+00  0.0000000000000000e+00 0.0000000000000000e+00 0.0000000000000000e+00  0.0000000000000000e+00 0.0000000000000000e+00 0.0000000000000000e+00  0.0000000000000000e+00 0.0000000000000000e+00 0.0000000000000000e+00  0.0000000000000000e+00 0.0000000000000000e+00 0.0000000000000000e+00  0.0000000000000000e+00 0.0000000000000000e+00 0.0000000000000000e+00  0.0000000000000000e+00 0.0000000000000000e+00 0.0000000000000000e+00  0.0000000000000000e+00 0.0000000000000000e+00 0.0000000000000000e+00  0.0000000000000000e+00 0.0000000000000000e+00 0.0000000000000000e+00  0.0000000000000000e+00 0.0000000000000000e+00 0.0000000000000000e+00  0.0000000000000000e+00 0.0000000000000000e+00 0.0000000000000000e+00  0.0000000000000000e+00 0.0000000000000000e+00 0.0000000000000000e+00  0.0000000000000000e+00 0.0000000000000000e+00 0.0000000000000000e+00  0.0000000000000000e+00 0.0000000000000000e+00 0.0000000000000000e+00  0.0000000000000000e+00 0.0000000000000000e+00 0.0000000000000000e+00  0.0000000000000000e+00 0.0000000000000000e+00 0.0000000000000000e+00  0.0000000000000000e+00 0.0000000000000000e+00 0.0000000000000000e+00  0.0000000000000000e+00 0.0000000000000000e+00 0.0000000000000000e+00  0.0000000000000000e+00 0.0000000000000000e+00 0.0000000000000000e+00  0.0000000000000000e+00 0.0000000000000000e+00 0.0000000000000000e+00  0.0000000000000000e+00 0.0000000000000000e+00 0.0000000000000000e+00  0.0000000000000000e+00 0.0000000000000000e+00 0.0000000000000000e+00  0.0000000000000000e+00 0.0000000000000000e+00 0.0000000000000000e+00  0.0000000000000000e+00 0.0000000000000000e+00 0.0000000000000000e+00  0.0000000000000000e+00 0.0000000000000000e+00 0.0000000000000000e+00  0.0000000000000000e+00 0.0000000000000000e+00 0.0000000000000000e+00  0.0000000000000000e+00 0.0000000000000000e+00 0.0000000000000000e+00  0.0000000000000000e+00 0.0000000000000000e+00 0.0000000000000000e+00  0.0000000000000000e+00 0.0000000000000000e+00 0.0000000000000000e+00  0.0000000000000000e+00 0.0000000000000000e+00 0.0000000000000000e+00  0.0000000000000000e+00 0.0000000000000000e+00 0.0000000000000000e+00  0.0000000000000000e+00 0.0000000000000000e+00 0.0000000000000000e+00  0.0000000000000000e+00 0.0000000000000000e+00 0.0000000000000000e+00  0.0000000000000000e+00 0.0000000000000000e+00 0.0000000000000000e+00  0.0000000000000000e+00 0.0000000000000000e+00 0.0000000000000000e+00  0.0000000000000000e+00 0.0000000000000000e+00 0.0000000000000000e+00  0.0000000000000000e+00 0.0000000000000000e+00 0.0000000000000000e+00  0.0000000000000000e+00 0.0000000000000000e+00 0.0000000000000000e+00  0.0000000000000000e+00 0.0000000000000000e+00 0.0000000000000000e+00  0.0000000000000000e+00 0.0000000000000000e+00 0.0000000000000000e+00  0.0000000000000000e+00 0.0000000000000000e+00 0.0000000000000000e+00  0.0000000000000000e+00 0.0000000000000000e+00 0.0000000000000000e+00  0.0000000000000000e+00 0.0000000000000000e+00 0.0000000000000000e+00  0.0000000000000000e+00 0.0000000000000000e+00 0.0000000000000000e+00  0.0000000000000000e+00 0.0000000000000000e+00 0.0000000000000000e+00  0.0000000000000000e+00 0.0000000000000000e+00 0.0000000000000000e+00  0.0000000000000000e+00 0.0000000000000000e+00 0.0000000000000000e+00  0.0000000000000000e+00 0.0000000000000000e+00 0.0000000000000000e+00  0.0000000000000000e+00 0.0000000000000000e+00 0.0000000000000000e+00  0.0000000000000000e+00 0.0000000000000000e+00 0.0000000000000000e+00  0.0000000000000000e+00 0.0000000000000000e+00 0.0000000000000000e+00  0.0000000000000000e+00 0.0000000000000000e+00 0.0000000000000000e+00  0.0000000000000000e+00 0.0000000000000000e+00 0.0000000000000000e+00  0.0000000000000000e+00 0.0000000000000000e+00 0.0000000000000000e+00  0.0000000000000000e+00 0.0000000000000000e+00 0.0000000000000000e+00  0.0000000000000000e+00 0.0000000000000000e+00 0.0000000000000000e+00  0.0000000000000000e+00 0.0000000000000000e+00 0.0000000000000000e+00  0.0000000000000000e+00 0.0000000000000000e+00 0.0000000000000000e+00  0.0000000000000000e+00 0.0000000000000000e+00 0.0000000000000000e+00  0.0000000000000000e+00 0.0000000000000000e+00 0.0000000000000000e+00  0.0000000000000000e+00 0.0000000000000000e+00 0.0000000000000000e+00  0.0000000000000000e+00 0.0000000000000000e+00 0.0000000000000000e+00  0.0000000000000000e+00 0.0000000000000000e+00 0.0000000000000000e+00  0.0000000000000000e+00 0.0000000000000000e+00 0.0000000000000000e+00  0.0000000000000000e+00 0.0000000000000000e+00 0.0000000000000000e+00  0.0000000000000000e+00 0.0000000000000000e+00 0.0000000000000000e+00  0.0000000000000000e+00 0.0000000000000000e+00 0.0000000000000000e+00  0.0000000000000000e+00 0.0000000000000000e+00 0.0000000000000000e+00  0.0000000000000000e+00 0.0000000000000000e+00 0.0000000000000000e+00  0.0000000000000000e+00 0.0000000000000000e+00 0.0000000000000000e+00  0.0000000000000000e+00 0.0000000000000000e+00 0.0000000000000000e+00  0.0000000000000000e+00 0.0000000000000000e+00 0.0000000000000000e+00  0.0000000000000000e+00 0.0000000000000000e+00 0.0000000000000000e+00  0.0000000000000000e+00 0.0000000000000000e+00 0.0000000000000000e+00  0.0000000000000000e+00 0.0000000000000000e+00 0.0000000000000000e+00  0.0000000000000000e+00 0.0000000000000000e+00 0.0000000000000000e+00  0.0000000000000000e+00 0.0000000000000000e+00 0.0000000000000000e+00  0.0000000000000000e+00 0.0000000000000000e+00 0.0000000000000000e+00  0.0000000000000000e+00 0.0000000000000000e+00 0.0000000000000000e+00  0.0000000000000000e+00 0.0000000000000000e+00 0.0000000000000000e+00  0.0000000000000000e+00 0.0000000000000000e+00 0.0000000000000000e+00  0.0000000000000000e+00 0.0000000000000000e+00 0.0000000000000000e+00  0.0000000000000000e+00 0.0000000000000000e+00 0.0000000000000000e+00  0.0000000000000000e+00 0.0000000000000000e+00 0.0000000000000000e+00  0.0000000000000000e+00 0.0000000000000000e+00 0.0000000000000000e+00  0.0000000000000000e+00 0.0000000000000000e+00 0.0000000000000000e+00  0.0000000000000000e+00 0.0000000000000000e+00 0.0000000000000000e+00  0.0000000000000000e+00 0.0000000000000000e+00 0.0000000000000000e+00  0.0000000000000000e+00 0.0000000000000000e+00 0.0000000000000000e+00  0.0000000000000000e+00 0.0000000000000000e+00 0.0000000000000000e+00  0.0000000000000000e+00 0.0000000000000000e+00 0.0000000000000000e+00  0.0000000000000000e+00 0.0000000000000000e+00 0.0000000000000000e+00  0.0000000000000000e+00 0.0000000000000000e+00 0.0000000000000000e+00  0.0000000000000000e+00 0.0000000000000000e+00 0.0000000000000000e+00  0.0000000000000000e+00 0.0000000000000000e+00 0.0000000000000000e+00  0.0000000000000000e+00 0.0000000000000000e+00 0.0000000000000000e+00  0.0000000000000000e+00 0.0000000000000000e+00 0.0000000000000000e+00  0.0000000000000000e+00 0.0000000000000000e+00 0.0000000000000000e+00  -7.5507334092497172e-08 -3.7096141636687055e-07 0.0000000000000000e+00  -1.4319528802915518e-07 -3.9672993793284481e-07 0.0000000000000000e+00  -1.9275416836050962e-07 -4.0125355004848182e-07 0.0000000000000000e+00  -2.3349072003947549e-07 -3.9286983708893437e-07 0.0000000000000000e+00  -2.7131026857872428e-07 -3.8464744344575520e-07 0.0000000000000000e+00  -3.1176771443373456e-07 -3.7965063827259323e-07 0.0000000000000000e+00  -3.5375309225037208e-07 -3.7460161227832889e-07 0.0000000000000000e+00  -3.9873078374786768e-07 -3.7028874948076095e-07 0.0000000000000000e+00  -4.4514907512127920e-07 -3.6668680634358416e-07 0.0000000000000000e+00  -4.9448716876919128e-07 -3.6339058856783748e-07 0.0000000000000000e+00  -5.4579670162368680e-07 -3.6203606234957472e-07 0.0000000000000000e+00  -5.9994246955089749e-07 -3.6068113938215223e-07 0.0000000000000000e+00  -6.5659878676169092e-07 -3.6083531312131432e-07 0.0000000000000000e+00  -7.1553251005145117e-07 -3.6240096966489692e-07 0.0000000000000000e+00  -7.7781241109549800e-07 -3.6488745831816513e-07 0.0000000000000000e+00  -8.4162889555077175e-07 -3.6937825646756061e-07 0.0000000000000000e+00  -9.0890781295352633e-07 -3.7390991406770286e-07 0.0000000000000000e+00  -9.7842731398682081e-07 -3.8154640576396835e-07 0.0000000000000000e+00  -1.0511304064528515e-06 -3.8882750931694103e-07 0.0000000000000000e+00  -1.1259825558904002e-06 -3.9918393109227516e-07 0.0000000000000000e+00  -1.2040117837290899e-06 -4.0934057316105124e-07 0.0000000000000000e+00  -1.2849200029216283e-06 -4.2173698889850878e-07 0.0000000000000000e+00  -1.3680492846129600e-06 -4.3552487886240886e-07 0.0000000000000000e+00  -1.4547086254900076e-06 -4.5021632639598725e-07 0.0000000000000000e+00  -1.5430208826381460e-06 -4.6718763020638675e-07 0.0000000000000000e+00  -1.6348143472704359e-06 -4.8397952404854864e-07 0.0000000000000000e+00  -1.7294962211476754e-06 -5.0428338463623541e-07 0.0000000000000000e+00  -1.8268714713890115e-06 -5.2395917777785282e-07 0.0000000000000000e+00  -1.9271660834109586e-06 -5.4669262692473343e-07 0.0000000000000000e+00  -2.0301882428389751e-06 -5.6940961107677838e-07 0.0000000000000000e+00  -2.1359493200173713e-06 -5.9482318242097212e-07 0.0000000000000000e+00  -2.2448147584889701e-06 -6.2023243719661206e-07 0.0000000000000000e+00  -2.3560532249108826e-06 -6.4860003594250038e-07 0.0000000000000000e+00  -2.4705401699976661e-06 -6.7622672051820960e-07 0.0000000000000000e+00  -2.5881101176923317e-06 -7.0720857285027957e-07 0.0000000000000000e+00  -2.7084484696442077e-06 -7.3776107884490150e-07 0.0000000000000000e+00  -2.8315757441861865e-06 -7.7110585684159031e-07 0.0000000000000000e+00  -2.9576634977026876e-06 -8.0400523127934498e-07 0.0000000000000000e+00  -3.0867637218166133e-06 -8.3935131157190166e-07 0.0000000000000000e+00  -3.2191003048121801e-06 -8.7426423070464765e-07 0.0000000000000000e+00  -3.3545705116017058e-06 -9.1096504936039558e-07 0.0000000000000000e+00  -3.4925905738440402e-06 -9.4769336337848874e-07 0.0000000000000000e+00  -3.6344418206724488e-06 -9.8554661404399535e-07 0.0000000000000000e+00  -3.7779964541332147e-06 -1.0236210876130320e-06 0.0000000000000000e+00  -3.9249737659895371e-06 -1.0614537463645067e-06 0.0000000000000000e+00  -4.0734006854203686e-06 -1.1018525719810194e-06 0.0000000000000000e+00  -4.2608172033370816e-06 -1.0322536305995060e-06 0.0000000000000000e+00  -4.3189446739021528e-06 -7.9286506300588494e-07 0.0000000000000000e+00  -4.1902799379007119e-06 -6.3552512833761408e-07 0.0000000000000000e+00  -4.0406311693282886e-06 -5.8844725853848570e-07 0.0000000000000000e+00  -3.8922648924583966e-06 -5.4036377732289790e-07 0.0000000000000000e+00  -3.7469382090747300e-06 -4.9350511705071096e-07 0.0000000000000000e+00  -3.6034672602540088e-06 -4.4722046550072818e-07 0.0000000000000000e+00  -3.4637419274665137e-06 -4.0177035038425515e-07 0.0000000000000000e+00  -3.3259610317641006e-06 -3.5717618465719714e-07 0.0000000000000000e+00  -3.1915767024440986e-06 -3.1298962396170708e-07 0.0000000000000000e+00  -3.0595294121733297e-06 -2.7078703269964841e-07 0.0000000000000000e+00  -2.9306438179953475e-06 -2.2831638641768385e-07 0.0000000000000000e+00  -2.8042056324097305e-06 -1.8819453383741441e-07 0.0000000000000000e+00  -2.6809874306097991e-06 -1.4812280819689810e-07 0.0000000000000000e+00  -2.5600952274653616e-06 -1.1060094019664642e-07 0.0000000000000000e+00  -2.4423979158902870e-06 -7.3114700925371120e-08 0.0000000000000000e+00  -2.3270229809368683e-06 -3.8254143015224129e-08 0.0000000000000000e+00  -2.2148716372582842e-06 -3.4595014452790101e-09 0.0000000000000000e+00  -2.1050967052429102e-06 2.8788251523000751e-08 0.0000000000000000e+00  -1.9986770823033336e-06 6.0856690341436997e-08 0.0000000000000000e+00  -1.8945682024557858e-06 9.0149134706694482e-08 0.0000000000000000e+00  -1.7936814486573057e-06 1.1931323258791898e-07 0.0000000000000000e+00  -1.6950740693087678e-06 1.4580721207065563e-07 0.0000000000000000e+00  -1.5997126201130856e-06 1.7210875616134999e-07 0.0000000000000000e+00  -1.5070796937754346e-06 1.9637422961832811e-07 0.0000000000000000e+00  -1.4169581824583633e-06 2.1936800716821472e-07 0.0000000000000000e+00  -1.3304409219075860e-06 2.4092064811635468e-07 0.0000000000000000e+00  -1.2453708365147263e-06 2.6079020547451516e-07 0.0000000000000000e+00  -1.1638098164074946e-06 2.8018729185369940e-07 0.0000000000000000e+00  -1.0847023216858989e-06 2.9647514939591744e-07 0.0000000000000000e+00  -1.0086130454248096e-06 3.1337585493666350e-07 0.0000000000000000e+00  -9.3523116748564342e-07 3.2684132807590742e-07 0.0000000000000000e+00  -8.6469771271166048e-07 3.4080409626075281e-07 0.0000000000000000e+00  -7.9701279563912256e-07 3.5186367659963190e-07 0.0000000000000000e+00  -7.3153265657185755e-07 3.6259454555856427e-07 0.0000000000000000e+00  -6.6952792442527044e-07 3.7137086382814668e-07 0.0000000000000000e+00  -6.0921357925248893e-07 3.7929906823725194e-07 0.0000000000000000e+00  -5.5226185559948874e-07 3.8618882040583011e-07 0.0000000000000000e+00  -4.9793613207796919e-07 3.9078300562886479e-07 0.0000000000000000e+00  -4.4638254634262740e-07 3.9556277912363743e-07 0.0000000000000000e+00  -3.9771674027683961e-07 3.9864405824930914e-07 0.0000000000000000e+00  -3.5110630794191834e-07 4.0118055479443394e-07 0.0000000000000000e+00  -3.0784414082604714e-07 4.0304958541385170e-07 0.0000000000000000e+00  -2.6617511494393376e-07 4.0402557975338329e-07 0.0000000000000000e+00  -2.2792787381260933e-07 4.0784166463814449e-07 0.0000000000000000e+00  -1.8695141273422643e-07 4.1062654386614346e-07 0.0000000000000000e+00  -1.3883280982838192e-07 4.0138137612776494e-07 0.0000000000000000e+00  -7.4478034021308561e-08 3.7073961603332369e-07 0.0000000000000000e+00  -1.8340266697762735e-07 -1.3109473038310809e-09 0.0000000000000000e+00  -4.0604909327116568e-06 -8.4927626385082018e-07 0.0000000000000000e+00  -3.7742739855597088e-06 -7.6885950129215723e-07 0.0000000000000000e+00  -3.3353725606741360e-06 -6.3682993540569717e-07 0.0000000000000000e+00  -2.1246607059684354e-07 5.8493817152838452e-09 0.0000000000000000e+00  -3.0743431597343842e-06 -5.5598344068996574e-07 0.0000000000000000e+00  -2.8557662634970167e-07 1.6004650903148663e-08 0.0000000000000000e+00  -2.8191193632274303e-06 -4.8045679460751561e-07 0.0000000000000000e+00  -4.2403903896097903e-07 2.0077022448428373e-08 0.0000000000000000e+00  -5.2306757169097296e-07 1.3673319832737538e-08 0.0000000000000000e+00  -2.5753513808748425e-06 -4.0964098177848603e-07 0.0000000000000000e+00  -8.2322323186729737e-07 -4.9097778149248952e-09 0.0000000000000000e+00  -2.1219642007807458e-06 -2.8365347809691687e-07 0.0000000000000000e+00  -6.2919835019337846e-07 1.3420677785917099e-08 0.0000000000000000e+00  -9.5822754123785686e-07 -2.7776797951295288e-08 0.0000000000000000e+00  -1.9122242406697603e-06 -2.2887997903108034e-07 0.0000000000000000e+00  -2.3429783926307958e-06 -3.4395273489361587e-07 0.0000000000000000e+00  -1.1067511985005820e-06 -5.1688722176961168e-08 0.0000000000000000e+00  -1.7137184674908479e-06 -1.7973766526738315e-07 0.0000000000000000e+00  -1.2597011540395416e-06 -7.5510512863953420e-08 0.0000000000000000e+00  -1.5295681998536534e-06 -1.4105660400215436e-07 0.0000000000000000e+00  -1.3867162058189511e-06 -1.0577085435168792e-07 0.0000000000000000e+00  -7.1937340921013484e-07 5.3054452546366503e-10 0.0000000000000000e+00  -3.5618267224085143e-06 -7.0034846542635238e-07 0.0000000000000000e+00  -3.4995538835803923e-07 1.3564990560846724e-08 0.0000000000000000e+00  -3.9348998498746504e-06 -7.2513836967503773e-07 0.0000000000000000e+00  -1.8583776019023743e-07 1.5495542812624329e-07 0.0000000000000000e+00  -2.9600185419880299e-06 -4.3955078885495952e-07 0.0000000000000000e+00  -3.2217419355600774e-06 -5.1946014752870296e-07 0.0000000000000000e+00  -2.5006004457923232e-07 -1.3218298448844177e-07 0.0000000000000000e+00  -4.7111684439305377e-07 -9.5550942558025247e-08 0.0000000000000000e+00  -2.2429094840915594e-06 -2.2793664059576229e-07 0.0000000000000000e+00  -2.7096617356290116e-06 -3.6391397048656816e-07 0.0000000000000000e+00  -8.8448249328065408e-07 -1.2056480229083947e-07 0.0000000000000000e+00  -2.0264618492414306e-06 -1.6801024451936049e-07 0.0000000000000000e+00  -5.7618635725096193e-07 -9.6782211316399665e-08 0.0000000000000000e+00  -1.0266548687197076e-06 -1.3955462618677479e-07 0.0000000000000000e+00  -1.8212991271443898e-06 -1.1373437863780292e-07 0.0000000000000000e+00  -2.4706573745875153e-06 -2.9327375517726641e-07 0.0000000000000000e+00  -1.1773489953298241e-06 -1.8554466699602079e-07 0.0000000000000000e+00  -1.6272570029571368e-06 -6.5084030095884042e-08 0.0000000000000000e+00  -1.3200954162704862e-07 -8.8409929456962909e-08 0.0000000000000000e+00  -1.2856188669914589e-07 8.0135536007031930e-08 0.0000000000000000e+00  -4.1677903153443145e-06 -9.3765822306752325e-07