<?xml version="1.0"?>
<VTKFile type="UnstructuredGrid"  version="0.1"  >
<UnstructuredGrid>
<Piece  NumberOfPoints="1419" NumberOfCells="2698">
<Points>
<DataArray  type="Float64"  NumberOfComponents="3"  format="ascii">0 0 0  0 0.41 0  2.5 0 0  2.5 0.41 0  0.6 0.19 0  0.6 0.21 0  0.25 0.2 0  0.15 0.2 0  0.2489897948556636 0.21 0  0.2489897948556636 0.19 0  0.6 0.2 0  0 0.3807142857143437 0  0 0.3514285714286952 0  0 0.3221428571430699 0  0 0.29285714285744 0  0 0.2635714285718054 0  0 0.2342857142861561 0  0 0.2050000000005308 0  0 0.175714285714732 0  0 0.1464285714289574 0  0 0.1171428571431897 0  0 0.08785714285737878 0  0 0.05857142857161107 0  0 0.02928571428580012 0  0.03015443760436003 0 0  0.06140001986583606 0 0  0.09377624077125973 0 0  0.1273239957535082 0 0  0.1620856860351972 0 0  0.1981052433264291 0 0  0.235428184091502 0 0  0.2741016576309132 0 0  0.3141745521465447 0 0  0.3556974926295285 0 0  0.3987229542472677 0 0  0.4433053055141081 0 0  0.4895008759286886 0 0  0.5373680609405097 0 0  0.5869673343216626 0 0  0.6383613676634521 0 0  0.6916151138468254 0 0  0.7467958595648856 0 0  0.8039733463919316 0 0  0.8632198139502143 0 0  0.9246101326867038 0 0  0.9882218810934433 0 0  1.054135445558498 0 0  1.122434100542598 0 0  1.193204177141305 0 0  1.266535089879536 0 0  1.342519516046404 0 0  1.421253448503939 0 0  1.502836389106271 0 0  1.587371439758838 0 0  1.674965418777374 0 0  1.765729001825544 0 0  1.859776908880082 0 0  1.957227977487062 0 0  2.058205329869943 0 0  2.162836591189951 0 0  2.271253957290865 0 0  2.383594446803425 0 0  2.5 0.1024999999997612 0  2.5 0.2049999999994743 0  2.5 0.3074999999997183 0  2.383594446803656 0.41 0  2.271253957291315 0.41 0  2.162836591190598 0.41 0  2.058205329870775 0.41 0  1.957227977488067 0.41 0  1.859776908881246 0.41 0  1.765729001826854 0.41 0  1.674965418778818 0.41 0  1.58737143976041 0.41 0  1.502836389107956 0.41 0  1.421253448505726 0.41 0  1.342519516048286 0.41 0  1.266535089881505 0.41 0  1.193204177143353 0.41 0  1.122434100544716 0.41 0  1.05413544556068 0.41 0  0.9882218810956305 0.41 0  0.9246101326886647 0.41 0  0.8632198139519631 0.41 0  0.8039733463934788 0.41 0  0.7467958595662458 0.41 0  0.6916151138480078 0.41 0  0.6383613676644679 0.41 0  0.5869673343225223 0.41 0  0.5373680609412221 0.41 0  0.4895008759292634 0.41 0  0.4433053055145528 0.41 0  0.3987229542475914 0.41 0  0.3556974926297398 0.41 0  0.3141745521466497 0.41 0  0.2741016576310038 0.41 0  0.2354281840915826 0.41 0  0.1981052433265003 0.41 0  0.1620856860352591 0.41 0  0.1273239957535623 0.41 0  0.09377624077128965 0.41 0  0.06140001986584975 0.41 0  0.03015443760436654 0.41 0  0.2497468076502589 0.2050254481002335 0  0.2497468076502614 0.1949745518997913 0  0.2469965252529372 0.1829317073451959 0  0.2439893735792749 0.1762316384219906 0  0.2400332147834255 0.1700443375285386 0  0.2352133972704371 0.1645032867342007 0  0.2296339016332438 0.1597280261969788 0  0.2234150974217223 0.1558215752574715 0  0.2166911463437691 0.1528682099456123 0  0.2096071079204251 0.1509316448471593 0  0.2023158100364996 0.1500536585536553 0  0.194974551899914 0.1502531923497262 0  0.1877417105387872 0.1515259415822739 0  0.1807733240461124 0.153844448527136 0  0.1742197252835808 0.15715869474974 0  0.1682222986673531 0.1613971801805478 0  0.162910430003803 0.1664684656256651 0  0.1583987151779087 0.1722631454351573 0  0.1547844879126891 0.178656207771761 0  0.1521457199348551 0.1855097315605723 0  0.1505393388476355 0.1926758619366523 0  0.1505393388476328 0.2073241380633295 0  0.1521457199348437 0.2144902684393899 0  0.1547844879126531 0.221343792228163 0  0.1583987151778488 0.2277368545647528 0  0.1629104300036858 0.2335315343742052 0  0.1682222986671726 0.2386028198193036 0  0.1742197252833576 0.2428413052501257 0  0.1807733240458683 0.2461555514727623 0  0.1877417105384929 0.2484740584176516 0  0.1949745518995776 0.2497468076502398 0  0.202315810036185 0.2499463414463592 0  0.2096071079201568 0.2490683551528932 0  0.2166911463435495 0.2471317900544655 0  0.2234150974215506 0.2441784247426195 0  0.2296339016331197 0.2402719738031125 0  0.2352133972703547 0.2354967132658811 0  0.2400332147833751 0.2299556624715287 0  0.2439893735792577 0.2237683615780412 0  0.246996525252926 0.2170682926548348 0  0.25645809709277 0.21 0  0.2639263993298655 0.21 0  0.271394701566961 0.21 0  0.2788630038040554 0.21 0  0.2863313060411479 0.21 0  0.2937996082782405 0.21 0  0.301267910515333 0.21 0  0.3087362127524279 0.21 0  0.3162045149895234 0.21 0  0.3236728172265972 0.21 0  0.3311411194636928 0.21 0  0.3386094217007701 0.21 0  0.3460777239378666 0.21 0  0.3535460261749672 0.21 0  0.3610143284120516 0.21 0  0.3684826306491596 0.21 0  0.3759509328862226 0.21 0  0.383419235123329 0.21 0  0.3908875373604028 0.21 0  0.3983558395975142 0.21 0  0.4058241418345938 0.21 0  0.4132924440716992 0.21 0  0.4207607463087888 0.21 0  0.4282290485459029 0.21 0  0.4356973507830418 0.21 0  0.4431656530201649 0.21 0  0.4506339552573136 0.21 0  0.4581022574944306 0.21 0  0.4655705597315852 0.21 0  0.4730388619686996 0.21 0  0.480507164205851 0.21 0  0.4879754664429498 0.21 0  0.4954437686800938 0.21 0  0.502912070917267 0.21 0  0.5103803731544119 0.21 0  0.5178486753915261 0.21 0  0.5253169776286404 0.21 0  0.5327852798657868 0.21 0  0.5402535821029386 0.21 0  0.54772188434007 0.21 0  0.5551901865771842 0.21 0  0.5626584888143201 0.21 0  0.5701267910514778 0.21 0  0.5775950932886138 0.21 0  0.5850633955257281 0.21 0  0.5925316977628483 0.21 0  0.6 0.2050000000000054 0  0.6 0.1950000000000217 0  0.5925316977628897 0.19 0  0.5850633955257988 0.19 0  0.5775950932887378 0.19 0  0.5701267910515998 0.19 0  0.5626584888145268 0.19 0  0.5551901865773963 0.19 0  0.547721884340339 0.19 0  0.5402535821032429 0.19 0  0.5327852798661811 0.19 0  0.5253169776290537 0.19 0  0.5178486753919799 0.19 0  0.5103803731549078 0.19 0  0.502912070917822 0.19 0  0.4954437686807294 0.19 0  0.4879754664436223 0.19 0  0.4805071642065402 0.19 0  0.4730388619694271 0.19 0  0.4655705597323621 0.19 0  0.4581022574952563 0.19 0  0.4506339552581777 0.19 0  0.4431656530210671 0.19 0  0.4356973507839815 0.19 0  0.4282290485468779 0.19 0  0.4207607463097617 0.19 0  0.4132924440726327 0.19 0  0.4058241418354857 0.19 0  0.3983558395983636 0.19 0  0.3908875373612097 0.19 0  0.3834192351240934 0.19 0  0.3759509328869369 0.19 0  0.3684826306498175 0.19 0  0.361014328412667 0.19 0  0.3535460261755617 0.19 0  0.3460777239384295 0.19 0  0.3386094217012945 0.19 0  0.3311411194641595 0.19 0  0.3236728172270245 0.19 0  0.3162045149898895 0.19 0  0.3087362127527544 0.19 0  0.3012679105156187 0.19 0  0.2937996082784807 0.19 0  0.2863313060413428 0.19 0  0.2788630038042048 0.19 0  0.2713947015670686 0.19 0  0.2639263993299336 0.19 0  0.2564580970927985 0.19 0  0.2607803159922026 0.2000727136295815 0  0.5887803774232762 0.2001272386983733 0  0.5745072403740523 0.2002044435018727 0  0.5511891430099709 0.2001122610077113 0  0.2751288526855082 0.20000000000002 0  0.5365194309847112 0.1999999999999436 0  0.2894621222999649 0.1998691686390484 0  0.5215828265105155 0.1999999999999228 0  0.3127789816668748 0.1998657885438805 0  0.3274069683451451 0.2000000000000796 0  0.5066462220363641 0.199999999999908 0  0.3650630746574081 0.199866017807523 0  0.476773013087985 0.1999999999998713 0  0.3417402379596385 0.1998691686391011 0  0.3796850840047755 0.200000000000134 0  0.4618364086138087 0.1999999999998546 0  0.4917096175621762 0.1999999999998808 0  0.3946216884789568 0.2000000000001512 0  0.446899804139621 0.1999999999998389 0  0.4089549580935208 0.1998691686391595 0  0.4322718174608562 0.200127451265745 0  0.4201487168029707 0.1999966199048527 0  0.3528922713220932 0.2000185703532356 0  0.5633122436674589 0.1999814296467508 0  0.3006558810093873 0.1999966199048318 0  0.5815926498168407 0.1966545283159175 0  0.2677053789419034 0.1964246479135325 0  0.5290511287476175 0.1970915826863981 0  0.5439877332217911 0.197091582686394 0  0.2825131256993216 0.2035478995978015 0  0.3199386661080599 0.202908417313604 0  0.4842413153250809 0.1970915826863873 0  0.5141145242734466 0.1970915826863843 0  0.3722167817676917 0.2029084173136195 0  0.4693047108508938 0.1970915826863783 0  0.3348752705822316 0.202908417313609 0  0.3871533862418661 0.2029084173136212 0  0.4543681063767183 0.1970915826863795 0  0.4991779197992749 0.1970915826863902 0  0.4020059614928624 0.203547899597858 0  0.4394315019025246 0.1970915826863714 0  0.2550657455369551 0.2034088125358657 0  0.2548908499171161 0.1966940311614271 0  0.5946539510196798 0.2024302972968126 0  0.267698176732111 0.2039977513680092 0  0.4261685417851465 0.196409292431739 0  0.3590076176283495 0.196411355804271 0  0.5571672426447437 0.2036011176410121 0  0.3066757059912147 0.1964092924317024 0  0.594380730180568 0.1966558399668133 0  0.4842413153245942 0.2040749161535287 0  0.4693047108503577 0.2040749161535231 0  0.3871533862424271 0.1959250838464788 0  0.372246743208829 0.1959123236376545 0  0.5141145242731028 0.2040749161535395 0  0.4543681063761134 0.2040749161535186 0  0.4019979587101454 0.1959834479682427 0  0.4394608940728603 0.2040870543693135 0  0.5439623148931173 0.2040856076781014 0  0.5290511287473298 0.2040749161535501 0  0.4991779197988497 0.2040749161535382 0  0.3347912413592433 0.1959225448935183 0  0.3199680582793816 0.1959123018030061 0  0.2825051229162361 0.1959834479681729 0  0.3590471196690275 0.2036304442587945 0  0.5571594006495384 0.1963685282145804 0  0.3067669986803285 0.203627750582736 0  0.4262598344738712 0.2036568242185335 0  0.5814408164431408 0.2041285596160068 0  0.5688286748170428 0.1961819304477386 0  0.4145905603063645 0.2038180695522843 0  0.3473758401724931 0.2038180695522752 0  0.2950977245128307 0.2038180695522663 0  0.5688286748170693 0.203818069552238 0  0.2950977245127906 0.1961819304477774 0  0.3473758401723931 0.1961819304478349 0  0.4145905603061963 0.1961819304479011 0  0.2601812407614425 0.2056861609747042
[...]
<PointData  Vectors="f_40-1"> 
<DataArray  type="Float64"  Name="f_40-1"  NumberOfComponents="3" format="ascii">0.0000000000000000e+00 0.0000000000000000e+00 0.0000000000000000e+00  0.0000000000000000e+00 0.0000000000000000e+00 0.0000000000000000e+00  0.0000000000000000e+00 0.0000000000000000e+00 0.0000000000000000e+00  0.0000000000000000e+00 0.0000000000000000e+00 0.0000000000000000e+00  -5.1222998269503033e-06 -1.3021145162133415e-06 0.0000000000000000e+00  -4.9275862792214779e-06 -1.8977624999901873e-06 0.0000000000000000e+00  0.0000000000000000e+00 0.0000000000000000e+00 0.0000000000000000e+00  0.0000000000000000e+00 0.0000000000000000e+00 0.0000000000000000e+00  0.0000000000000000e+00 0.0000000000000000e+00 0.0000000000000000e+00  0.0000000000000000e+00 0.0000000000000000e+00 0.0000000000000000e+00  -5.0443411239363182e-06 -1.5998559370542493e-06 0.0000000000000000e+00  0.0000000000000000e+00 0.0000000000000000e+00 0.0000000000000000e+00  0.0000000000000000e+00 0.0000000000000000e+00 0.0000000000000000e+00  0.0000000000000000e+00 0.0000000000000000e+00 0.0000000000000000e+00  0.0000000000000000e+00 0.0000000000000000e+00 0.0000000000000000e+00  0.0000000000000000e+00 0.0000000000000000e+00 0.0000000000000000e+00  0.0000000000000000e+00 0.0000000000000000e+00 0.0000000000000000e+00  0.0000000000000000e+00 0.0000000000000000e+00 0.0000000000000000e+00  0.0000000000000000e+00 0.0000000000000000e+00 0.0000000000000000e+00  0.0000000000000000e+00 0.0000000000000000e+00 0.0000000000000000e+00  0.0000000000000000e+00 0.0000000000000000e+00 0.0000000000000000e+00  0.0000000000000000e+00 0.0000000000000000e+00 0.0000000000000000e+00  0.0000000000000000e+00 0.0000000000000000e+00 0.0000000000000000e+00  0.0000000000000000e+00 0.0000000000000000e+00 0.0000000000000000e+00  0.0000000000000000e+00 0.0000000000000000e+00 0.0000000000000000e+00  0.0000000000000000e+00 0.0000000000000000e+00 0.0000000000000000e+00  0.0000000000000000e+00 0.0000000000000000e+00 0.0000000000000000e+00  0.0000000000000000e+00 0.0000000000000000e+00 0.0000000000000000e+00  0.0000000000000000e+00 0.0000000000000000e+00 0.0000000000000000e+00  0.0000000000000000e+00 0.0000000000000000e+00 0.0000000000000000e+00  0.0000000000000000e+00 0.0000000000000000e+00 0.0000000000000000e+00  0.0000000000000000e+00 0.0000000000000000e+00 0.0000000000000000e+00  0.0000000000000000e+00 0.0000000000000000e+00 0.0000000000000000e+00  0.0000000000000000e+00 0.0000000000000000e+00 0.0000000000000000e+00  0.0000000000000000e+00 0.0000000000000000e+00 0.0000000000000000e+00  0.0000000000000000e+00 0.0000000000000000e+00 0.0000000000000000e+00  0.0000000000000000e+00 0.0000000000000000e+00 0.0000000000000000e+00  0.0000000000000000e+00 0.0000000000000000e+00 0.0000000000000000e+00  0.0000000000000000e+00 0.0000000000000000e+00 0.0000000000000000e+00  0.0000000000000000e+00 0.0000000000000000e+00 0.0000000000000000e+00  0.0000000000000000e+00 0.0000000000000000e+00 0.0000000000000000e+00  0.0000000000000000e+00 0.0000000000000000e+00 0.0000000000000000e+00  0.0000000000000000e+00 0.0000000000000000e+00 0.0000000000000000e+00  0.0000000000000000e+00 0.0000000000000000e+00 0.0000000000000000e+00  0.0000000000000000e+00 0.0000000000000000e+00 0.0000000000000000e+00  0.0000000000000000e+00 0.0000000000000000e+00 0.0000000000000000e+00  0.0000000000000000e+00 0.0000000000000000e+00 0.0000000000000000e+00  0.0000000000000000e+00 0.0000000000000000e+00 0.0000000000000000e+00  0.0000000000000000e+00 0.0000000000000000e+00 0.0000000000000000e+00  0.0000000000000000e+00 0.0000000000000000e+00 0.0000000000000000e+00  0.0000000000000000e+00 0.0000000000000000e+00 0.0000000000000000e+00  0.0000000000000000e+00 0.0000000000000000e+00 0.0000000000000000e+00  0.0000000000000000e+00 0.0000000000000000e+00 0.0000000000000000e+00  0.0000000000000000e+00 0.0000000000000000e+00 0.0000000000000000e+00  0.0000000000000000e+00 0.0000000000000000e+00 0.0000000000000000e+00  0.0000000000000000e+00 0.0000000000000000e+00 0.0000000000000000e+00  0.0000000000000000e+00 0.0000000000000000e+00 0.0000000000000000e+00  0.0000000000000000e+00 0.0000000000000000e+00 0.0000000000000000e+00  0.0000000000000000e+00 0.0000000000000000e+00 0.0000000000000000e+00  0.0000000000000000e+00 0.0000000000000000e+00 0.0000000000000000e+00  0.0000000000000000e+00 0.0000000000000000e+00 0.0000000000000000e+00  0.0000000000000000e+00 0.0000000000000000e+00 0.0000000000000000e+00  0.0000000000000000e+00 0.0000000000000000e+00 0.0000000000000000e+00  0.0000000000000000e+00 0.0000000000000000e+00 0.0000000000000000e+00  0.0000000000000000e+00 0.0000000000000000e+00 0.0000000000000000e+00  0.0000000000000000e+00 0.0000000000000000e+00 0.0000000000000000e+00  0.0000000000000000e+00 0.0000000000000000e+00 0.0000000000000000e+00  0.0000000000000000e+00 0.0000000000000000e+00 0.0000000000000000e+00  0.0000000000000000e+00 0.0000000000000000e+00 0.0000000000000000e+00  0.0000000000000000e+00 0.0000000000000000e+00 0.0000000000000000e+00  0.0000000000000000e+00 0.0000000000000000e+00 0.0000000000000000e+00  0.0000000000000000e+00 0.0000000000000000e+00 0.0000000000000000e+00  0.0000000000000000e+00 0.0000000000000000e+00 0.0000000000000000e+00  0.0000000000000000e+00 0.0000000000000000e+00 0.0000000000000000e+00  0.0000000000000000e+00 0.0000000000000000e+00 0.0000000000000000e+00  0.0000000000000000e+00 0.0000000000000000e+00 0.0000000000000000e+00  0.0000000000000000e+00 0.0000000000000000e+00 0.0000000000000000e+00  0.0000000000000000e+00 0.0000000000000000e+00 0.0000000000000000e+00  0.0000000000000000e+00 0.0000000000000000e+00 0.0000000000000000e+00  0.0000000000000000e+00 0.0000000000000000e+00 0.0000000000000000e+00  0.0000000000000000e+00 0.0000000000000000e+00 0.0000000000000000e+00  0.0000000000000000e+00 0.0000000000000000e+00 0.0000000000000000e+00  0.0000000000000000e+00 0.0000000000000000e+00 0.0000000000000000e+00  0.0000000000000000e+00 0.0000000000000000e+00 0.0000000000000000e+00  0.0000000000000000e+00 0.0000000000000000e+00 0.0000000000000000e+00  0.0000000000000000e+00 0.0000000000000000e+00 0.0000000000000000e+00  0.0000000000000000e+00 0.0000000000000000e+00 0.0000000000000000e+00  0.0000000000000000e+00 0.0000000000000000e+00 0.0000000000000000e+00  0.0000000000000000e+00 0.0000000000000000e+00 0.0000000000000000e+00  0.0000000000000000e+00 0.0000000000000000e+00 0.0000000000000000e+00  0.0000000000000000e+00 0.0000000000000000e+00 0.0000000000000000e+00  0.0000000000000000e+00 0.0000000000000000e+00 0.0000000000000000e+00  0.0000000000000000e+00 0.0000000000000000e+00 0.0000000000000000e+00  0.0000000000000000e+00 0.0000000000000000e+00 0.0000000000000000e+00  0.0000000000000000e+00 0.0000000000000000e+00 0.0000000000000000e+00  0.0000000000000000e+00 0.0000000000000000e+00 0.0000000000000000e+00  0.0000000000000000e+00 0.0000000000000000e+00 0.0000000000000000e+00  0.0000000000000000e+00 0.0000000000000000e+00 0.0000000000000000e+00  0.0000000000000000e+00 0.0000000000000000e+00 0.0000000000000000e+00  0.0000000000000000e+00 0.0000000000000000e+00 0.0000000000000000e+00  0.0000000000000000e+00 0.0000000000000000e+00 0.0000000000000000e+00  0.0000000000000000e+00 0.0000000000000000e+00 0.0000000000000000e+00  0.0000000000000000e+00 0.0000000000000000e+00 0.0000000000000000e+00  0.0000000000000000e+00 0.0000000000000000e+00 0.0000000000000000e+00  0.0000000000000000e+00 0.0000000000000000e+00 0.0000000000000000e+00  0.0000000000000000e+00 0.0000000000000000e+00 0.0000000000000000e+00  0.0000000000000000e+00 0.0000000000000000e+00 0.0000000000000000e+00  0.0000000000000000e+00 0.0000000000000000e+00 0.0000000000000000e+00  0.0000000000000000e+00 0.0000000000000000e+00 0.0000000000000000e+00  0.0000000000000000e+00 0.0000000000000000e+00 0.0000000000000000e+00  0.0000000000000000e+00 0.0000000000000000e+00 0.0000000000000000e+00  0.0000000000000000e+00 0.0000000000000000e+00 0.0000000000000000e+00  0.0000000000000000e+00 0.0000000000000000e+00 0.0000000000000000e+00  0.0000000000000000e+00 0.0000000000000000e+00 0.0000000000000000e+00  0.0000000000000000e+00 0.0000000000000000e+00 0.0000000000000000e+00  0.0000000000000000e+00 0.0000000000000000e+00 0.0000000000000000e+00  0.0000000000000000e+00 0.0000000000000000e+00 0.0000000000000000e+00  0.0000000000000000e+00 0.0000000000000000e+00 0.0000000000000000e+00  0.0000000000000000e+00 0.0000000000000000e+00 0.0000000000000000e+00  0.0000000000000000e+00 0.0000000000000000e+00 0.0000000000000000e+00  0.0000000000000000e+00 0.0000000000000000e+00 0.0000000000000000e+00  0.0000000000000000e+00 0.0000000000000000e+00 0.0000000000000000e+00  0.0000000000000000e+00 0.0000000000000000e+00 0.0000000000000000e+00  0.0000000000000000e+00 0.0000000000000000e+00 0.0000000000000000e+00  0.0000000000000000e+00 0.0000000000000000e+00 0.0000000000000000e+00  0.0000000000000000e+00 0.0000000000000000e+00 0.0000000000000000e+00  0.0000000000000000e+00 0.0000000000000000e+00 0.0000000000000000e+00  0.0000000000000000e+00 0.0000000000000000e+00 0.0000000000000000e+00  0.0000000000000000e+00 0.0000000000000000e+00 0.0000000000000000e+00  0.0000000000000000e+00 0.0000000000000000e+00 0.0000000000000000e+00  0.0000000000000000e+00 0.0000000000000000e+00 0.0000000000000000e+00  0.0000000000000000e+00 0.0000000000000000e+00 0.0000000000000000e+00  0.0000000000000000e+00 0.0000000000000000e+00 0.0000000000000000e+00  0.0000000000000000e+00 0.0000000000000000e+00 0.0000000000000000e+00  0.0000000000000000e+00 0.0000000000000000e+00 0.0000000000000000e+00  0.0000000000000000e+00 0.0000000000000000e+00 0.0000000000000000e+00  0.0000000000000000e+00 0.0000000000000000e+00 0.0000000000000000e+00  0.0000000000000000e+00 0.0000000000000000e+00 0.0000000000000000e+00  0.0000000000000000e+00 0.0000000000000000e+00 0.0000000000000000e+00  0.0000000000000000e+00 0.0000000000000000e+00 0.0000000000000000e+00  0.0000000000000000e+00 0.0000000000000000e+00 0.0000000000000000e+00  0.0000000000000000e+00 0.0000000000000000e+00 0.0000000000000000e+00  0.0000000000000000e+00 0.0000000000000000e+00 0.0000000000000000e+00  -8.5594624585176516e-08 -4.6369456814921284e-07 0.0000000000000000e+00  -1.6088479456691015e-07 -4.9588782297760812e-07 0.0000000000000000e+00  -2.1333475155319830e-07 -5.0155520829879514e-07 0.0000000000000000e+00  -2.5473047510601849e-07 -4.9134890593776184e-07 0.0000000000000000e+00  -2.9257570648893328e-07 -4.8152395350710818e-07 0.0000000000000000e+00  -3.3369849942560132e-07 -4.7609545190276147e-07 0.0000000000000000e+00  -3.7685508968181920e-07 -4.7087510082881846e-07 0.0000000000000000e+00  -4.2380861717634622e-07 -4.6700870701478863e-07 0.0000000000000000e+00  -4.7250408070356516e-07 -4.6442565208730600e-07 0.0000000000000000e+00  -5.2509399723308927e-07 -4.6262799797851130e-07 0.0000000000000000e+00  -5.8005511663558746e-07 -4.6383058498997097e-07 0.0000000000000000e+00  -6.3883483284842861e-07 -4.6546644341262608e-07 0.0000000000000000e+00  -7.0068812245838885e-07 -4.6959074479104869e-07 0.0000000000000000e+00  -7.6561821792321428e-07 -4.7596655264857867e-07 0.0000000000000000e+00  -8.3481206537108373e-07 -4.8411313251036122e-07 0.0000000000000000e+00  -9.0585490209480847e-07 -4.9534576383378496e-07 0.0000000000000000e+00  -9.8155219070352953e-07 -5.0714956909432422e-07 0.0000000000000000e+00  -1.0599429544149087e-06 -5.2356678745891924e-07 0.0000000000000000e+00  -1.1426542156586218e-06 -5.4004945732862640e-07 0.0000000000000000e+00  -1.2279482859889267e-06 -5.6110137565425833e-07 0.0000000000000000e+00  -1.3175160568407877e-06 -5.8245146275938488e-07 0.0000000000000000e+00  -1.4106634790946187e-06 -6.0734680625461392e-07 0.0000000000000000e+00  -1.5068578564236488e-06 -6.3451908606730260e-07 0.0000000000000000e+00  -1.6075594478451344e-06 -6.6350677076780400e-07 0.0000000000000000e+00  -1.7103145823225814e-06 -6.9592943847845020e-07 0.0000000000000000e+00  -1.8176826283480575e-06 -7.2869371280492627e-07 0.0000000000000000e+00  -1.9287756086581511e-06 -7.6653590275301821e-07 0.0000000000000000e+00  -2.0434227777378065e-06 -8.0403683073263642e-07 0.0000000000000000e+00  -2.1618334417392915e-06 -8.4598869312874572e-07 0.0000000000000000e+00  -2.2838524888183624e-06 -8.8832425793769399e-07 0.0000000000000000e+00  -2.4094103964356055e-06 -9.3459142238312267e-07 0.0000000000000000e+00  -2.5390533771396263e-06 -9.8116835896756003e-07 0.0000000000000000e+00  -2.6717912493005255e-06 -1.0319415837407059e-06 0.0000000000000000e+00  -2.8087890246364996e-06 -1.0820294367524120e-06 0.0000000000000000e+00  -2.9497746275329608e-06 -1.1367315867143485e-06 0.0000000000000000e+00  -3.0944104407146944e-06 -1.1910374635606763e-06 0.0000000000000000e+00  -3.2426705106367895e-06 -1.2491654172220248e-06 0.0000000000000000e+00  -3.3948178699244183e-06 -1.3068355182417123e-06 0.0000000000000000e+00  -3.5508716858587917e-06 -1.3678412965667613e-06 0.0000000000000000e+00  -3.7111459069736756e-06 -1.4283272371662357e-06 0.0000000000000000e+00  -3.8754960262354813e-06 -1.4912137951168628e-06 0.0000000000000000e+00  -4.0431850550259914e-06 -1.5541588803823854e-06 0.0000000000000000e+00  -4.2157797238106814e-06 -1.6185962744081328e-06 0.0000000000000000e+00  -4.3905764536472602e-06 -1.6833037450360844e-06 0.0000000000000000e+00  -4.5698101401391419e-06 -1.7476760931198052e-06 0.0000000000000000e+00  -4.7506861437623342e-06 -1.8155961741336361e-06 0.0000000000000000e+00  -4.9931797966944796e-06 -1.7483524613782496e-06 0.0000000000000000e+00  -5.0889824817826053e-06 -1.4514271585992866e-06 0.0000000000000000e+00  -4.9431964151828606e-06 -1.2398370473538061e-06 0.0000000000000000e+00  -4.7606865341974100e-06 -1.1636886464011617e-06 0.0000000000000000e+00  -4.5796086530324322e-06 -1.0861288229023343e-06 0.0000000000000000e+00  -4.4024527542755383e-06 -1.0102147790792488e-06 0.0000000000000000e+00  -4.2276769017154533e-06 -9.3506219614273366e-07 0.0000000000000000e+00  -4.0576830741995368e-06 -8.6101696065079458e-07 0.0000000000000000e+00  -3.8901712048346389e-06 -7.8813417396929485e-07 0.0000000000000000e+00  -3.7270476957008007e-06 -7.1580403943489089e-07 0.0000000000000000e+00  -3.5668742828495484e-06 -6.4617015440137418e-07 0.0000000000000000e+00  -3.4107885520785801e-06 -5.7627814170178850e-07 0.0000000000000000e+00  -3.2577596337028857e-06 -5.0960984165657470e-07 0.0000000000000000e+00  -3.1089026275473174e-06 -4.4314248096947895e-07 0.0000000000000000e+00  -2.9629254221786741e-06 -3.8020653767557460e-07 0.0000000000000000e+00  -2.8211116527509344e-06 -3.1753536729254474e-07 0.0000000000000000e+00  -2.6821458757130054e-06 -2.5858127054090373e-07 0.0000000000000000e+00  -2.5474055841734693e-06 -2.0001501201564070e-07 0.0000000000000000e+00  -2.4155539124839348e-06 -1.4514457263351050e-07 0.0000000000000000e+00  -2.2881177646616350e-06 -9.0867434987839365e-08 0.0000000000000000e+00  -2.1634743411983507e-06 -4.0644352294506642e-08 0.0000000000000000e+00  -2.0431172971383962e-06 8.9809384437082762e-09 0.0000000000000000e+00  -1.9255005124305970e-06 5.4617657169038944e-08 0.0000000000000000e+00  -1.8122278267684426e-06 9.9519071589270815e-08 0.0000000000000000e+00  -1.7022873225061642e-06 1.4120018914326095e-07 0.0000000000000000e+00  -1.5957220497699905e-06 1.8074952612806098e-07 0.0000000000000000e+00  -1.4937714438418898e-06 2.1778306526117462e-07 0.0000000000000000e+00  -1.3935629759711353e-06 2.5216932749844507e-07 0.0000000000000000e+00  -1.2980038237582483e-06 2.8532883082348556e-07 0.0000000000000000e+00  -1.2055672077425655e-06 3.1387653463384272e-07 0.0000000000000000e+00  -1.1171021172863575e-06 3.4265417769996386e-07 0.0000000000000000e+00  -1.0320912942126904e-06 3.6641360179521147e-07 0.0000000000000000e+00  -9.5084739273631064e-07 3.9031979239909710e-07 0.0000000000000000e+00  -8.7322391465146076e-07 4.0984555924297671e-07 0.0000000000000000e+00  -7.9860422609761117e-07 4.2851736775426755e-07 0.0000000000000000e+00  -7.2846810407414960e-07 4.4405163587714524e-07 0.0000000000000000e+00  -6.6043319867339437e-07 4.5807285213085727e-07 0.0000000000000000e+00  -5.9686182477794392e-07 4.7024817387985453e-07 0.0000000000000000e+00  -5.3669109066681764e-07 4.7896845464086588e-07 0.0000000000000000e+00  -4.8019473161048790e-07 4.8753431617187724e-07 0.0000000000000000e+00  -4.2742560496498059e-07 4.9342118263559190e-07 0.0000000000000000e+00  -3.7745162471079267e-07 4.9829495790886961e-07 0.0000000000000000e+00  -3.3182699967708452e-07 5.0188347902118685e-07 0.0000000000000000e+00  -2.8824241862859520e-07 5.0405152855641425e-07 0.0000000000000000e+00  -2.4918809960426209e-07 5.0949505461869002e-07 0.0000000000000000e+00  -2.0686793689652948e-07 5.1329879553647678e-07 0.0000000000000000e+00  -1.5580057264188714e-07 5.0196214630376616e-07 0.0000000000000000e+00  -8.4393056021289284e-08 4.6359585010148802e-07 0.0000000000000000e+00  -2.1542301330151356e-07 -1.4412473304454395e-09 0.0000000000000000e+00  -4.7606732223256406e-06 -1.4946469473309639e-06 0.0000000000000000e+00  -4.4107827369558092e-06 -1.3610608453799607e-06 0.0000000000000000e+00  -3.8770317725520774e-06 -1.1424334713122149e-06 0.0000000000000000e+00  -2.3397629183374205e-07 7.3447000197302661e-09 0.0000000000000000e+00  -3.5608453167525103e-06 -1.0080457603774056e-06 0.0000000000000000e+00  -3.0792619867018645e-07 1.9040283982489276e-08 0.0000000000000000e+00  -3.2522708566176352e-06 -8.8024429032866170e-07 0.0000000000000000e+00  -4.5349121674199269e-07 1.9845114163628471e-08 0.0000000000000000e+00  -5.6055348176816296e-07 7.0517025746824040e-09 0.0000000000000000e+00  -2.9584803117420381e-06 -7.5917801806789769e-07 0.0000000000000000e+00  -8.9492678310783191e-07 -3.7747432729701426e-08 0.0000000000000000e+00  -2.4149563610643145e-06 -5.4033588007416553e-07 0.0000000000000000e+00  -6.7733265577117388e-07 1.8297947331833531e-10 0.0000000000000000e+00  -1.0485517411563519e-06 -7.8644833274126136e-08 0.0000000000000000e+00  -2.1650692554198427e-06 -4.4370283770668769e-07 0.0000000000000000e+00  -2.6793905803099101e-06 -6.4565186335546902e-07 0.0000000000000000e+00  -1.2193079037898304e-06 -1.2355977529199098e-07 0.0000000000000000e+00  -1.9296899172829599e-06 -3.5616839351811718e-07 0.0000000000000000e+00  -1.3967998956235457e-06 -1.7016873455125696e-07 0.0000000000000000e+00  -1.7122239239266434e-06 -2.8443254459888816e-07 0.0000000000000000e+00  -1.5449960920088763e-06 -2.2285535140920320e-07 0.0000000000000000e+00  -7.7796082606969577e-07 -2.2493644055887795e-08 0.0000000000000000e+00  -4.1527144829699686e-06 -1.2497022405188731e-06 0.0000000000000000e+00  -3.7510357888772412e-07 1.4341694796695168e-08 0.0000000000000000e+00  -4.6156386189305779e-06 -1.3240998860953246e-06 0.0000000000000000e+00  -2.0995908892994396e-07 1.9388871149000793e-07 0.0000000000000000e+00  -3.4295606565715695e-06 -8.4656865858182237e-07 0.0000000000000000e+00  -3.7466011250398601e-06 -9.8021293558955417e-07 0.0000000000000000e+00  -2.7161344091267648e-07 -1.6558321972031796e-07 0.0000000000000000e+00  -5.0308233357498933e-07 -1.2669712129345229e-07 0.0000000000000000e+00  -2.5659369796144524e-06 -4.8618514383481090e-07 0.0000000000000000e+00  -3.1271334178907611e-06 -7.1898159577052614e-07 0.0000000000000000e+00  -9.6151207896744991e-07 -1.8777032864658018e-07 0.0000000000000000e+00  -2.3070953504742349e-06 -3.8214577916912670e-07 0.0000000000000000e+00  -6.1722590527181800e-07 -1.3404493715680797e-07 0.0000000000000000e+00  -1.1236304914687865e-06 -2.2525340407277233e-07 0.0000000000000000e+00  -2.0627672545131148e-06 -2.8708886729133992e-07 0.0000000000000000e+00  -2.8392992686251120e-06 -5.9861548020625317e-07 0.0000000000000000e+00  -1.2961784673469863e-06 -2.9880605876422802e-07 0.0000000000000000e+00  -1.8327703760672614e-06 -2.0124389280047091e-07 0.0000000000000000e+00  -1.5838252639680058e-07 -1.1052685761756879e-07 0.0000000000000000e+00  -1.5432667794245549e-07 1.0039489829659728e-07 0.0000000000000000e+00  -4.8862549376780232e-06 -1.6179629155620585