<?xml version="1.0"?>
<VTKFile type="UnstructuredGrid"  version="0.1"  >
<UnstructuredGrid>
<Piece  NumberOfPoints="1419" NumberOfCells="2698">
<Points>
<DataArray  type="Float64"  NumberOfComponents="3"  format="ascii">0 0 0  0 0.41 0  2.5 0 0  2.5 0.41 0  0.6 0.19 0  0.6 0.21 0  0.25 0.2 0  0.15 0.2 0  0.2489897948556636 0.21 0  0.2489897948556636 0.19 0  0.6 0.2 0  0 0.3807142857143437 0  0 0.3514285714286952 0  0 0.3221428571430699 0  0 0.29285714285744 0  0 0.2635714285718054 0  0 0.2342857142861561 0  0 0.2050000000005308 0  0 0.175714285714732 0  0 0.1464285714289574 0  0 0.1171428571431897 0  0 0.08785714285737878 0  0 0.05857142857161107 0  0 0.02928571428580012 0  0.03015443760436003 0 0  0.06140001986583606 0 0  0.09377624077125973 0 0  0.1273239957535082 0 0  0.1620856860351972 0 0  0.1981052433264291 0 0  0.235428184091502 0 0  0.2741016576309132 0 0  0.3141745521465447 0 0  0.3556974926295285 0 0  0.3987229542472677 0 0  0.4433053055141081 0 0  0.4895008759286886 0 0  0.5373680609405097 0 0  0.5869673343216626 0 0  0.6383613676634521 0 0  0.6916151138468254 0 0  0.7467958595648856 0 0  0.8039733463919316 0 0  0.8632198139502143 0 0  0.9246101326867038 0 0  0.9882218810934433 0 0  1.054135445558498 0 0  1.122434100542598 0 0  1.193204177141305 0 0  1.266535089879536 0 0  1.342519516046404 0 0  1.421253448503939 0 0  1.502836389106271 0 0  1.587371439758838 0 0  1.674965418777374 0 0  1.765729001825544 0 0  1.859776908880082 0 0  1.957227977487062 0 0  2.058205329869943 0 0  2.162836591189951 0 0  2.271253957290865 0 0  2.383594446803425 0 0  2.5 0.1024999999997612 0  2.5 0.2049999999994743 0  2.5 0.3074999999997183 0  2.383594446803656 0.41 0  2.271253957291315 0.41 0  2.162836591190598 0.41 0  2.058205329870775 0.41 0  1.957227977488067 0.41 0  1.859776908881246 0.41 0  1.765729001826854 0.41 0  1.674965418778818 0.41 0  1.58737143976041 0.41 0  1.502836389107956 0.41 0  1.421253448505726 0.41 0  1.342519516048286 0.41 0  1.266535089881505 0.41 0  1.193204177143353 0.41 0  1.122434100544716 0.41 0  1.05413544556068 0.41 0  0.9882218810956305 0.41 0  0.9246101326886647 0.41 0  0.8632198139519631 0.41 0  0.8039733463934788 0.41 0  0.7467958595662458 0.41 0  0.6916151138480078 0.41 0  0.6383613676644679 0.41 0  0.5869673343225223 0.41 0  0.5373680609412221 0.41 0  0.4895008759292634 0.41 0  0.4433053055145528 0.41 0  0.3987229542475914 0.41 0  0.3556974926297398 0.41 0  0.3141745521466497 0.41 0  0.2741016576310038 0.41 0  0.2354281840915826 0.41 0  0.1981052433265003 0.41 0  0.1620856860352591 0.41 0  0.1273239957535623 0.41 0  0.09377624077128965 0.41 0  0.06140001986584975 0.41 0  0.03015443760436654 0.41 0  0.2497468076502589 0.2050254481002335 0  0.2497468076502614 0.1949745518997913 0  0.2469965252529372 0.1829317073451959 0  0.2439893735792749 0.1762316384219906 0  0.2400332147834255 0.1700443375285386 0  0.2352133972704371 0.1645032867342007 0  0.2296339016332438 0.1597280261969788 0  0.2234150974217223 0.1558215752574715 0  0.2166911463437691 0.1528682099456123 0  0.2096071079204251 0.1509316448471593 0  0.2023158100364996 0.1500536585536553 0  0.194974551899914 0.1502531923497262 0  0.1877417105387872 0.1515259415822739 0  0.1807733240461124 0.153844448527136 0  0.1742197252835808 0.15715869474974 0  0.1682222986673531 0.1613971801805478 0  0.162910430003803 0.1664684656256651 0  0.1583987151779087 0.1722631454351573 0  0.1547844879126891 0.178656207771761 0  0.1521457199348551 0.1855097315605723 0  0.1505393388476355 0.1926758619366523 0  0.1505393388476328 0.2073241380633295 0  0.1521457199348437 0.2144902684393899 0  0.1547844879126531 0.221343792228163 0  0.1583987151778488 0.2277368545647528 0  0.1629104300036858 0.2335315343742052 0  0.1682222986671726 0.2386028198193036 0  0.1742197252833576 0.2428413052501257 0  0.1807733240458683 0.2461555514727623 0  0.1877417105384929 0.2484740584176516 0  0.1949745518995776 0.2497468076502398 0  0.202315810036185 0.2499463414463592 0  0.2096071079201568 0.2490683551528932 0  0.2166911463435495 0.2471317900544655 0  0.2234150974215506 0.2441784247426195 0  0.2296339016331197 0.2402719738031125 0  0.2352133972703547 0.2354967132658811 0  0.2400332147833751 0.2299556624715287 0  0.2439893735792577 0.2237683615780412 0  0.246996525252926 0.2170682926548348 0  0.25645809709277 0.21 0  0.2639263993298655 0.21 0  0.271394701566961 0.21 0  0.2788630038040554 0.21 0  0.2863313060411479 0.21 0  0.2937996082782405 0.21 0  0.301267910515333 0.21 0  0.3087362127524279 0.21 0  0.3162045149895234 0.21 0  0.3236728172265972 0.21 0  0.3311411194636928 0.21 0  0.3386094217007701 0.21 0  0.3460777239378666 0.21 0  0.3535460261749672 0.21 0  0.3610143284120516 0.21 0  0.3684826306491596 0.21 0  0.3759509328862226 0.21 0  0.383419235123329 0.21 0  0.3908875373604028 0.21 0  0.3983558395975142 0.21 0  0.4058241418345938 0.21 0  0.4132924440716992 0.21 0  0.4207607463087888 0.21 0  0.4282290485459029 0.21 0  0.4356973507830418 0.21 0  0.4431656530201649 0.21 0  0.4506339552573136 0.21 0  0.4581022574944306 0.21 0  0.4655705597315852 0.21 0  0.4730388619686996 0.21 0  0.480507164205851 0.21 0  0.4879754664429498 0.21 0  0.4954437686800938 0.21 0  0.502912070917267 0.21 0  0.5103803731544119 0.21 0  0.5178486753915261 0.21 0  0.5253169776286404 0.21 0  0.5327852798657868 0.21 0  0.5402535821029386 0.21 0  0.54772188434007 0.21 0  0.5551901865771842 0.21 0  0.5626584888143201 0.21 0  0.5701267910514778 0.21 0  0.5775950932886138 0.21 0  0.5850633955257281 0.21 0  0.5925316977628483 0.21 0  0.6 0.2050000000000054 0  0.6 0.1950000000000217 0  0.5925316977628897 0.19 0  0.5850633955257988 0.19 0  0.5775950932887378 0.19 0  0.5701267910515998 0.19 0  0.5626584888145268 0.19 0  0.5551901865773963 0.19 0  0.547721884340339 0.19 0  0.5402535821032429 0.19 0  0.5327852798661811 0.19 0  0.5253169776290537 0.19 0  0.5178486753919799 0.19 0  0.5103803731549078 0.19 0  0.502912070917822 0.19 0  0.4954437686807294 0.19 0  0.4879754664436223 0.19 0  0.4805071642065402 0.19 0  0.4730388619694271 0.19 0  0.4655705597323621 0.19 0  0.4581022574952563 0.19 0  0.4506339552581777 0.19 0  0.4431656530210671 0.19 0  0.4356973507839815 0.19 0  0.4282290485468779 0.19 0  0.4207607463097617 0.19 0  0.4132924440726327 0.19 0  0.4058241418354857 0.19 0  0.3983558395983636 0.19 0  0.3908875373612097 0.19 0  0.3834192351240934 0.19 0  0.3759509328869369 0.19 0  0.3684826306498175 0.19 0  0.361014328412667 0.19 0  0.3535460261755617 0.19 0  0.3460777239384295 0.19 0  0.3386094217012945 0.19 0  0.3311411194641595 0.19 0  0.3236728172270245 0.19 0  0.3162045149898895 0.19 0  0.3087362127527544 0.19 0  0.3012679105156187 0.19 0  0.2937996082784807 0.19 0  0.2863313060413428 0.19 0  0.2788630038042048 0.19 0  0.2713947015670686 0.19 0  0.2639263993299336 0.19 0  0.2564580970927985 0.19 0  0.2607803159922026 0.2000727136295815 0  0.5887803774232762 0.2001272386983733 0  0.5745072403740523 0.2002044435018727 0  0.5511891430099709 0.2001122610077113 0  0.2751288526855082 0.20000000000002 0  0.5365194309847112 0.1999999999999436 0  0.2894621222999649 0.1998691686390484 0  0.5215828265105155 0.1999999999999228 0  0.3127789816668748 0.1998657885438805 0  0.3274069683451451 0.2000000000000796 0  0.5066462220363641 0.199999999999908 0  0.3650630746574081 0.199866017807523 0  0.476773013087985 0.1999999999998713 0  0.3417402379596385 0.1998691686391011 0  0.3796850840047755 0.200000000000134 0  0.4618364086138087 0.1999999999998546 0  0.4917096175621762 0.1999999999998808 0  0.3946216884789568 0.2000000000001512 0  0.446899804139621 0.1999999999998389 0  0.4089549580935208 0.1998691686391595 0  0.4322718174608562 0.200127451265745 0  0.4201487168029707 0.1999966199048527 0  0.3528922713220932 0.2000185703532356 0  0.5633122436674589 0.1999814296467508 0  0.3006558810093873 0.1999966199048318 0  0.5815926498168407 0.1966545283159175 0  0.2677053789419034 0.1964246479135325 0  0.5290511287476175 0.1970915826863981 0  0.5439877332217911 0.197091582686394 0  0.2825131256993216 0.2035478995978015 0  0.3199386661080599 0.202908417313604 0  0.4842413153250809 0.1970915826863873 0  0.5141145242734466 0.1970915826863843 0  0.3722167817676917 0.2029084173136195 0  0.4693047108508938 0.1970915826863783 0  0.3348752705822316 0.202908417313609 0  0.3871533862418661 0.2029084173136212 0  0.4543681063767183 0.1970915826863795 0  0.4991779197992749 0.1970915826863902 0  0.4020059614928624 0.203547899597858 0  0.4394315019025246 0.1970915826863714 0  0.2550657455369551 0.2034088125358657 0  0.2548908499171161 0.1966940311614271 0  0.5946539510196798 0.2024302972968126 0  0.267698176732111 0.2039977513680092 0  0.4261685417851465 0.196409292431739 0  0.3590076176283495 0.196411355804271 0  0.5571672426447437 0.2036011176410121 0  0.3066757059912147 0.1964092924317024 0  0.594380730180568 0.1966558399668133 0  0.4842413153245942 0.2040749161535287 0  0.4693047108503577 0.2040749161535231 0  0.3871533862424271 0.1959250838464788 0  0.372246743208829 0.1959123236376545 0  0.5141145242731028 0.2040749161535395 0  0.4543681063761134 0.2040749161535186 0  0.4019979587101454 0.1959834479682427 0  0.4394608940728603 0.2040870543693135 0  0.5439623148931173 0.2040856076781014 0  0.5290511287473298 0.2040749161535501 0  0.4991779197988497 0.2040749161535382 0  0.3347912413592433 0.1959225448935183 0  0.3199680582793816 0.1959123018030061 0  0.2825051229162361 0.1959834479681729 0  0.3590471196690275 0.2036304442587945 0  0.5571594006495384 0.1963685282145804 0  0.3067669986803285 0.203627750582736 0  0.4262598344738712 0.2036568242185335 0  0.5814408164431408 0.2041285596160068 0  0.5688286748170428 0.1961819304477386 0  0.4145905603063645 0.2038180695522843 0  0.3473758401724931 0.2038180695522752 0  0.2950977245128307 0.2038180695522663 0  0.5688286748170693 0.203818069552238 0  0.2950977245127906 0.1961819304477774 0  0.3473758401723931 0.1961819304478349 0  0.4145905603061963 0.1961819304479011 0  0.2601812407614425 0.2056861609747042
[...]
<PointData  Vectors="f_40-1"> 
<DataArray  type="Float64"  Name="f_40-1"  NumberOfComponents="3" format="ascii">0.0000000000000000e+00 0.0000000000000000e+00 0.0000000000000000e+00  0.0000000000000000e+00 0.0000000000000000e+00 0.0000000000000000e+00  0.0000000000000000e+00 0.0000000000000000e+00 0.0000000000000000e+00  0.0000000000000000e+00 0.0000000000000000e+00 0.0000000000000000e+00  -7.7699849577821372e-06 -7.8847581171502856e-06 0.0000000000000000e+00  -6.9804082910569789e-06 -9.0287358841479044e-06 0.0000000000000000e+00  0.0000000000000000e+00 0.0000000000000000e+00 0.0000000000000000e+00  0.0000000000000000e+00 0.0000000000000000e+00 0.0000000000000000e+00  0.0000000000000000e+00 0.0000000000000000e+00 0.0000000000000000e+00  0.0000000000000000e+00 0.0000000000000000e+00 0.0000000000000000e+00  -7.4309975251797809e-06 -8.4569752135702779e-06 0.0000000000000000e+00  0.0000000000000000e+00 0.0000000000000000e+00 0.0000000000000000e+00  0.0000000000000000e+00 0.0000000000000000e+00 0.0000000000000000e+00  0.0000000000000000e+00 0.0000000000000000e+00 0.0000000000000000e+00  0.0000000000000000e+00 0.0000000000000000e+00 0.0000000000000000e+00  0.0000000000000000e+00 0.0000000000000000e+00 0.0000000000000000e+00  0.0000000000000000e+00 0.0000000000000000e+00 0.0000000000000000e+00  0.0000000000000000e+00 0.0000000000000000e+00 0.0000000000000000e+00  0.0000000000000000e+00 0.0000000000000000e+00 0.0000000000000000e+00  0.0000000000000000e+00 0.0000000000000000e+00 0.0000000000000000e+00  0.0000000000000000e+00 0.0000000000000000e+00 0.0000000000000000e+00  0.0000000000000000e+00 0.0000000000000000e+00 0.0000000000000000e+00  0.0000000000000000e+00 0.0000000000000000e+00 0.0000000000000000e+00  0.0000000000000000e+00 0.0000000000000000e+00 0.0000000000000000e+00  0.0000000000000000e+00 0.0000000000000000e+00 0.0000000000000000e+00  0.0000000000000000e+00 0.0000000000000000e+00 0.0000000000000000e+00  0.0000000000000000e+00 0.0000000000000000e+00 0.0000000000000000e+00  0.0000000000000000e+00 0.0000000000000000e+00 0.0000000000000000e+00  0.0000000000000000e+00 0.0000000000000000e+00 0.0000000000000000e+00  0.0000000000000000e+00 0.0000000000000000e+00 0.0000000000000000e+00  0.0000000000000000e+00 0.0000000000000000e+00 0.0000000000000000e+00  0.0000000000000000e+00 0.0000000000000000e+00 0.0000000000000000e+00  0.0000000000000000e+00 0.0000000000000000e+00 0.0000000000000000e+00  0.0000000000000000e+00 0.0000000000000000e+00 0.0000000000000000e+00  0.0000000000000000e+00 0.0000000000000000e+00 0.0000000000000000e+00  0.0000000000000000e+00 0.0000000000000000e+00 0.0000000000000000e+00  0.0000000000000000e+00 0.0000000000000000e+00 0.0000000000000000e+00  0.0000000000000000e+00 0.0000000000000000e+00 0.0000000000000000e+00  0.0000000000000000e+00 0.0000000000000000e+00 0.0000000000000000e+00  0.0000000000000000e+00 0.0000000000000000e+00 0.0000000000000000e+00  0.0000000000000000e+00 0.0000000000000000e+00 0.0000000000000000e+00  0.0000000000000000e+00 0.0000000000000000e+00 0.0000000000000000e+00  0.0000000000000000e+00 0.0000000000000000e+00 0.0000000000000000e+00  0.0000000000000000e+00 0.0000000000000000e+00 0.0000000000000000e+00  0.0000000000000000e+00 0.0000000000000000e+00 0.0000000000000000e+00  0.0000000000000000e+00 0.0000000000000000e+00 0.0000000000000000e+00  0.0000000000000000e+00 0.0000000000000000e+00 0.0000000000000000e+00  0.0000000000000000e+00 0.0000000000000000e+00 0.0000000000000000e+00  0.0000000000000000e+00 0.0000000000000000e+00 0.0000000000000000e+00  0.0000000000000000e+00 0.0000000000000000e+00 0.0000000000000000e+00  0.0000000000000000e+00 0.0000000000000000e+00 0.0000000000000000e+00  0.0000000000000000e+00 0.0000000000000000e+00 0.0000000000000000e+00  0.0000000000000000e+00 0.0000000000000000e+00 0.0000000000000000e+00  0.0000000000000000e+00 0.0000000000000000e+00 0.0000000000000000e+00  0.0000000000000000e+00 0.0000000000000000e+00 0.0000000000000000e+00  0.0000000000000000e+00 0.0000000000000000e+00 0.0000000000000000e+00  0.0000000000000000e+00 0.0000000000000000e+00 0.0000000000000000e+00  0.0000000000000000e+00 0.0000000000000000e+00 0.0000000000000000e+00  0.0000000000000000e+00 0.0000000000000000e+00 0.0000000000000000e+00  0.0000000000000000e+00 0.0000000000000000e+00 0.0000000000000000e+00  0.0000000000000000e+00 0.0000000000000000e+00 0.0000000000000000e+00  0.0000000000000000e+00 0.0000000000000000e+00 0.0000000000000000e+00  0.0000000000000000e+00 0.0000000000000000e+00 0.0000000000000000e+00  0.0000000000000000e+00 0.0000000000000000e+00 0.0000000000000000e+00  0.0000000000000000e+00 0.0000000000000000e+00 0.0000000000000000e+00  0.0000000000000000e+00 0.0000000000000000e+00 0.0000000000000000e+00  0.0000000000000000e+00 0.0000000000000000e+00 0.0000000000000000e+00  0.0000000000000000e+00 0.0000000000000000e+00 0.0000000000000000e+00  0.0000000000000000e+00 0.0000000000000000e+00 0.0000000000000000e+00  0.0000000000000000e+00 0.0000000000000000e+00 0.0000000000000000e+00  0.0000000000000000e+00 0.0000000000000000e+00 0.0000000000000000e+00  0.0000000000000000e+00 0.0000000000000000e+00 0.0000000000000000e+00  0.0000000000000000e+00 0.0000000000000000e+00 0.0000000000000000e+00  0.0000000000000000e+00 0.0000000000000000e+00 0.0000000000000000e+00  0.0000000000000000e+00 0.0000000000000000e+00 0.0000000000000000e+00  0.0000000000000000e+00 0.0000000000000000e+00 0.0000000000000000e+00  0.0000000000000000e+00 0.0000000000000000e+00 0.0000000000000000e+00  0.0000000000000000e+00 0.0000000000000000e+00 0.0000000000000000e+00  0.0000000000000000e+00 0.0000000000000000e+00 0.0000000000000000e+00  0.0000000000000000e+00 0.0000000000000000e+00 0.0000000000000000e+00  0.0000000000000000e+00 0.0000000000000000e+00 0.0000000000000000e+00  0.0000000000000000e+00 0.0000000000000000e+00 0.0000000000000000e+00  0.0000000000000000e+00 0.0000000000000000e+00 0.0000000000000000e+00  0.0000000000000000e+00 0.0000000000000000e+00 0.0000000000000000e+00  0.0000000000000000e+00 0.0000000000000000e+00 0.0000000000000000e+00  0.0000000000000000e+00 0.0000000000000000e+00 0.0000000000000000e+00  0.0000000000000000e+00 0.0000000000000000e+00 0.0000000000000000e+00  0.0000000000000000e+00 0.0000000000000000e+00 0.0000000000000000e+00  0.0000000000000000e+00 0.0000000000000000e+00 0.0000000000000000e+00  0.0000000000000000e+00 0.0000000000000000e+00 0.0000000000000000e+00  0.0000000000000000e+00 0.0000000000000000e+00 0.0000000000000000e+00  0.0000000000000000e+00 0.0000000000000000e+00 0.0000000000000000e+00  0.0000000000000000e+00 0.0000000000000000e+00 0.0000000000000000e+00  0.0000000000000000e+00 0.0000000000000000e+00 0.0000000000000000e+00  0.0000000000000000e+00 0.0000000000000000e+00 0.0000000000000000e+00  0.0000000000000000e+00 0.0000000000000000e+00 0.0000000000000000e+00  0.0000000000000000e+00 0.0000000000000000e+00 0.0000000000000000e+00  0.0000000000000000e+00 0.0000000000000000e+00 0.0000000000000000e+00  0.0000000000000000e+00 0.0000000000000000e+00 0.0000000000000000e+00  0.0000000000000000e+00 0.0000000000000000e+00 0.0000000000000000e+00  0.0000000000000000e+00 0.0000000000000000e+00 0.0000000000000000e+00  0.0000000000000000e+00 0.0000000000000000e+00 0.0000000000000000e+00  0.0000000000000000e+00 0.0000000000000000e+00 0.0000000000000000e+00  0.0000000000000000e+00 0.0000000000000000e+00 0.0000000000000000e+00  0.0000000000000000e+00 0.0000000000000000e+00 0.0000000000000000e+00  0.0000000000000000e+00 0.0000000000000000e+00 0.0000000000000000e+00  0.0000000000000000e+00 0.0000000000000000e+00 0.0000000000000000e+00  0.0000000000000000e+00 0.0000000000000000e+00 0.0000000000000000e+00  0.0000000000000000e+00 0.0000000000000000e+00 0.0000000000000000e+00  0.0000000000000000e+00 0.0000000000000000e+00 0.0000000000000000e+00  0.0000000000000000e+00 0.0000000000000000e+00 0.0000000000000000e+00  0.0000000000000000e+00 0.0000000000000000e+00 0.0000000000000000e+00  0.0000000000000000e+00 0.0000000000000000e+00 0.0000000000000000e+00  0.0000000000000000e+00 0.0000000000000000e+00 0.0000000000000000e+00  0.0000000000000000e+00 0.0000000000000000e+00 0.0000000000000000e+00  0.0000000000000000e+00 0.0000000000000000e+00 0.0000000000000000e+00  0.0000000000000000e+00 0.0000000000000000e+00 0.0000000000000000e+00  0.0000000000000000e+00 0.0000000000000000e+00 0.0000000000000000e+00  0.0000000000000000e+00 0.0000000000000000e+00 0.0000000000000000e+00  0.0000000000000000e+00 0.0000000000000000e+00 0.0000000000000000e+00  0.0000000000000000e+00 0.0000000000000000e+00 0.0000000000000000e+00  0.0000000000000000e+00 0.0000000000000000e+00 0.0000000000000000e+00  0.0000000000000000e+00 0.0000000000000000e+00 0.0000000000000000e+00  0.0000000000000000e+00 0.0000000000000000e+00 0.0000000000000000e+00  0.0000000000000000e+00 0.0000000000000000e+00 0.0000000000000000e+00  0.0000000000000000e+00 0.0000000000000000e+00 0.0000000000000000e+00  0.0000000000000000e+00 0.0000000000000000e+00 0.0000000000000000e+00  0.0000000000000000e+00 0.0000000000000000e+00 0.0000000000000000e+00  0.0000000000000000e+00 0.0000000000000000e+00 0.0000000000000000e+00  0.0000000000000000e+00 0.0000000000000000e+00 0.0000000000000000e+00  0.0000000000000000e+00 0.0000000000000000e+00 0.0000000000000000e+00  0.0000000000000000e+00 0.0000000000000000e+00 0.0000000000000000e+00  0.0000000000000000e+00 0.0000000000000000e+00 0.0000000000000000e+00  0.0000000000000000e+00 0.0000000000000000e+00 0.0000000000000000e+00  0.0000000000000000e+00 0.0000000000000000e+00 0.0000000000000000e+00  0.0000000000000000e+00 0.0000000000000000e+00 0.0000000000000000e+00  0.0000000000000000e+00 0.0000000000000000e+00 0.0000000000000000e+00  0.0000000000000000e+00 0.0000000000000000e+00 0.0000000000000000e+00  0.0000000000000000e+00 0.0000000000000000e+00 0.0000000000000000e+00  0.0000000000000000e+00 0.0000000000000000e+00 0.0000000000000000e+00  0.0000000000000000e+00 0.0000000000000000e+00 0.0000000000000000e+00  0.0000000000000000e+00 0.0000000000000000e+00 0.0000000000000000e+00  0.0000000000000000e+00 0.0000000000000000e+00 0.0000000000000000e+00  -8.9088995530817383e-08 -9.3086526863752354e-07 0.0000000000000000e+00  -1.5280393681328440e-07 -1.0087744076416817e-06 0.0000000000000000e+00  -1.7166773487794035e-07 -1.0418346180734864e-06 0.0000000000000000e+00  -1.6817129835088078e-07 -1.0530730156123434e-06 0.0000000000000000e+00  -1.6056326528908095e-07 -1.0721035610458266e-06 0.0000000000000000e+00  -1.5897057077772996e-07 -1.1085562104929522e-06 0.0000000000000000e+00  -1.6443725505604595e-07 -1.1513986699325363e-06 0.0000000000000000e+00  -1.7863167746652380e-07 -1.2048912783286134e-06 0.0000000000000000e+00  -1.9572230808235070e-07 -1.2670953114067384e-06 0.0000000000000000e+00  -2.2415169571471601e-07 -1.3366298272135026e-06 0.0000000000000000e+00  -2.5651040626907246e-07 -1.4188859094103590e-06 0.0000000000000000e+00  -2.9985378622255838e-07 -1.5068176015661288e-06 0.0000000000000000e+00  -3.4913163286864626e-07 -1.6055202009367110e-06 0.0000000000000000e+00  -4.0703311089413059e-07 -1.7129370053993418e-06 0.0000000000000000e+00  -4.7456975240692177e-07 -1.8289453419116895e-06 0.0000000000000000e+00  -5.4576659880854291e-07 -1.9553279639255140e-06 0.0000000000000000e+00  -6.2905947135763656e-07 -2.0862638411933898e-06 0.0000000000000000e+00  -7.1764035356521468e-07 -2.2310925543153931e-06 0.0000000000000000e+00  -8.1740777100527355e-07 -2.3786555924963029e-06 0.0000000000000000e+00  -9.2236082406646597e-07 -2.5394279373384305e-06 0.0000000000000000e+00  -1.0379951390711322e-06 -2.7031091489454799e-06 0.0000000000000000e+00  -1.1614063121032942e-06 -2.8774765235822280e-06 0.0000000000000000e+00  -1.2926042405419953e-06 -3.0586074246596981e-06 0.0000000000000000e+00  -1.4337743734341510e-06 -3.2460603245323943e-06 0.0000000000000000e+00  -1.5795735882651997e-06 -3.4426935843098295e-06 0.0000000000000000e+00  -1.7362932588972035e-06 -3.6417322212480211e-06 0.0000000000000000e+00  -1.9015550521039038e-06 -3.8536508396754123e-06 0.0000000000000000e+00  -2.0751686058023562e-06 -4.0658317335397158e-06 0.0000000000000000e+00  -2.2573525114409103e-06 -4.2892351197545704e-06 0.0000000000000000e+00  -2.4479994977750761e-06 -4.5140999041175523e-06 0.0000000000000000e+00  -2.6467213517594379e-06 -4.7487667440007621e-06 0.0000000000000000e+00  -2.8548314362786309e-06 -4.9843468158382534e-06 0.0000000000000000e+00  -3.0701481488623933e-06 -5.2299729683649917e-06 0.0000000000000000e+00  -3.2951936337172805e-06 -5.4743323159913825e-06 0.0000000000000000e+00  -3.5292177712432215e-06 -5.7293652397799729e-06 0.0000000000000000e+00  -3.7716674637026601e-06 -5.9833598592908867e-06 0.0000000000000000e+00  -4.0223521365562794e-06 -6.2461479751827307e-06 0.0000000000000000e+00  -4.2819405187803370e-06 -6.5077263073276842e-06 0.0000000000000000e+00  -4.5503532269486210e-06 -6.7770637110091650e-06 0.0000000000000000e+00  -4.8283241245566919e-06 -7.0449037957572657e-06 0.0000000000000000e+00  -5.1156037933133347e-06 -7.3181672934244790e-06 0.0000000000000000e+00  -5.4105100315965761e-06 -7.5914252700757233e-06 0.0000000000000000e+00  -5.7161483128832293e-06 -7.8679576839258238e-06 0.0000000000000000e+00  -6.0267761190247341e-06 -8.1449258196371156e-06 0.0000000000000000e+00  -6.3474638325703732e-06 -8.4207948476846571e-06 0.0000000000000000e+00  -6.6704764003913791e-06 -8.7059462490463483e-06 0.0000000000000000e+00  -7.2257080001065325e-06 -8.7413656155530254e-06 0.0000000000000000e+00  -7.6165729638035559e-06 -8.1727243548363228e-06 0.0000000000000000e+00  -7.4547976891712808e-06 -7.6212173974015701e-06 0.0000000000000000e+00  -7.1278345016141576e-06 -7.3197907399349043e-06 0.0000000000000000e+00  -6.8029040296186185e-06 -7.0145044424958770e-06 0.0000000000000000e+00  -6.4870023122273824e-06 -6.7133159916899319e-06 0.0000000000000000e+00  -6.1764775285195640e-06 -6.4138458346780367e-06 0.0000000000000000e+00  -5.8765513498871173e-06 -6.1167677788075598e-06 0.0000000000000000e+00  -5.5823417152589851e-06 -5.8223984901108654e-06 0.0000000000000000e+00  -5.2980915956319800e-06 -5.5288516204060574e-06 0.0000000000000000e+00  -5.0205278896318488e-06 -5.2417039529189114e-06 0.0000000000000000e+00  -4.7521617832424843e-06 -4.9536246865104147e-06 0.0000000000000000e+00  -4.4905938703437682e-06 -4.6731622462709659e-06 0.0000000000000000e+00  -4.2383591552559345e-06 -4.3927927705464450e-06 0.0000000000000000e+00  -3.9924984917003108e-06 -4.1207578149535813e-06 0.0000000000000000e+00  -3.7559755282701127e-06 -3.8492151676748676e-06 0.0000000000000000e+00  -3.5256347394289431e-06 -3.5866534575553685e-06 0.0000000000000000e+00  -3.3048198482155531e-06 -3.3251040896509550e-06 0.0000000000000000e+00  -3.0901111830968136e-06 -3.0727376468259704e-06 0.0000000000000000e+00  -2.8853440095560234e-06 -2.8220242660712338e-06 0.0000000000000000e+00  -2.6863928675011689e-06 -2.5815246632107236e-06 0.0000000000000000e+00  -2.4972382991456898e-06 -2.3431147870195923e-06 0.0000000000000000e+00  -2.3136289359952114e-06 -2.1151509787091863e-06 0.0000000000000000e+00  -2.1400654562882785e-06 -1.8899342351388100e-06 0.0000000000000000e+00  -1.9732677686394402e-06 -1.6738159240047245e-06 0.0000000000000000e+00  -1.8143262966733093e-06 -1.4638578723620637e-06 0.0000000000000000e+00  -1.6652963850723623e-06 -1.2618383609225021e-06 0.0000000000000000e+00  -1.5195653243966380e-06 -1.0674303214187326e-06 0.0000000000000000e+00  -1.3844585365499901e-06 -8.7826342230993973e-07 0.0000000000000000e+00  -1.2559158736250874e-06 -7.0192529442218066e-07 0.0000000000000000e+00  -1.1362801773655754e-06 -5.2788948067807615e-07 0.0000000000000000e+00  -1.0237880124252874e-06 -3.6791799748752132e-07 0.0000000000000000e+00  -9.1984778444577203e-07 -2.1063305131751250e-07 0.0000000000000000e+00  -8.2305692817197017e-07 -6.7063781572604315e-08 0.0000000000000000e+00  -7.3364868352514025e-07 7.1462159188975687e-08 0.0000000000000000e+00  -6.5371194570962801e-07 1.9819904298135840e-07 0.0000000000000000e+00  -5.7717231095833074e-07 3.1799725776650586e-07 0.0000000000000000e+00  -5.1091949796682612e-07 4.2858702968756806e-07 0.0000000000000000e+00  -4.5143179555362985e-07 5.2643081289550654e-07 0.0000000000000000e+00  -4.0031884649423660e-07 6.1865980343872779e-07 0.0000000000000000e+00  -3.5598231635115887e-07 6.9834326515891956e-07 0.0000000000000000e+00  -3.1898639851085085e-07 7.7060119815617359e-07 0.0000000000000000e+00  -2.9110550402125874e-07 8.3210893392950616e-07 0.0000000000000000e+00  -2.6569584356407223e-07 8.8475788084460109e-07 0.0000000000000000e+00  -2.5098777899850328e-07 9.3572338060404619e-07 0.0000000000000000e+00  -2.2871777457417944e-07 9.7469118865813631e-07 0.0000000000000000e+00  -1.9064979335064898e-07 9.7535340778104705e-07 0.0000000000000000e+00  -1.0923270101490599e-07 9.1272325348754584e-07 0.0000000000000000e+00  -3.1746250553230067e-07 -1.2384284085038840e-08 0.0000000000000000e+00  -6.9129877109345859e-06 -8.0218279841067159e-06 0.0000000000000000e+00  -6.2804197553896511e-06 -7.4701680141426322e-06 0.0000000000000000e+00  -5.3389516790984750e-06 -6.5702885136801054e-06 0.0000000000000000e+00  -2.1226169932495121e-07 -3.9849096575851848e-08 0.0000000000000000e+00  -4.7920906035491706e-06 -6.0113542122289743e-06 0.0000000000000000e+00  -2.1989785286414883e-07 -9.2141090873652374e-08 0.0000000000000000e+00  -4.2633594025324581e-06 -5.4611541577396850e-06 0.0000000000000000e+00  -2.8789197647473162e-07 -2.7168681441380254e-07 0.0000000000000000e+00  -3.6468097023537191e-07 -4.4299320696308711e-07 0.0000000000000000e+00  -3.7680065782169312e-06 -4.9261090471464118e-06 0.0000000000000000e+00  -6.9949169208809330e-07 -1.0026268980357803e-06 0.0000000000000000e+00  -2.8766065795971019e-06 -3.9108920612365018e-06 0.0000000000000000e+00  -4.6926492905097491e-07 -6.2088755022910145e-07 0.0000000000000000e+00  -8.8076088221019576e-07 -1.2969161192455766e-06 0.0000000000000000e+00  -2.4801692578301412e-06 -3.4351347620569257e-06 0.0000000000000000e+00  -3.3057945103110161e-06 -4.4085502047529452e-06 0.0000000000000000e+00  -1.0988441084714995e-06 -1.6181991632543232e-06 0.0000000000000000e+00  -2.1164219350116397e-06 -2.9835250453435769e-06 0.0000000000000000e+00  -1.3408255682595586e-06 -1.9457183695071566e-06 0.0000000000000000e+00  -1.7873959496324560e-06 -2.5761149630367841e-06 0.0000000000000000e+00  -1.5482074896379046e-06 -2.2414171641261341e-06 0.0000000000000000e+00  -5.7003302866631794e-07 -8.0749184091642235e-07 0.0000000000000000e+00  -5.8277245302415094e-06 -7.0257645804804654e-06 0.0000000000000000e+00  -2.4573828670945124e-07 -1.8106115770772731e-07 0.0000000000000000e+00  -6.7256932005876051e-06 -7.5492117195780275e-06 0.0000000000000000e+00  -2.4844300498722025e-07 3.5713177160104377e-07 0.0000000000000000e+00  -4.6304397261114569e-06 -5.5488557547666027e-06 0.0000000000000000e+00  -5.1782204423711225e-06 -6.1117523106220768e-06 0.0000000000000000e+00  -1.9633306679132337e-07 -4.1949097686926428e-07 0.0000000000000000e+00  -2.9012797780880252e-07 -6.3084705137643590e-07 0.0000000000000000e+00  -3.1838986327806843e-06 -3.9524686309530228e-06 0.0000000000000000e+00  -4.1155537309417860e-06 -4.9995009080949800e-06 0.0000000000000000e+00  -7.2755795430474962e-07 -1.4009856968266057e-06 0.0000000000000000e+00  -2.7668029806801219e-06 -3.4591350431143996e-06 0.0000000000000000e+00  -3.7665678771345234e-07 -8.0558047995993395e-07 0.0000000000000000e+00  -9.2385797574029163e-07 -1.7001304573111231e-06 0.0000000000000000e+00  -2.3821532234904847e-06 -2.9889775982838318e-06 0.0000000000000000e+00  -3.6334783359102774e-06 -4.4665611171632148e-06 0.0000000000000000e+00  -1.1350326697044023e-06 -2.0825203283783798e-06 0.0000000000000000e+00  -2.0295670190127833e-06 -2.5439501616071452e-06 0.0000000000000000e+00  -2.5986774924953008e-07 -2.2253975925081064e-07 0.0000000000000000e+00  -2.5735513008273149e-07 1.9863972274336412e-07 0.0000000000000000e+00  -7.0910189090916806e-06 