<?xml version="1.0"?>
<VTKFile type="UnstructuredGrid"  version="0.1"  >
<UnstructuredGrid>
<Piece  NumberOfPoints="1419" NumberOfCells="2698">
<Points>
<DataArray  type="Float64"  NumberOfComponents="3"  format="ascii">0 0 0  0 0.41 0  2.5 0 0  2.5 0.41 0  0.6 0.19 0  0.6 0.21 0  0.25 0.2 0  0.15 0.2 0  0.2489897948556636 0.21 0  0.2489897948556636 0.19 0  0.6 0.2 0  0 0.3807142857143437 0  0 0.3514285714286952 0  0 0.3221428571430699 0  0 0.29285714285744 0  0 0.2635714285718054 0  0 0.2342857142861561 0  0 0.2050000000005308 0  0 0.175714285714732 0  0 0.1464285714289574 0  0 0.1171428571431897 0  0 0.08785714285737878 0  0 0.05857142857161107 0  0 0.02928571428580012 0  0.03015443760436003 0 0  0.06140001986583606 0 0  0.09377624077125973 0 0  0.1273239957535082 0 0  0.1620856860351972 0 0  0.1981052433264291 0 0  0.235428184091502 0 0  0.2741016576309132 0 0  0.3141745521465447 0 0  0.3556974926295285 0 0  0.3987229542472677 0 0  0.4433053055141081 0 0  0.4895008759286886 0 0  0.5373680609405097 0 0  0.5869673343216626 0 0  0.6383613676634521 0 0  0.6916151138468254 0 0  0.7467958595648856 0 0  0.8039733463919316 0 0  0.8632198139502143 0 0  0.9246101326867038 0 0  0.9882218810934433 0 0  1.054135445558498 0 0  1.122434100542598 0 0  1.193204177141305 0 0  1.266535089879536 0 0  1.342519516046404 0 0  1.421253448503939 0 0  1.502836389106271 0 0  1.587371439758838 0 0  1.674965418777374 0 0  1.765729001825544 0 0  1.859776908880082 0 0  1.957227977487062 0 0  2.058205329869943 0 0  2.162836591189951 0 0  2.271253957290865 0 0  2.383594446803425 0 0  2.5 0.1024999999997612 0  2.5 0.2049999999994743 0  2.5 0.3074999999997183 0  2.383594446803656 0.41 0  2.271253957291315 0.41 0  2.162836591190598 0.41 0  2.058205329870775 0.41 0  1.957227977488067 0.41 0  1.859776908881246 0.41 0  1.765729001826854 0.41 0  1.674965418778818 0.41 0  1.58737143976041 0.41 0  1.502836389107956 0.41 0  1.421253448505726 0.41 0  1.342519516048286 0.41 0  1.266535089881505 0.41 0  1.193204177143353 0.41 0  1.122434100544716 0.41 0  1.05413544556068 0.41 0  0.9882218810956305 0.41 0  0.9246101326886647 0.41 0  0.8632198139519631 0.41 0  0.8039733463934788 0.41 0  0.7467958595662458 0.41 0  0.6916151138480078 0.41 0  0.6383613676644679 0.41 0  0.5869673343225223 0.41 0  0.5373680609412221 0.41 0  0.4895008759292634 0.41 0  0.4433053055145528 0.41 0  0.3987229542475914 0.41 0  0.3556974926297398 0.41 0  0.3141745521466497 0.41 0  0.2741016576310038 0.41 0  0.2354281840915826 0.41 0  0.1981052433265003 0.41 0  0.1620856860352591 0.41 0  0.1273239957535623 0.41 0  0.09377624077128965 0.41 0  0.06140001986584975 0.41 0  0.03015443760436654 0.41 0  0.2497468076502589 0.2050254481002335 0  0.2497468076502614 0.1949745518997913 0  0.2469965252529372 0.1829317073451959 0  0.2439893735792749 0.1762316384219906 0  0.2400332147834255 0.1700443375285386 0  0.2352133972704371 0.1645032867342007 0  0.2296339016332438 0.1597280261969788 0  0.2234150974217223 0.1558215752574715 0  0.2166911463437691 0.1528682099456123 0  0.2096071079204251 0.1509316448471593 0  0.2023158100364996 0.1500536585536553 0  0.194974551899914 0.1502531923497262 0  0.1877417105387872 0.1515259415822739 0  0.1807733240461124 0.153844448527136 0  0.1742197252835808 0.15715869474974 0  0.1682222986673531 0.1613971801805478 0  0.162910430003803 0.1664684656256651 0  0.1583987151779087 0.1722631454351573 0  0.1547844879126891 0.178656207771761 0  0.1521457199348551 0.1855097315605723 0  0.1505393388476355 0.1926758619366523 0  0.1505393388476328 0.2073241380633295 0  0.1521457199348437 0.2144902684393899 0  0.1547844879126531 0.221343792228163 0  0.1583987151778488 0.2277368545647528 0  0.1629104300036858 0.2335315343742052 0  0.1682222986671726 0.2386028198193036 0  0.1742197252833576 0.2428413052501257 0  0.1807733240458683 0.2461555514727623 0  0.1877417105384929 0.2484740584176516 0  0.1949745518995776 0.2497468076502398 0  0.202315810036185 0.2499463414463592 0  0.2096071079201568 0.2490683551528932 0  0.2166911463435495 0.2471317900544655 0  0.2234150974215506 0.2441784247426195 0  0.2296339016331197 0.2402719738031125 0  0.2352133972703547 0.2354967132658811 0  0.2400332147833751 0.2299556624715287 0  0.2439893735792577 0.2237683615780412 0  0.246996525252926 0.2170682926548348 0  0.25645809709277 0.21 0  0.2639263993298655 0.21 0  0.271394701566961 0.21 0  0.2788630038040554 0.21 0  0.2863313060411479 0.21 0  0.2937996082782405 0.21 0  0.301267910515333 0.21 0  0.3087362127524279 0.21 0  0.3162045149895234 0.21 0  0.3236728172265972 0.21 0  0.3311411194636928 0.21 0  0.3386094217007701 0.21 0  0.3460777239378666 0.21 0  0.3535460261749672 0.21 0  0.3610143284120516 0.21 0  0.3684826306491596 0.21 0  0.3759509328862226 0.21 0  0.383419235123329 0.21 0  0.3908875373604028 0.21 0  0.3983558395975142 0.21 0  0.4058241418345938 0.21 0  0.4132924440716992 0.21 0  0.4207607463087888 0.21 0  0.4282290485459029 0.21 0  0.4356973507830418 0.21 0  0.4431656530201649 0.21 0  0.4506339552573136 0.21 0  0.4581022574944306 0.21 0  0.4655705597315852 0.21 0  0.4730388619686996 0.21 0  0.480507164205851 0.21 0  0.4879754664429498 0.21 0  0.4954437686800938 0.21 0  0.502912070917267 0.21 0  0.5103803731544119 0.21 0  0.5178486753915261 0.21 0  0.5253169776286404 0.21 0  0.5327852798657868 0.21 0  0.5402535821029386 0.21 0  0.54772188434007 0.21 0  0.5551901865771842 0.21 0  0.5626584888143201 0.21 0  0.5701267910514778 0.21 0  0.5775950932886138 0.21 0  0.5850633955257281 0.21 0  0.5925316977628483 0.21 0  0.6 0.2050000000000054 0  0.6 0.1950000000000217 0  0.5925316977628897 0.19 0  0.5850633955257988 0.19 0  0.5775950932887378 0.19 0  0.5701267910515998 0.19 0  0.5626584888145268 0.19 0  0.5551901865773963 0.19 0  0.547721884340339 0.19 0  0.5402535821032429 0.19 0  0.5327852798661811 0.19 0  0.5253169776290537 0.19 0  0.5178486753919799 0.19 0  0.5103803731549078 0.19 0  0.502912070917822 0.19 0  0.4954437686807294 0.19 0  0.4879754664436223 0.19 0  0.4805071642065402 0.19 0  0.4730388619694271 0.19 0  0.4655705597323621 0.19 0  0.4581022574952563 0.19 0  0.4506339552581777 0.19 0  0.4431656530210671 0.19 0  0.4356973507839815 0.19 0  0.4282290485468779 0.19 0  0.4207607463097617 0.19 0  0.4132924440726327 0.19 0  0.4058241418354857 0.19 0  0.3983558395983636 0.19 0  0.3908875373612097 0.19 0  0.3834192351240934 0.19 0  0.3759509328869369 0.19 0  0.3684826306498175 0.19 0  0.361014328412667 0.19 0  0.3535460261755617 0.19 0  0.3460777239384295 0.19 0  0.3386094217012945 0.19 0  0.3311411194641595 0.19 0  0.3236728172270245 0.19 0  0.3162045149898895 0.19 0  0.3087362127527544 0.19 0  0.3012679105156187 0.19 0  0.2937996082784807 0.19 0  0.2863313060413428 0.19 0  0.2788630038042048 0.19 0  0.2713947015670686 0.19 0  0.2639263993299336 0.19 0  0.2564580970927985 0.19 0  0.2607803159922026 0.2000727136295815 0  0.5887803774232762 0.2001272386983733 0  0.5745072403740523 0.2002044435018727 0  0.5511891430099709 0.2001122610077113 0  0.2751288526855082 0.20000000000002 0  0.5365194309847112 0.1999999999999436 0  0.2894621222999649 0.1998691686390484 0  0.5215828265105155 0.1999999999999228 0  0.3127789816668748 0.1998657885438805 0  0.3274069683451451 0.2000000000000796 0  0.5066462220363641 0.199999999999908 0  0.3650630746574081 0.199866017807523 0  0.476773013087985 0.1999999999998713 0  0.3417402379596385 0.1998691686391011 0  0.3796850840047755 0.200000000000134 0  0.4618364086138087 0.1999999999998546 0  0.4917096175621762 0.1999999999998808 0  0.3946216884789568 0.2000000000001512 0  0.446899804139621 0.1999999999998389 0  0.4089549580935208 0.1998691686391595 0  0.4322718174608562 0.200127451265745 0  0.4201487168029707 0.1999966199048527 0  0.3528922713220932 0.2000185703532356 0  0.5633122436674589 0.1999814296467508 0  0.3006558810093873 0.1999966199048318 0  0.5815926498168407 0.1966545283159175 0  0.2677053789419034 0.1964246479135325 0  0.5290511287476175 0.1970915826863981 0  0.5439877332217911 0.197091582686394 0  0.2825131256993216 0.2035478995978015 0  0.3199386661080599 0.202908417313604 0  0.4842413153250809 0.1970915826863873 0  0.5141145242734466 0.1970915826863843 0  0.3722167817676917 0.2029084173136195 0  0.4693047108508938 0.1970915826863783 0  0.3348752705822316 0.202908417313609 0  0.3871533862418661 0.2029084173136212 0  0.4543681063767183 0.1970915826863795 0  0.4991779197992749 0.1970915826863902 0  0.4020059614928624 0.203547899597858 0  0.4394315019025246 0.1970915826863714 0  0.2550657455369551 0.2034088125358657 0  0.2548908499171161 0.1966940311614271 0  0.5946539510196798 0.2024302972968126 0  0.267698176732111 0.2039977513680092 0  0.4261685417851465 0.196409292431739 0  0.3590076176283495 0.196411355804271 0  0.5571672426447437 0.2036011176410121 0  0.3066757059912147 0.1964092924317024 0  0.594380730180568 0.1966558399668133 0  0.4842413153245942 0.2040749161535287 0  0.4693047108503577 0.2040749161535231 0  0.3871533862424271 0.1959250838464788 0  0.372246743208829 0.1959123236376545 0  0.5141145242731028 0.2040749161535395 0  0.4543681063761134 0.2040749161535186 0  0.4019979587101454 0.1959834479682427 0  0.4394608940728603 0.2040870543693135 0  0.5439623148931173 0.2040856076781014 0  0.5290511287473298 0.2040749161535501 0  0.4991779197988497 0.2040749161535382 0  0.3347912413592433 0.1959225448935183 0  0.3199680582793816 0.1959123018030061 0  0.2825051229162361 0.1959834479681729 0  0.3590471196690275 0.2036304442587945 0  0.5571594006495384 0.1963685282145804 0  0.3067669986803285 0.203627750582736 0  0.4262598344738712 0.2036568242185335 0  0.5814408164431408 0.2041285596160068 0  0.5688286748170428 0.1961819304477386 0  0.4145905603063645 0.2038180695522843 0  0.3473758401724931 0.2038180695522752 0  0.2950977245128307 0.2038180695522663 0  0.5688286748170693 0.203818069552238 0  0.2950977245127906 0.1961819304477774 0  0.3473758401723931 0.1961819304478349 0  0.4145905603061963 0.1961819304479011 0  0.2601812407614425 0.2056861609747042
[...]
<PointData  Vectors="f_40-1"> 
<DataArray  type="Float64"  Name="f_40-1"  NumberOfComponents="3" format="ascii">0.0000000000000000e+00 0.0000000000000000e+00 0.0000000000000000e+00  0.0000000000000000e+00 0.0000000000000000e+00 0.0000000000000000e+00  0.0000000000000000e+00 0.0000000000000000e+00 0.0000000000000000e+00  0.0000000000000000e+00 0.0000000000000000e+00 0.0000000000000000e+00  -5.5394912498973450e-06 -1.7743179853046858e-06 0.0000000000000000e+00  -5.2921874102725750e-06 -2.4376380970971722e-06 0.0000000000000000e+00  0.0000000000000000e+00 0.0000000000000000e+00 0.0000000000000000e+00  0.0000000000000000e+00 0.0000000000000000e+00 0.0000000000000000e+00  0.0000000000000000e+00 0.0000000000000000e+00 0.0000000000000000e+00  0.0000000000000000e+00 0.0000000000000000e+00 0.0000000000000000e+00  -5.4390534141951767e-06 -2.1059196691654608e-06 0.0000000000000000e+00  0.0000000000000000e+00 0.0000000000000000e+00 0.0000000000000000e+00  0.0000000000000000e+00 0.0000000000000000e+00 0.0000000000000000e+00  0.0000000000000000e+00 0.0000000000000000e+00 0.0000000000000000e+00  0.0000000000000000e+00 0.0000000000000000e+00 0.0000000000000000e+00  0.0000000000000000e+00 0.0000000000000000e+00 0.0000000000000000e+00  0.0000000000000000e+00 0.0000000000000000e+00 0.0000000000000000e+00  0.0000000000000000e+00 0.0000000000000000e+00 0.0000000000000000e+00  0.0000000000000000e+00 0.0000000000000000e+00 0.0000000000000000e+00  0.0000000000000000e+00 0.0000000000000000e+00 0.0000000000000000e+00  0.0000000000000000e+00 0.0000000000000000e+00 0.0000000000000000e+00  0.0000000000000000e+00 0.0000000000000000e+00 0.0000000000000000e+00  0.0000000000000000e+00 0.0000000000000000e+00 0.0000000000000000e+00  0.0000000000000000e+00 0.0000000000000000e+00 0.0000000000000000e+00  0.0000000000000000e+00 0.0000000000000000e+00 0.0000000000000000e+00  0.0000000000000000e+00 0.0000000000000000e+00 0.0000000000000000e+00  0.0000000000000000e+00 0.0000000000000000e+00 0.0000000000000000e+00  0.0000000000000000e+00 0.0000000000000000e+00 0.0000000000000000e+00  0.0000000000000000e+00 0.0000000000000000e+00 0.0000000000000000e+00  0.0000000000000000e+00 0.0000000000000000e+00 0.0000000000000000e+00  0.0000000000000000e+00 0.0000000000000000e+00 0.0000000000000000e+00  0.0000000000000000e+00 0.0000000000000000e+00 0.0000000000000000e+00  0.0000000000000000e+00 0.0000000000000000e+00 0.0000000000000000e+00  0.0000000000000000e+00 0.0000000000000000e+00 0.0000000000000000e+00  0.0000000000000000e+00 0.0000000000000000e+00 0.0000000000000000e+00  0.0000000000000000e+00 0.0000000000000000e+00 0.0000000000000000e+00  0.0000000000000000e+00 0.0000000000000000e+00 0.0000000000000000e+00  0.0000000000000000e+00 0.0000000000000000e+00 0.0000000000000000e+00  0.0000000000000000e+00 0.0000000000000000e+00 0.0000000000000000e+00  0.0000000000000000e+00 0.0000000000000000e+00 0.0000000000000000e+00  0.0000000000000000e+00 0.0000000000000000e+00 0.0000000000000000e+00  0.0000000000000000e+00 0.0000000000000000e+00 0.0000000000000000e+00  0.0000000000000000e+00 0.0000000000000000e+00 0.0000000000000000e+00  0.0000000000000000e+00 0.0000000000000000e+00 0.0000000000000000e+00  0.0000000000000000e+00 0.0000000000000000e+00 0.0000000000000000e+00  0.0000000000000000e+00 0.0000000000000000e+00 0.0000000000000000e+00  0.0000000000000000e+00 0.0000000000000000e+00 0.0000000000000000e+00  0.0000000000000000e+00 0.0000000000000000e+00 0.0000000000000000e+00  0.0000000000000000e+00 0.0000000000000000e+00 0.0000000000000000e+00  0.0000000000000000e+00 0.0000000000000000e+00 0.0000000000000000e+00  0.0000000000000000e+00 0.0000000000000000e+00 0.0000000000000000e+00  0.0000000000000000e+00 0.0000000000000000e+00 0.0000000000000000e+00  0.0000000000000000e+00 0.0000000000000000e+00 0.0000000000000000e+00  0.0000000000000000e+00 0.0000000000000000e+00 0.0000000000000000e+00  0.0000000000000000e+00 0.0000000000000000e+00 0.0000000000000000e+00  0.0000000000000000e+00 0.0000000000000000e+00 0.0000000000000000e+00  0.0000000000000000e+00 0.0000000000000000e+00 0.0000000000000000e+00  0.0000000000000000e+00 0.0000000000000000e+00 0.0000000000000000e+00  0.0000000000000000e+00 0.0000000000000000e+00 0.0000000000000000e+00  0.0000000000000000e+00 0.0000000000000000e+00 0.0000000000000000e+00  0.0000000000000000e+00 0.0000000000000000e+00 0.0000000000000000e+00  0.0000000000000000e+00 0.0000000000000000e+00 0.0000000000000000e+00  0.0000000000000000e+00 0.0000000000000000e+00 0.0000000000000000e+00  0.0000000000000000e+00 0.0000000000000000e+00 0.0000000000000000e+00  0.0000000000000000e+00 0.0000000000000000e+00 0.0000000000000000e+00  0.0000000000000000e+00 0.0000000000000000e+00 0.0000000000000000e+00  0.0000000000000000e+00 0.0000000000000000e+00 0.0000000000000000e+00  0.0000000000000000e+00 0.0000000000000000e+00 0.0000000000000000e+00  0.0000000000000000e+00 0.0000000000000000e+00 0.0000000000000000e+00  0.0000000000000000e+00 0.0000000000000000e+00 0.0000000000000000e+00  0.0000000000000000e+00 0.0000000000000000e+00 0.0000000000000000e+00  0.0000000000000000e+00 0.0000000000000000e+00 0.0000000000000000e+00  0.0000000000000000e+00 0.0000000000000000e+00 0.0000000000000000e+00  0.0000000000000000e+00 0.0000000000000000e+00 0.0000000000000000e+00  0.0000000000000000e+00 0.0000000000000000e+00 0.0000000000000000e+00  0.0000000000000000e+00 0.0000000000000000e+00 0.0000000000000000e+00  0.0000000000000000e+00 0.0000000000000000e+00 0.0000000000000000e+00  0.0000000000000000e+00 0.0000000000000000e+00 0.0000000000000000e+00  0.0000000000000000e+00 0.0000000000000000e+00 0.0000000000000000e+00  0.0000000000000000e+00 0.0000000000000000e+00 0.0000000000000000e+00  0.0000000000000000e+00 0.0000000000000000e+00 0.0000000000000000e+00  0.0000000000000000e+00 0.0000000000000000e+00 0.0000000000000000e+00  0.0000000000000000e+00 0.0000000000000000e+00 0.0000000000000000e+00  0.0000000000000000e+00 0.0000000000000000e+00 0.0000000000000000e+00  0.0000000000000000e+00 0.0000000000000000e+00 0.0000000000000000e+00  0.0000000000000000e+00 0.0000000000000000e+00 0.0000000000000000e+00  0.0000000000000000e+00 0.0000000000000000e+00 0.0000000000000000e+00  0.0000000000000000e+00 0.0000000000000000e+00 0.0000000000000000e+00  0.0000000000000000e+00 0.0000000000000000e+00 0.0000000000000000e+00  0.0000000000000000e+00 0.0000000000000000e+00 0.0000000000000000e+00  0.0000000000000000e+00 0.0000000000000000e+00 0.0000000000000000e+00  0.0000000000000000e+00 0.0000000000000000e+00 0.0000000000000000e+00  0.0000000000000000e+00 0.0000000000000000e+00 0.0000000000000000e+00  0.0000000000000000e+00 0.0000000000000000e+00 0.0000000000000000e+00  0.0000000000000000e+00 0.0000000000000000e+00 0.0000000000000000e+00  0.0000000000000000e+00 0.0000000000000000e+00 0.0000000000000000e+00  0.0000000000000000e+00 0.0000000000000000e+00 0.0000000000000000e+00  0.0000000000000000e+00 0.0000000000000000e+00 0.0000000000000000e+00  0.0000000000000000e+00 0.0000000000000000e+00 0.0000000000000000e+00  0.0000000000000000e+00 0.0000000000000000e+00 0.0000000000000000e+00  0.0000000000000000e+00 0.0000000000000000e+00 0.0000000000000000e+00  0.0000000000000000e+00 0.0000000000000000e+00 0.0000000000000000e+00  0.0000000000000000e+00 0.0000000000000000e+00 0.0000000000000000e+00  0.0000000000000000e+00 0.0000000000000000e+00 0.0000000000000000e+00  0.0000000000000000e+00 0.0000000000000000e+00 0.0000000000000000e+00  0.0000000000000000e+00 0.0000000000000000e+00 0.0000000000000000e+00  0.0000000000000000e+00 0.0000000000000000e+00 0.0000000000000000e+00  0.0000000000000000e+00 0.0000000000000000e+00 0.0000000000000000e+00  0.0000000000000000e+00 0.0000000000000000e+00 0.0000000000000000e+00  0.0000000000000000e+00 0.0000000000000000e+00 0.0000000000000000e+00  0.0000000000000000e+00 0.0000000000000000e+00 0.0000000000000000e+00  0.0000000000000000e+00 0.0000000000000000e+00 0.0000000000000000e+00  0.0000000000000000e+00 0.0000000000000000e+00 0.0000000000000000e+00  0.0000000000000000e+00 0.0000000000000000e+00 0.0000000000000000e+00  0.0000000000000000e+00 0.0000000000000000e+00 0.0000000000000000e+00  0.0000000000000000e+00 0.0000000000000000e+00 0.0000000000000000e+00  0.0000000000000000e+00 0.0000000000000000e+00 0.0000000000000000e+00  0.0000000000000000e+00 0.0000000000000000e+00 0.0000000000000000e+00  0.0000000000000000e+00 0.0000000000000000e+00 0.0000000000000000e+00  0.0000000000000000e+00 0.0000000000000000e+00 0.0000000000000000e+00  0.0000000000000000e+00 0.0000000000000000e+00 0.0000000000000000e+00  0.0000000000000000e+00 0.0000000000000000e+00 0.0000000000000000e+00  0.0000000000000000e+00 0.0000000000000000e+00 0.0000000000000000e+00  0.0000000000000000e+00 0.0000000000000000e+00 0.0000000000000000e+00  0.0000000000000000e+00 0.0000000000000000e+00 0.0000000000000000e+00  0.0000000000000000e+00 0.0000000000000000e+00 0.0000000000000000e+00  0.0000000000000000e+00 0.0000000000000000e+00 0.0000000000000000e+00  0.0000000000000000e+00 0.0000000000000000e+00 0.0000000000000000e+00  0.0000000000000000e+00 0.0000000000000000e+00 0.0000000000000000e+00  0.0000000000000000e+00 0.0000000000000000e+00 0.0000000000000000e+00  0.0000000000000000e+00 0.0000000000000000e+00 0.0000000000000000e+00  0.0000000000000000e+00 0.0000000000000000e+00 0.0000000000000000e+00  0.0000000000000000e+00 0.0000000000000000e+00 0.0000000000000000e+00  0.0000000000000000e+00 0.0000000000000000e+00 0.0000000000000000e+00  0.0000000000000000e+00 0.0000000000000000e+00 0.0000000000000000e+00  0.0000000000000000e+00 0.0000000000000000e+00 0.0000000000000000e+00  0.0000000000000000e+00 0.0000000000000000e+00 0.0000000000000000e+00  0.0000000000000000e+00 0.0000000000000000e+00 0.0000000000000000e+00  0.0000000000000000e+00 0.0000000000000000e+00 0.0000000000000000e+00  0.0000000000000000e+00 0.0000000000000000e+00 0.0000000000000000e+00  0.0000000000000000e+00 0.0000000000000000e+00 0.0000000000000000e+00  0.0000000000000000e+00 0.0000000000000000e+00 0.0000000000000000e+00  0.0000000000000000e+00 0.0000000000000000e+00 0.0000000000000000e+00  -9.0032585206603419e-08 -5.1857127811521786e-07 0.0000000000000000e+00  -1.6820882291748963e-07 -5.5483686947129695e-07 0.0000000000000000e+00  -2.2078111440443201e-07 -5.6161423406927376e-07 0.0000000000000000e+00  -2.6097738093409292e-07 -5.5095192864103813e-07 0.0000000000000000e+00  -2.9730601785107325e-07 -5.4093018668517967e-07 0.0000000000000000e+00  -3.3727998443064628e-07 -5.3615427496464981e-07 0.0000000000000000e+00  -3.7964071971705536e-07 -5.3184750258542447e-07 0.0000000000000000e+00  -4.2629221530368876e-07 -5.2940380865190484e-07 0.0000000000000000e+00  -4.7484960257418164e-07 -5.2869278067053402e-07 0.0000000000000000e+00  -5.2793919339812077e-07 -5.2915819103777355e-07 0.0000000000000000e+00  -5.8361500435739900e-07 -5.3337447231139333e-07 0.0000000000000000e+00  -6.4374873571704912e-07 -5.3837678901177130e-07 0.0000000000000000e+00  -7.0727635837378377e-07 -5.4656089446248614e-07 0.0000000000000000e+00  -7.7439802001166371e-07 -5.5758143814801972e-07 0.0000000000000000e+00  -8.4634161292144523e-07 -5.7098358133217124e-07 0.0000000000000000e+00  -9.2031218001989451e-07 -5.8820325599528043e-07 0.0000000000000000e+00  -9.9969591238430428e-07 -6.0638674132346103e-07 0.0000000000000000e+00  -1.0820337734764609e-06 -6.3017862286208046e-07 0.0000000000000000e+00  -1.1694165045969167e-06 -6.5434766336996072e-07 0.0000000000000000e+00  -1.2596371852912860e-06 -6.8405731885266626e-07 0.0000000000000000e+00  -1.3548244687931991e-06 -7.1441171984185381e-07 0.0000000000000000e+00  -1.4540199033418075e-06 -7.4915489876134078e-07 0.0000000000000000e+00  -1.5567864997056311e-06 -7.8674124856642675e-07 0.0000000000000000e+00  -1.6646600654210359e-06 -8.2672745681271131e-07 0.0000000000000000e+00  -1.7748381524808441e-06 -8.7087031949792811e-07 0.0000000000000000e+00  -1.8903324283652411e-06 -9.1567878730662709e-07 0.0000000000000000e+00  -2.0100708843150021e-06 -9.6652859383035534e-07 0.0000000000000000e+00  -2.1338957735755426e-06 -1.0172035885094118e-06 0.0000000000000000e+00  -2.2620041688846975e-06 -1.0731766248837110e-06 0.0000000000000000e+00  -2.3942621910470496e-06 -1.1297619806877057e-06 0.0000000000000000e+00  -2.5305496075236466e-06 -1.1910227715194436e-06 0.0000000000000000e+00  -2.6715201851297320e-06 -1.2527676462856515e-06 0.0000000000000000e+00  -2.8160277769640897e-06 -1.3194539928220694e-06 0.0000000000000000e+00  -2.9654087942599378e-06 -1.3854782758618751e-06 0.0000000000000000e+00  -3.1193253507822457e-06 -1.4568791450597565e-06 0.0000000000000000e+00  -3.2774283412795047e-06 -1.5278961026563214e-06 0.0000000000000000e+00  -3.4396634916039947e-06 -1.6033636400509711e-06 0.0000000000000000e+00  -3.6063502441981725e-06 -1.6783671916332261e-06 0.0000000000000000e+00  -3.7774869254303335e-06 -1.7572567532462226e-06 0.0000000000000000e+00  -3.9534440718922489e-06 -1.8355789168679653e-06 0.0000000000000000e+00  -4.1340523439308320e-06 -1.9166863574982199e-06 0.0000000000000000e+00  -4.3184849366223115e-06 -1.9978772478982722e-06 0.0000000000000000e+00  -4.5084759544899754e-06 -2.0807947656829932e-06 0.0000000000000000e+00  -4.7009743304307385e-06 -2.1640156951435910e-06 0.0000000000000000e+00  -4.8985337952394321e-06 -2.2468483789381565e-06 0.0000000000000000e+00  -5.0978260674462309e-06 -2.3338592675801646e-06 0.0000000000000000e+00  -5.3741909393165866e-06 -2.2712160863522777e-06 0.0000000000000000e+00  -5.4960245254059222e-06 -1.9407001255151792e-06 0.0000000000000000e+00  -5.3425778222681102e-06 -1.6946177590246768e-06 0.0000000000000000e+00  -5.1413832588157330e-06 -1.5984718917312182e-06 0.0000000000000000e+00  -4.9416851064250153e-06 -1.5006600031184751e-06 0.0000000000000000e+00  -4.7464465606833331e-06 -1.4047644402376737e-06 0.0000000000000000e+00  -4.5539101723301681e-06 -1.3097530650988181e-06 0.0000000000000000e+00  -4.3667856705852254e-06 -1.2160262628429543e-06 0.0000000000000000e+00  -4.1824724186978373e-06 -1.1236589162160372e-06 0.0000000000000000e+00  -4.0031596867732883e-06 -1.0319367682664965e-06 0.0000000000000000e+00  -3.8271744071737159e-06 -9.4336023658896679e-07 0.0000000000000000e+00  -3.6558473219505838e-06 -8.5453150977459436e-07 0.0000000000000000e+00  -3.4879527494824623e-06 -7.6946975171549505e-07 0.0000000000000000e+00  -3.3248144897951681e-06 -6.8469304708296387e-07 0.0000000000000000e+00  -3.1648998392502918e-06 -6.0404784082124647e-07 0.0000000000000000e+00  -3.0097426208845580e-06 -5.2379333416980748e-07 0.0000000000000000e+00  -2.8577621346530032e-06 -4.4791832300439584e-07 0.0000000000000000e+00  -2.7106164387457990e-06 -3.7261051172690017e-07 0.0000000000000000e+00  -2.5666757692835100e-06 -3.0169158913917264e-07 0.0000000000000000e+00  -2.4277918867145264e-06 -2.3159976052662702e-07 0.0000000000000000e+00  -2.2919949844131283e-06 -1.6633421066826406e-07 0.0000000000000000e+00  -2.1611282147299302e-06 -1.0194128269271920e-07 0.0000000000000000e+00  -2.0332783223302056e-06 -4.2341911882275696e-08 0.0000000000000000e+00  -1.9104363714155974e-06 1.6191154806846818e-08 0.0000000000000000e+00  -1.7912827648446137e-06 7.0768510753405419e-08 0.0000000000000000e+00  -1.6760271860434266e-06 1.2267552477241779e-07 0.0000000000000000e+00  -1.5659892499091300e-06 1.7138241388660218e-07 0.0000000000000000e+00  -1.4578589762361912e-06 2.1682760764462550e-07 0.0000000000000000e+00  -1.3550711408064386e-06 2.6054202683677820e-07 0.0000000000000000e+00  -1.2558005051532013e-06 2.9868077240390858e-07 0.0000000000000000e+00  -1.1610791638689725e-06 3.3675809040155594e-07 0.0000000000000000e+00  -1.0702528774736250e-06 3.6879256139629795e-07 0.0000000000000000e+00  -9.8375420062823237e-07 4.0069502932910115e-07 0.0000000000000000e+00  -9.0132708984562048e-07 4.2723465647872978e-07 0.0000000000000000e+00  -8.2240525085792181e-07 4.5253476960185998e-07 0.0000000000000000e+00  -7.4857230187808181e-07 4.7388001507760453e-07 0.0000000000000000e+00  -6.7706747707082489e-07 4.9323755291446180e-07 0.0000000000000000e+00  -6.1070499037560959e-07 5.1016022308099850e-07 0.0000000000000000e+00  -5.4820133112055424e-07 5.2282926144848441e-07 0.0000000000000000e+00  -4.8992597971375726e-07 5.3504259624608435e-07 0.0000000000000000e+00  -4.3586237533060609e-07 5.4386425229977324e-07 0.0000000000000000e+00  -3.8506304452251987e-07 5.5129813195341162e-07 0.0000000000000000e+00  -3.3921075910319421e-07 5.5693375683247527e-07 0.0000000000000000e+00  -2.9563157497028180e-07 5.6072924955780931e-07 0.0000000000000000e+00  -2.5726390436811056e-07 5.6790689341179059e-07 0.0000000000000000e+00  -2.1528953469751802e-07 5.7292620842547443e-07 0.0000000000000000e+00  -1.6364592890229066e-07 5.6081436792797946e-07 0.0000000000000000e+00  -8.9179924828683286e-08 5.1817084181851353e-07 0.0000000000000000e+00  -2.3226450767921082e-07 -1.7226912908415158e-09 0.0000000000000000e+00  -5.1255761016967195e-06 -1.9716647634276863e-06 0.0000000000000000e+00  -4.7393483714200037e-06 -1.8012876953841315e-06 0.0000000000000000e+00  -4.1519660574415399e-06 -1.5228222831068705e-06 0.0000000000000000e+00  -2.4199881243482283e-07 7.1263044068269241e-09 0.0000000000000000e+00  -3.8048215415180446e-06 -1.3514162237203987e-06 0.0000000000000000e+00  -3.1386849853253946e-07 1.8266222475503995e-08 0.0000000000000000e+00  -3.4664099704380218e-06 -1.1872981132140942e-06 0.0000000000000000e+00  -4.5951789464682836e-07 1.3708233916609396e-08 0.0000000000000000e+00  -5.6878691453264272e-07 -5.5987516606190589e-09 0.0000000000000000e+00  -3.1448181345798973e-06 -1.0311533175152827e-06 0.0000000000000000e+00  -9.1717681028992639e-07 -7.4816469024680707e-08 0.0000000000000000e+00  -2.5517483111525253e-06 -7.4672445471747837e-07 0.0000000000000000e+00  -6.8946782227445634e-07 -1.9469170648370010e-08 0.0000000000000000e+00  -1.0794524840390368e-06 -1.3048910453263102e-07 0.0000000000000000e+00  -2.2800944863319616e-06 -6.2000561717916794e-07 0.0000000000000000e+00  -2.8399481336849872e-06 -8.8399661300820957e-07 0.0000000000000000e+00  -1.2610370927772249e-06 -1.9235490601881354e-07 0.0000000000000000e+00  -2.0249479025064349e-06 -5.0446066986167576e-07 0.0000000000000000e+00  -1.4509143416081557e-06 -2.5705560574760572e-07 0.0000000000000000e+00  -1.7897904516390683e-06 -4.0803866932744968e-07 0.0000000000000000e+00  -1.6099529313736062e-06 -3.2675642812120598e-07 0.0000000000000000e+00  -7.9440419894847526e-07 -5.0611264612209931e-08 0.0000000000000000e+00  -4.4555382952640808e-06 -1.6604450750565371e-06 0.0000000000000000e+00  -3.8070048809842632e-07 1.0718810969709221e-08 0.0000000000000000e+00  -4.9709993811645087e-06 -1.7711956489182082e-06 0.0000000000000000e+00  -2.2108225277411025e-07 2.1626683489427771e-07 0.0000000000000000e+00  -3.6654067850959693e-06 -1.1607410075199359e-06 0.0000000000000000e+00  -4.0134899946843362e-06 -1.3315992099750231e-06 0.0000000000000000e+00  -2.7797048711764151e-07 -1.8708091205183818e-07 0.0000000000000000e+00  -5.0879042487766621e-07 -1.5234608677765296e-07 0.0000000000000000e+00  -2.7205634579758888e-06 -6.9629447947926373e-07 0.0000000000000000e+00  -3.3339260388455381e-06 -9.9704564458597032e-07 0.0000000000000000e+00  -9.8491626835990347e-07 -2.4705682680427315e-07 0.0000000000000000e+00  -2.4385911979733137e-06 -5.6082822612545659e-07 0.0000000000000000e+00  -6.2566766737686584e-07 -1.6631764685432906e-07 0.0000000000000000e+00  -1.1564207179736376e-06 -2.9984224361922428e-07 0.0000000000000000e+00  -2.1731013544394251e-06 -4.3632592816455710e-07 0.0000000000000000e+00  -3.0190238896340393e-06 -8.4191689303876480e-07 0.0000000000000000e+00  -1.3393571776740828e-06 -3.9431947767012420e-07 0.0000000000000000e+00  -1.9238977275219517e-06 -3.2320023123092101e-07 0.0000000000000000e+00  -1.7291957747282191e-07 -1.2363230080487345e-07 0.0000000000000000e+00  -1.6861224769663621e-07 1.1231548274964044e-07 0.0000000000000000e+00  -5.2605696142838731e-06 -2.117711040977