<?xml version="1.0"?>
<VTKFile type="UnstructuredGrid"  version="0.1"  >
<UnstructuredGrid>
<Piece  NumberOfPoints="1419" NumberOfCells="2698">
<Points>
<DataArray  type="Float64"  NumberOfComponents="3"  format="ascii">0 0 0  0 0.41 0  2.5 0 0  2.5 0.41 0  0.6 0.19 0  0.6 0.21 0  0.25 0.2 0  0.15 0.2 0  0.2489897948556636 0.21 0  0.2489897948556636 0.19 0  0.6 0.2 0  0 0.3807142857143437 0  0 0.3514285714286952 0  0 0.3221428571430699 0  0 0.29285714285744 0  0 0.2635714285718054 0  0 0.2342857142861561 0  0 0.2050000000005308 0  0 0.175714285714732 0  0 0.1464285714289574 0  0 0.1171428571431897 0  0 0.08785714285737878 0  0 0.05857142857161107 0  0 0.02928571428580012 0  0.03015443760436003 0 0  0.06140001986583606 0 0  0.09377624077125973 0 0  0.1273239957535082 0 0  0.1620856860351972 0 0  0.1981052433264291 0 0  0.235428184091502 0 0  0.2741016576309132 0 0  0.3141745521465447 0 0  0.3556974926295285 0 0  0.3987229542472677 0 0  0.4433053055141081 0 0  0.4895008759286886 0 0  0.5373680609405097 0 0  0.5869673343216626 0 0  0.6383613676634521 0 0  0.6916151138468254 0 0  0.7467958595648856 0 0  0.8039733463919316 0 0  0.8632198139502143 0 0  0.9246101326867038 0 0  0.9882218810934433 0 0  1.054135445558498 0 0  1.122434100542598 0 0  1.193204177141305 0 0  1.266535089879536 0 0  1.342519516046404 0 0  1.421253448503939 0 0  1.502836389106271 0 0  1.587371439758838 0 0  1.674965418777374 0 0  1.765729001825544 0 0  1.859776908880082 0 0  1.957227977487062 0 0  2.058205329869943 0 0  2.162836591189951 0 0  2.271253957290865 0 0  2.383594446803425 0 0  2.5 0.1024999999997612 0  2.5 0.2049999999994743 0  2.5 0.3074999999997183 0  2.383594446803656 0.41 0  2.271253957291315 0.41 0  2.162836591190598 0.41 0  2.058205329870775 0.41 0  1.957227977488067 0.41 0  1.859776908881246 0.41 0  1.765729001826854 0.41 0  1.674965418778818 0.41 0  1.58737143976041 0.41 0  1.502836389107956 0.41 0  1.421253448505726 0.41 0  1.342519516048286 0.41 0  1.266535089881505 0.41 0  1.193204177143353 0.41 0  1.122434100544716 0.41 0  1.05413544556068 0.41 0  0.9882218810956305 0.41 0  0.9246101326886647 0.41 0  0.8632198139519631 0.41 0  0.8039733463934788 0.41 0  0.7467958595662458 0.41 0  0.6916151138480078 0.41 0  0.6383613676644679 0.41 0  0.5869673343225223 0.41 0  0.5373680609412221 0.41 0  0.4895008759292634 0.41 0  0.4433053055145528 0.41 0  0.3987229542475914 0.41 0  0.3556974926297398 0.41 0  0.3141745521466497 0.41 0  0.2741016576310038 0.41 0  0.2354281840915826 0.41 0  0.1981052433265003 0.41 0  0.1620856860352591 0.41 0  0.1273239957535623 0.41 0  0.09377624077128965 0.41 0  0.06140001986584975 0.41 0  0.03015443760436654 0.41 0  0.2497468076502589 0.2050254481002335 0  0.2497468076502614 0.1949745518997913 0  0.2469965252529372 0.1829317073451959 0  0.2439893735792749 0.1762316384219906 0  0.2400332147834255 0.1700443375285386 0  0.2352133972704371 0.1645032867342007 0  0.2296339016332438 0.1597280261969788 0  0.2234150974217223 0.1558215752574715 0  0.2166911463437691 0.1528682099456123 0  0.2096071079204251 0.1509316448471593 0  0.2023158100364996 0.1500536585536553 0  0.194974551899914 0.1502531923497262 0  0.1877417105387872 0.1515259415822739 0  0.1807733240461124 0.153844448527136 0  0.1742197252835808 0.15715869474974 0  0.1682222986673531 0.1613971801805478 0  0.162910430003803 0.1664684656256651 0  0.1583987151779087 0.1722631454351573 0  0.1547844879126891 0.178656207771761 0  0.1521457199348551 0.1855097315605723 0  0.1505393388476355 0.1926758619366523 0  0.1505393388476328 0.2073241380633295 0  0.1521457199348437 0.2144902684393899 0  0.1547844879126531 0.221343792228163 0  0.1583987151778488 0.2277368545647528 0  0.1629104300036858 0.2335315343742052 0  0.1682222986671726 0.2386028198193036 0  0.1742197252833576 0.2428413052501257 0  0.1807733240458683 0.2461555514727623 0  0.1877417105384929 0.2484740584176516 0  0.1949745518995776 0.2497468076502398 0  0.202315810036185 0.2499463414463592 0  0.2096071079201568 0.2490683551528932 0  0.2166911463435495 0.2471317900544655 0  0.2234150974215506 0.2441784247426195 0  0.2296339016331197 0.2402719738031125 0  0.2352133972703547 0.2354967132658811 0  0.2400332147833751 0.2299556624715287 0  0.2439893735792577 0.2237683615780412 0  0.246996525252926 0.2170682926548348 0  0.25645809709277 0.21 0  0.2639263993298655 0.21 0  0.271394701566961 0.21 0  0.2788630038040554 0.21 0  0.2863313060411479 0.21 0  0.2937996082782405 0.21 0  0.301267910515333 0.21 0  0.3087362127524279 0.21 0  0.3162045149895234 0.21 0  0.3236728172265972 0.21 0  0.3311411194636928 0.21 0  0.3386094217007701 0.21 0  0.3460777239378666 0.21 0  0.3535460261749672 0.21 0  0.3610143284120516 0.21 0  0.3684826306491596 0.21 0  0.3759509328862226 0.21 0  0.383419235123329 0.21 0  0.3908875373604028 0.21 0  0.3983558395975142 0.21 0  0.4058241418345938 0.21 0  0.4132924440716992 0.21 0  0.4207607463087888 0.21 0  0.4282290485459029 0.21 0  0.4356973507830418 0.21 0  0.4431656530201649 0.21 0  0.4506339552573136 0.21 0  0.4581022574944306 0.21 0  0.4655705597315852 0.21 0  0.4730388619686996 0.21 0  0.480507164205851 0.21 0  0.4879754664429498 0.21 0  0.4954437686800938 0.21 0  0.502912070917267 0.21 0  0.5103803731544119 0.21 0  0.5178486753915261 0.21 0  0.5253169776286404 0.21 0  0.5327852798657868 0.21 0  0.5402535821029386 0.21 0  0.54772188434007 0.21 0  0.5551901865771842 0.21 0  0.5626584888143201 0.21 0  0.5701267910514778 0.21 0  0.5775950932886138 0.21 0  0.5850633955257281 0.21 0  0.5925316977628483 0.21 0  0.6 0.2050000000000054 0  0.6 0.1950000000000217 0  0.5925316977628897 0.19 0  0.5850633955257988 0.19 0  0.5775950932887378 0.19 0  0.5701267910515998 0.19 0  0.5626584888145268 0.19 0  0.5551901865773963 0.19 0  0.547721884340339 0.19 0  0.5402535821032429 0.19 0  0.5327852798661811 0.19 0  0.5253169776290537 0.19 0  0.5178486753919799 0.19 0  0.5103803731549078 0.19 0  0.502912070917822 0.19 0  0.4954437686807294 0.19 0  0.4879754664436223 0.19 0  0.4805071642065402 0.19 0  0.4730388619694271 0.19 0  0.4655705597323621 0.19 0  0.4581022574952563 0.19 0  0.4506339552581777 0.19 0  0.4431656530210671 0.19 0  0.4356973507839815 0.19 0  0.4282290485468779 0.19 0  0.4207607463097617 0.19 0  0.4132924440726327 0.19 0  0.4058241418354857 0.19 0  0.3983558395983636 0.19 0  0.3908875373612097 0.19 0  0.3834192351240934 0.19 0  0.3759509328869369 0.19 0  0.3684826306498175 0.19 0  0.361014328412667 0.19 0  0.3535460261755617 0.19 0  0.3460777239384295 0.19 0  0.3386094217012945 0.19 0  0.3311411194641595 0.19 0  0.3236728172270245 0.19 0  0.3162045149898895 0.19 0  0.3087362127527544 0.19 0  0.3012679105156187 0.19 0  0.2937996082784807 0.19 0  0.2863313060413428 0.19 0  0.2788630038042048 0.19 0  0.2713947015670686 0.19 0  0.2639263993299336 0.19 0  0.2564580970927985 0.19 0  0.2607803159922026 0.2000727136295815 0  0.5887803774232762 0.2001272386983733 0  0.5745072403740523 0.2002044435018727 0  0.5511891430099709 0.2001122610077113 0  0.2751288526855082 0.20000000000002 0  0.5365194309847112 0.1999999999999436 0  0.2894621222999649 0.1998691686390484 0  0.5215828265105155 0.1999999999999228 0  0.3127789816668748 0.1998657885438805 0  0.3274069683451451 0.2000000000000796 0  0.5066462220363641 0.199999999999908 0  0.3650630746574081 0.199866017807523 0  0.476773013087985 0.1999999999998713 0  0.3417402379596385 0.1998691686391011 0  0.3796850840047755 0.200000000000134 0  0.4618364086138087 0.1999999999998546 0  0.4917096175621762 0.1999999999998808 0  0.3946216884789568 0.2000000000001512 0  0.446899804139621 0.1999999999998389 0  0.4089549580935208 0.1998691686391595 0  0.4322718174608562 0.200127451265745 0  0.4201487168029707 0.1999966199048527 0  0.3528922713220932 0.2000185703532356 0  0.5633122436674589 0.1999814296467508 0  0.3006558810093873 0.1999966199048318 0  0.5815926498168407 0.1966545283159175 0  0.2677053789419034 0.1964246479135325 0  0.5290511287476175 0.1970915826863981 0  0.5439877332217911 0.197091582686394 0  0.2825131256993216 0.2035478995978015 0  0.3199386661080599 0.202908417313604 0  0.4842413153250809 0.1970915826863873 0  0.5141145242734466 0.1970915826863843 0  0.3722167817676917 0.2029084173136195 0  0.4693047108508938 0.1970915826863783 0  0.3348752705822316 0.202908417313609 0  0.3871533862418661 0.2029084173136212 0  0.4543681063767183 0.1970915826863795 0  0.4991779197992749 0.1970915826863902 0  0.4020059614928624 0.203547899597858 0  0.4394315019025246 0.1970915826863714 0  0.2550657455369551 0.2034088125358657 0  0.2548908499171161 0.1966940311614271 0  0.5946539510196798 0.2024302972968126 0  0.267698176732111 0.2039977513680092 0  0.4261685417851465 0.196409292431739 0  0.3590076176283495 0.196411355804271 0  0.5571672426447437 0.2036011176410121 0  0.3066757059912147 0.1964092924317024 0  0.594380730180568 0.1966558399668133 0  0.4842413153245942 0.2040749161535287 0  0.4693047108503577 0.2040749161535231 0  0.3871533862424271 0.1959250838464788 0  0.372246743208829 0.1959123236376545 0  0.5141145242731028 0.2040749161535395 0  0.4543681063761134 0.2040749161535186 0  0.4019979587101454 0.1959834479682427 0  0.4394608940728603 0.2040870543693135 0  0.5439623148931173 0.2040856076781014 0  0.5290511287473298 0.2040749161535501 0  0.4991779197988497 0.2040749161535382 0  0.3347912413592433 0.1959225448935183 0  0.3199680582793816 0.1959123018030061 0  0.2825051229162361 0.1959834479681729 0  0.3590471196690275 0.2036304442587945 0  0.5571594006495384 0.1963685282145804 0  0.3067669986803285 0.203627750582736 0  0.4262598344738712 0.2036568242185335 0  0.5814408164431408 0.2041285596160068 0  0.5688286748170428 0.1961819304477386 0  0.4145905603063645 0.2038180695522843 0  0.3473758401724931 0.2038180695522752 0  0.2950977245128307 0.2038180695522663 0  0.5688286748170693 0.203818069552238 0  0.2950977245127906 0.1961819304477774 0  0.3473758401723931 0.1961819304478349 0  0.4145905603061963 0.1961819304479011 0  0.2601812407614425 0.2056861609747042
[...]
<PointData  Vectors="f_40-1"> 
<DataArray  type="Float64"  Name="f_40-1"  NumberOfComponents="3" format="ascii">0.0000000000000000e+00 0.0000000000000000e+00 0.0000000000000000e+00  0.0000000000000000e+00 0.0000000000000000e+00 0.0000000000000000e+00  0.0000000000000000e+00 0.0000000000000000e+00 0.0000000000000000e+00  0.0000000000000000e+00 0.0000000000000000e+00 0.0000000000000000e+00  -5.9792860178194816e-06 -2.4968951474081763e-06 0.0000000000000000e+00  -5.6569625496227841e-06 -3.2461368402221619e-06 0.0000000000000000e+00  0.0000000000000000e+00 0.0000000000000000e+00 0.0000000000000000e+00  0.0000000000000000e+00 0.0000000000000000e+00 0.0000000000000000e+00  0.0000000000000000e+00 0.0000000000000000e+00 0.0000000000000000e+00  0.0000000000000000e+00 0.0000000000000000e+00 0.0000000000000000e+00  -5.8463968842869728e-06 -2.8714861394176620e-06 0.0000000000000000e+00  0.0000000000000000e+00 0.0000000000000000e+00 0.0000000000000000e+00  0.0000000000000000e+00 0.0000000000000000e+00 0.0000000000000000e+00  0.0000000000000000e+00 0.0000000000000000e+00 0.0000000000000000e+00  0.0000000000000000e+00 0.0000000000000000e+00 0.0000000000000000e+00  0.0000000000000000e+00 0.0000000000000000e+00 0.0000000000000000e+00  0.0000000000000000e+00 0.0000000000000000e+00 0.0000000000000000e+00  0.0000000000000000e+00 0.0000000000000000e+00 0.0000000000000000e+00  0.0000000000000000e+00 0.0000000000000000e+00 0.0000000000000000e+00  0.0000000000000000e+00 0.0000000000000000e+00 0.0000000000000000e+00  0.0000000000000000e+00 0.0000000000000000e+00 0.0000000000000000e+00  0.0000000000000000e+00 0.0000000000000000e+00 0.0000000000000000e+00  0.0000000000000000e+00 0.0000000000000000e+00 0.0000000000000000e+00  0.0000000000000000e+00 0.0000000000000000e+00 0.0000000000000000e+00  0.0000000000000000e+00 0.0000000000000000e+00 0.0000000000000000e+00  0.0000000000000000e+00 0.0000000000000000e+00 0.0000000000000000e+00  0.0000000000000000e+00 0.0000000000000000e+00 0.0000000000000000e+00  0.0000000000000000e+00 0.0000000000000000e+00 0.0000000000000000e+00  0.0000000000000000e+00 0.0000000000000000e+00 0.0000000000000000e+00  0.0000000000000000e+00 0.0000000000000000e+00 0.0000000000000000e+00  0.0000000000000000e+00 0.0000000000000000e+00 0.0000000000000000e+00  0.0000000000000000e+00 0.0000000000000000e+00 0.0000000000000000e+00  0.0000000000000000e+00 0.0000000000000000e+00 0.0000000000000000e+00  0.0000000000000000e+00 0.0000000000000000e+00 0.0000000000000000e+00  0.0000000000000000e+00 0.0000000000000000e+00 0.0000000000000000e+00  0.0000000000000000e+00 0.0000000000000000e+00 0.0000000000000000e+00  0.0000000000000000e+00 0.0000000000000000e+00 0.0000000000000000e+00  0.0000000000000000e+00 0.0000000000000000e+00 0.0000000000000000e+00  0.0000000000000000e+00 0.0000000000000000e+00 0.0000000000000000e+00  0.0000000000000000e+00 0.0000000000000000e+00 0.0000000000000000e+00  0.0000000000000000e+00 0.0000000000000000e+00 0.0000000000000000e+00  0.0000000000000000e+00 0.0000000000000000e+00 0.0000000000000000e+00  0.0000000000000000e+00 0.0000000000000000e+00 0.0000000000000000e+00  0.0000000000000000e+00 0.0000000000000000e+00 0.0000000000000000e+00  0.0000000000000000e+00 0.0000000000000000e+00 0.0000000000000000e+00  0.0000000000000000e+00 0.0000000000000000e+00 0.0000000000000000e+00  0.0000000000000000e+00 0.0000000000000000e+00 0.0000000000000000e+00  0.0000000000000000e+00 0.0000000000000000e+00 0.0000000000000000e+00  0.0000000000000000e+00 0.0000000000000000e+00 0.0000000000000000e+00  0.0000000000000000e+00 0.0000000000000000e+00 0.0000000000000000e+00  0.0000000000000000e+00 0.0000000000000000e+00 0.0000000000000000e+00  0.0000000000000000e+00 0.0000000000000000e+00 0.0000000000000000e+00  0.0000000000000000e+00 0.0000000000000000e+00 0.0000000000000000e+00  0.0000000000000000e+00 0.0000000000000000e+00 0.0000000000000000e+00  0.0000000000000000e+00 0.0000000000000000e+00 0.0000000000000000e+00  0.0000000000000000e+00 0.0000000000000000e+00 0.0000000000000000e+00  0.0000000000000000e+00 0.0000000000000000e+00 0.0000000000000000e+00  0.0000000000000000e+00 0.0000000000000000e+00 0.0000000000000000e+00  0.0000000000000000e+00 0.0000000000000000e+00 0.0000000000000000e+00  0.0000000000000000e+00 0.0000000000000000e+00 0.0000000000000000e+00  0.0000000000000000e+00 0.0000000000000000e+00 0.0000000000000000e+00  0.0000000000000000e+00 0.0000000000000000e+00 0.0000000000000000e+00  0.0000000000000000e+00 0.0000000000000000e+00 0.0000000000000000e+00  0.0000000000000000e+00 0.0000000000000000e+00 0.0000000000000000e+00  0.0000000000000000e+00 0.0000000000000000e+00 0.0000000000000000e+00  0.0000000000000000e+00 0.0000000000000000e+00 0.0000000000000000e+00  0.0000000000000000e+00 0.0000000000000000e+00 0.0000000000000000e+00  0.0000000000000000e+00 0.0000000000000000e+00 0.0000000000000000e+00  0.0000000000000000e+00 0.0000000000000000e+00 0.0000000000000000e+00  0.0000000000000000e+00 0.0000000000000000e+00 0.0000000000000000e+00  0.0000000000000000e+00 0.0000000000000000e+00 0.0000000000000000e+00  0.0000000000000000e+00 0.0000000000000000e+00 0.0000000000000000e+00  0.0000000000000000e+00 0.0000000000000000e+00 0.0000000000000000e+00  0.0000000000000000e+00 0.0000000000000000e+00 0.0000000000000000e+00  0.0000000000000000e+00 0.0000000000000000e+00 0.0000000000000000e+00  0.0000000000000000e+00 0.0000000000000000e+00 0.0000000000000000e+00  0.0000000000000000e+00 0.0000000000000000e+00 0.0000000000000000e+00  0.0000000000000000e+00 0.0000000000000000e+00 0.0000000000000000e+00  0.0000000000000000e+00 0.0000000000000000e+00 0.0000000000000000e+00  0.0000000000000000e+00 0.0000000000000000e+00 0.0000000000000000e+00  0.0000000000000000e+00 0.0000000000000000e+00 0.0000000000000000e+00  0.0000000000000000e+00 0.0000000000000000e+00 0.0000000000000000e+00  0.0000000000000000e+00 0.0000000000000000e+00 0.0000000000000000e+00  0.0000000000000000e+00 0.0000000000000000e+00 0.0000000000000000e+00  0.0000000000000000e+00 0.0000000000000000e+00 0.0000000000000000e+00  0.0000000000000000e+00 0.0000000000000000e+00 0.0000000000000000e+00  0.0000000000000000e+00 0.0000000000000000e+00 0.0000000000000000e+00  0.0000000000000000e+00 0.0000000000000000e+00 0.0000000000000000e+00  0.0000000000000000e+00 0.0000000000000000e+00 0.0000000000000000e+00  0.0000000000000000e+00 0.0000000000000000e+00 0.0000000000000000e+00  0.0000000000000000e+00 0.0000000000000000e+00 0.0000000000000000e+00  0.0000000000000000e+00 0.0000000000000000e+00 0.0000000000000000e+00  0.0000000000000000e+00 0.0000000000000000e+00 0.0000000000000000e+00  0.0000000000000000e+00 0.0000000000000000e+00 0.0000000000000000e+00  0.0000000000000000e+00 0.0000000000000000e+00 0.0000000000000000e+00  0.0000000000000000e+00 0.0000000000000000e+00 0.0000000000000000e+00  0.0000000000000000e+00 0.0000000000000000e+00 0.0000000000000000e+00  0.0000000000000000e+00 0.0000000000000000e+00 0.0000000000000000e+00  0.0000000000000000e+00 0.0000000000000000e+00 0.0000000000000000e+00  0.0000000000000000e+00 0.0000000000000000e+00 0.0000000000000000e+00  0.0000000000000000e+00 0.0000000000000000e+00 0.0000000000000000e+00  0.0000000000000000e+00 0.0000000000000000e+00 0.0000000000000000e+00  0.0000000000000000e+00 0.0000000000000000e+00 0.0000000000000000e+00  0.0000000000000000e+00 0.0000000000000000e+00 0.0000000000000000e+00  0.0000000000000000e+00 0.0000000000000000e+00 0.0000000000000000e+00  0.0000000000000000e+00 0.0000000000000000e+00 0.0000000000000000e+00  0.0000000000000000e+00 0.0000000000000000e+00 0.0000000000000000e+00  0.0000000000000000e+00 0.0000000000000000e+00 0.0000000000000000e+00  0.0000000000000000e+00 0.0000000000000000e+00 0.0000000000000000e+00  0.0000000000000000e+00 0.0000000000000000e+00 0.0000000000000000e+00  0.0000000000000000e+00 0.0000000000000000e+00 0.0000000000000000e+00  0.0000000000000000e+00 0.0000000000000000e+00 0.0000000000000000e+00  0.0000000000000000e+00 0.0000000000000000e+00 0.0000000000000000e+00  0.0000000000000000e+00 0.0000000000000000e+00 0.0000000000000000e+00  0.0000000000000000e+00 0.0000000000000000e+00 0.0000000000000000e+00  0.0000000000000000e+00 0.0000000000000000e+00 0.0000000000000000e+00  0.0000000000000000e+00 0.0000000000000000e+00 0.0000000000000000e+00  0.0000000000000000e+00 0.0000000000000000e+00 0.0000000000000000e+00  0.0000000000000000e+00 0.0000000000000000e+00 0.0000000000000000e+00  0.0000000000000000e+00 0.0000000000000000e+00 0.0000000000000000e+00  0.0000000000000000e+00 0.0000000000000000e+00 0.0000000000000000e+00  0.0000000000000000e+00 0.0000000000000000e+00 0.0000000000000000e+00  0.0000000000000000e+00 0.0000000000000000e+00 0.0000000000000000e+00  0.0000000000000000e+00 0.0000000000000000e+00 0.0000000000000000e+00  0.0000000000000000e+00 0.0000000000000000e+00 0.0000000000000000e+00  0.0000000000000000e+00 0.0000000000000000e+00 0.0000000000000000e+00  0.0000000000000000e+00 0.0000000000000000e+00 0.0000000000000000e+00  0.0000000000000000e+00 0.0000000000000000e+00 0.0000000000000000e+00  0.0000000000000000e+00 0.0000000000000000e+00 0.0000000000000000e+00  0.0000000000000000e+00 0.0000000000000000e+00 0.0000000000000000e+00  0.0000000000000000e+00 0.0000000000000000e+00 0.0000000000000000e+00  0.0000000000000000e+00 0.0000000000000000e+00 0.0000000000000000e+00  0.0000000000000000e+00 0.0000000000000000e+00 0.0000000000000000e+00  0.0000000000000000e+00 0.0000000000000000e+00 0.0000000000000000e+00  0.0000000000000000e+00 0.0000000000000000e+00 0.0000000000000000e+00  0.0000000000000000e+00 0.0000000000000000e+00 0.0000000000000000e+00  0.0000000000000000e+00 0.0000000000000000e+00 0.0000000000000000e+00  0.0000000000000000e+00 0.0000000000000000e+00 0.0000000000000000e+00  0.0000000000000000e+00 0.0000000000000000e+00 0.0000000000000000e+00  0.0000000000000000e+00 0.0000000000000000e+00 0.0000000000000000e+00  0.0000000000000000e+00 0.0000000000000000e+00 0.0000000000000000e+00  0.0000000000000000e+00 0.0000000000000000e+00 0.0000000000000000e+00  0.0000000000000000e+00 0.0000000000000000e+00 0.0000000000000000e+00  -9.2674826822636948e-08 -5.9076300922171679e-07 0.0000000000000000e+00  -1.7129493515786733e-07 -6.3280225677281564e-07 0.0000000000000000e+00  -2.2069495358019776e-07 -6.4170423714874359e-07 0.0000000000000000e+00  -2.5598010380180848e-07 -6.3139909640707462e-07 0.0000000000000000e+00  -2.8706121689176020e-07 -6.2227294263497947e-07 0.0000000000000000e+00  -3.2225831949176628e-07 -6.1972818557784740e-07 0.0000000000000000e+00  -3.6038689140637031e-07 -6.1814530465664437e-07 0.0000000000000000e+00  -4.0348979919679496e-07 -6.1928009673184753e-07 0.0000000000000000e+00  -4.4871184057782042e-07 -6.2287681914091058e-07 0.0000000000000000e+00  -4.9938848646688635e-07 -6.2828353404883925e-07 0.0000000000000000e+00  -5.5293253415799949e-07 -6.3855670527844989e-07 0.0000000000000000e+00  -6.1185245776396478e-07 -6.5016080266259157e-07 0.0000000000000000e+00  -6.7460669693437910e-07 -6.6595199874397773e-07 0.0000000000000000e+00  -7.4169041730067160e-07 -6.8540463809562285e-07 0.0000000000000000e+00  -8.1437442204208902e-07 -7.0810890918175428e-07 0.0000000000000000e+00  -8.8934249633554246e-07 -7.3563677031096917e-07 0.0000000000000000e+00  -9.7077893229983622e-07 -7.6467261148511845e-07 0.0000000000000000e+00  -1.0555449837196101e-06 -8.0066484660709242e-07 0.0000000000000000e+00  -1.1463574923743298e-06 -8.3744843883858218e-07 0.0000000000000000e+00  -1.2403797892553784e-06 -8.8107550123452340e-07 0.0000000000000000e+00  -1.3403244877752055e-06 -9.2579285647796229e-07 0.0000000000000000e+00  -1.4448889719487888e-06 -9.7601853560628909e-07 0.0000000000000000e+00  -1.5537472866981581e-06 -1.0298257598800217e-06 0.0000000000000000e+00  -1.6685506168215328e-06 -1.0867971616474475e-06 0.0000000000000000e+00  -1.7860279149255683e-06 -1.1488635927768338e-06 0.0000000000000000e+00  -1.9097963196956201e-06 -1.2120046549884103e-06 0.0000000000000000e+00  -2.0385381235228844e-06 -1.2824576284295171e-06 0.0000000000000000e+00  -2.1721124130419137e-06 -1.3529217804831919e-06 0.0000000000000000e+00  -2.3107073784119304e-06 -1.4298042915211699e-06 0.0000000000000000e+00  -2.4542105502831234e-06 -1.5075607950885801e-06 0.0000000000000000e+00  -2.6024429760270558e-06 -1.5909742042754163e-06 0.0000000000000000e+00  -2.7561941252448808e-06 -1.6750586588028238e-06 0.0000000000000000e+00  -2.9141150123559254e-06 -1.7650601831320757e-06 0.0000000000000000e+00  -3.0777749808315690e-06 -1.8543829877546905e-06 0.0000000000000000e+00  -3.2467542107458897e-06 -1.9500855601160756e-06 0.0000000000000000e+00  -3.4206737792232728e-06 -2.0453802585152697e-06 0.0000000000000000e+00  -3.5994463116205098e-06 -2.1459484020667383e-06 0.0000000000000000e+00  -3.7834631787344876e-06 -2.2459900431041369e-06 0.0000000000000000e+00  -3.9727033379789082e-06 -2.3506359074771827e-06 0.0000000000000000e+00  -4.1676084171743347e-06 -2.4546063628998693e-06 0.0000000000000000e+00  -4.3679808539669053e-06 -2.5618605421841418e-06 0.0000000000000000e+00  -4.5728568456493828e-06 -2.6692100563401700e-06 0.0000000000000000e+00  -4.7842186913948088e-06 -2.7785814445241956e-06 0.0000000000000000e+00  -4.9985287775076592e-06 -2.8882991328336754e-06 0.0000000000000000e+00  -5.2187790147410482e-06 -2.9975307574863364e-06 0.0000000000000000e+00  -5.4409391848714636e-06 -3.1117730593768600e-06 0.0000000000000000e+00  -5.7620517887726333e-06 -3.0581104501391785e-06 0.0000000000000000e+00  -5.9210478466839578e-06 -2.6849517078652454e-06 0.0000000000000000e+00  -5.7602500819832598e-06 -2.3920677094666355e-06 0.0000000000000000e+00  -5.5358337337501746e-06 -2.2673895969541716e-06 0.0000000000000000e+00  -5.3130661890177996e-06 -2.1406980200150515e-06 0.0000000000000000e+00  -5.0955383211342837e-06 -2.0162878447988944e-06 0.0000000000000000e+00  -4.8811814766564261e-06 -1.8929160709943281e-06 0.0000000000000000e+00  -4.6731423343744519e-06 -1.7710463176187091e-06 0.0000000000000000e+00  -4.4684042406541970e-06 -1.6507897120553482e-06 0.0000000000000000e+00  -4.2695306702849428e-06 -1.5312652426692744e-06 0.0000000000000000e+00  -4.0745440701401684e-06 -1.4154758250168785e-06 0.0000000000000000e+00  -3.8850186443759890e-06 -1.2993893990262406e-06 0.0000000000000000e+00  -3.6994859321436857e-06 -1.1877813146607010e-06 0.0000000000000000e+00  -3.5195260279612892e-06 -1.0765212896004481e-06 0.0000000000000000e+00  -3.3433057707790956e-06 -9.7018525396017984e-07 0.0000000000000000e+00  -3.1726641918508894e-06 -8.6436295819479474e-07 0.0000000000000000e+00  -3.0056861071193215e-06 -7.6379040299734298e-07 0.0000000000000000e+00  -2.8443895638867073e-06 -6.6397536514274497e-07 0.0000000000000000e+00  -2.6867702213387125e-06 -5.6946295429724322e-07 0.0000000000000000e+00  -2.5350937482347800e-06 -4.7604707175044837e-07 0.0000000000000000e+00  -2.3869443887111075e-06 -3.8848092114210529e-07 0.0000000000000000e+00  -2.2446077465473963e-06 -3.0211866782250509e-07 0.0000000000000000e+00  -2.1056957819190713e-06 -2.2161538224507461e-07 0.0000000000000000e+00  -1.9727051958826393e-06 -1.4258413023490105e-07 0.0000000000000000e+00  -1.8439177720829405e-06 -6.8480629118100170e-08 0.0000000000000000e+00  -1.7197475276383689e-06 2.2598620061688619e-09 0.0000000000000000e+00  -1.6016329823316552e-06 6.8895605882343891e-08 0.0000000000000000e+00  -1.4856676579022340e-06 1.3146219504870009e-07 0.0000000000000000e+00  -1.3759878124292148e-06 1.9163609948748128e-07 0.0000000000000000e+00  -1.2703720565841662e-06 2.4495392189477391e-07 0.0000000000000000e+00  -1.1700925074496314e-06 2.9782099045881222e-07 0.0000000000000000e+00  -1.0743097580897229e-06 3.4327048374460012e-07 0.0000000000000000e+00  -9.8361464001847522e-07 3.8819874020163363e-07 0.0000000000000000e+00  -8.9759214119967803e-07 4.2642379620290842e-07 0.0000000000000000e+00  -8.1575461470078222e-07 4.6286382840135541e-07 0.0000000000000000e+00  -7.3981903883322315e-07 4.9420546830034804e-07 0.0000000000000000e+00  -6.6649801053271742e-07 5.2287739738054963e-07 0.0000000000000000e+00  -5.9923134632084720e-07 5.4824970316289967e-07 0.0000000000000000e+00  -5.3641815945215633e-07 5.6821544148872564e-07 0.0000000000000000e+00  -4.7857181990522349e-07 5.8722077982029292e-07 0.0000000000000000e+00  -4.2554170845754892e-07 6.0174861817917972e-07 0.0000000000000000e+00  -3.7642140856060701e-07 6.1427511489278133e-07 0.0000000000000000e+00  -3.3302911485024191e-07 6.2413198554310923e-07 0.0000000000000000e+00  -2.9216186623752872e-07 6.3144934518264832e-07 0.0000000000000000e+00  -2.5741853068580308e-07 6.4206626031643527e-07 0.0000000000000000e+00  -2.1856737171034700e-07 6.4961777069230213e-07 0.0000000000000000e+00  -1.6886696959529684e-07 6.3719717655199998e-07 0.0000000000000000e+00  -9.2973170281997547e-08 5.8938666388924148e-07 0.0000000000000000e+00  -2.4982916724338036e-07 -2.4138291578653985e-09 0.0000000000000000e+00  -5.4956178185214492e-06 -2.6957341557429591e-06 0.0000000000000000e+00  -5.0642567053735397e-06 -2.4727939229404349e-06 0.0000000000000000e+00  -4.4112377196527951e-06 -2.1087717058620955e-06 0.0000000000000000e+00  -2.4222333440440569e-07 5.1327562576738253e-09 0.0000000000000000e+00  -4.0267677817486662e-06 -1.8842845960819707e-06 0.0000000000000000e+00  -3.0563861130121134e-07 1.3306365200487865e-08 0.0000000000000000e+00  -3.6527555918472446e-06 -1.6678124531717077e-06 0.0000000000000000e+00  -4.4215356642444232e-07 -3.3936177857937465e-09 0.0000000000000000e+00  -5.4856337056448725e-07 -3.5165285710451981e-08 0.0000000000000000e+00  -3.2984612857628306e-06 -1.4608366406162641e-06 0.0000000000000000e+00  -9.0106342985997492e-07 -1.4814535548638577e-07 0.0000000000000000e+00  -2.6485916918873381e-06 -1.0804813331388071e-06 0.0000000000000000e+00  -6.6887200608345567e-07 -6.2463510680939652e-08 0.0000000000000000e+00  -1.0692782982623277e-06 -2.2812371851782191e-07 0.0000000000000000e+00  -2.3527967775968315e-06 -9.0923854144148168e-07 0.0000000000000000e+00  -2.9637619856208256e-06 -1.2646593937311033e-06 0.0000000000000000e+00  -1.2597154357426613e-06 -3.1735672824812736e-07 0.0000000000000000e+00  -2.0763278945546161e-06 -7.5183929689641230e-07 0.0000000000000000e+00  -1.4608826573900669e-06 -4.1076058213968955e-07 0.0000000000000000e+00  -1.8226093103154228e-06 -6.1798605168955614e-07 0.0000000000000000e+00  -1.6303015513484644e-06 -5.0666037629636963e-07 0.0000000000000000e+00  -7.7518439090265265e-07 -1.0822462185972409e-07 0.0000000000000000e+00  -4.7489339202978013e-06 -2.2899177112115019e-06 0.0000000000000000e+00  -3.6754036507687356e-07 -2.5294056687179469e-10 0.0000000000000000e+00  -5.3308312112279252e-06 -2.4543167219844428e-06 0.0000000000000000e+00  -2.2867676567320045e-07 2.4467867726363346e-07 0.0000000000000000e+00  -3.8793491626388226e-06 -1.6532467882268996e-06 0.0000000000000000e+00  -4.2647155114758394e-06 -1.8776106061005292e-06 0.0000000000000000e+00  -2.7251645896982347e-07 -2.1802965644754767e-07 0.0000000000000000e+00  -4.8740266022127147e-07 -1.9687254278664217e-07 0.0000000000000000e+00  -2.8396449606322384e-06 -1.0376436537800770e-06 0.0000000000000000e+00  -3.5134283082415466e-06 -1.4373911119115293e-06 0.0000000000000000e+00  -9.6666497304130714e-07 -3.5185040029525137e-07 0.0000000000000000e+00  -2.5316527876391467e-06 -8.5590373813946412e-07 0.0000000000000000e+00  -6.0198086393453087e-07 -2.2375303783919041e-07 0.0000000000000000e+00  -1.1450427461145861e-06 -4.2978542114788840e-07 0.0000000000000000e+00  -2.2429260725485401e-06 -6.8766805110063952e-07 0.0000000000000000e+00  -3.1669169859474023e-06 -1.2317760901008860e-06 0.0000000000000000e+00  -1.3361223244793303e-06 -5.5680447859734262e-07 0.0000000000000000e+00  -1.9732349541831844e-06 -5.3360623616417005e-07 0.0000000000000000e+00  -1.8975222675185754e-07 -1.4091315131024641e-07 0.0000000000000000e+00  -1.8530208076342389e-07 1.2790104600430167e-07 0.0000000000000000e+00  -5.6412856477432102e-06 -2.87303872