<?xml version="1.0"?>
<VTKFile type="UnstructuredGrid"  version="0.1"  >
<UnstructuredGrid>
<Piece  NumberOfPoints="1419" NumberOfCells="2698">
<Points>
<DataArray  type="Float64"  NumberOfComponents="3"  format="ascii">0 0 0  0 0.41 0  2.5 0 0  2.5 0.41 0  0.6 0.19 0  0.6 0.21 0  0.25 0.2 0  0.15 0.2 0  0.2489897948556636 0.21 0  0.2489897948556636 0.19 0  0.6 0.2 0  0 0.3807142857143437 0  0 0.3514285714286952 0  0 0.3221428571430699 0  0 0.29285714285744 0  0 0.2635714285718054 0  0 0.2342857142861561 0  0 0.2050000000005308 0  0 0.175714285714732 0  0 0.1464285714289574 0  0 0.1171428571431897 0  0 0.08785714285737878 0  0 0.05857142857161107 0  0 0.02928571428580012 0  0.03015443760436003 0 0  0.06140001986583606 0 0  0.09377624077125973 0 0  0.1273239957535082 0 0  0.1620856860351972 0 0  0.1981052433264291 0 0  0.235428184091502 0 0  0.2741016576309132 0 0  0.3141745521465447 0 0  0.3556974926295285 0 0  0.3987229542472677 0 0  0.4433053055141081 0 0  0.4895008759286886 0 0  0.5373680609405097 0 0  0.5869673343216626 0 0  0.6383613676634521 0 0  0.6916151138468254 0 0  0.7467958595648856 0 0  0.8039733463919316 0 0  0.8632198139502143 0 0  0.9246101326867038 0 0  0.9882218810934433 0 0  1.054135445558498 0 0  1.122434100542598 0 0  1.193204177141305 0 0  1.266535089879536 0 0  1.342519516046404 0 0  1.421253448503939 0 0  1.502836389106271 0 0  1.587371439758838 0 0  1.674965418777374 0 0  1.765729001825544 0 0  1.859776908880082 0 0  1.957227977487062 0 0  2.058205329869943 0 0  2.162836591189951 0 0  2.271253957290865 0 0  2.383594446803425 0 0  2.5 0.1024999999997612 0  2.5 0.2049999999994743 0  2.5 0.3074999999997183 0  2.383594446803656 0.41 0  2.271253957291315 0.41 0  2.162836591190598 0.41 0  2.058205329870775 0.41 0  1.957227977488067 0.41 0  1.859776908881246 0.41 0  1.765729001826854 0.41 0  1.674965418778818 0.41 0  1.58737143976041 0.41 0  1.502836389107956 0.41 0  1.421253448505726 0.41 0  1.342519516048286 0.41 0  1.266535089881505 0.41 0  1.193204177143353 0.41 0  1.122434100544716 0.41 0  1.05413544556068 0.41 0  0.9882218810956305 0.41 0  0.9246101326886647 0.41 0  0.8632198139519631 0.41 0  0.8039733463934788 0.41 0  0.7467958595662458 0.41 0  0.6916151138480078 0.41 0  0.6383613676644679 0.41 0  0.5869673343225223 0.41 0  0.5373680609412221 0.41 0  0.4895008759292634 0.41 0  0.4433053055145528 0.41 0  0.3987229542475914 0.41 0  0.3556974926297398 0.41 0  0.3141745521466497 0.41 0  0.2741016576310038 0.41 0  0.2354281840915826 0.41 0  0.1981052433265003 0.41 0  0.1620856860352591 0.41 0  0.1273239957535623 0.41 0  0.09377624077128965 0.41 0  0.06140001986584975 0.41 0  0.03015443760436654 0.41 0  0.2497468076502589 0.2050254481002335 0  0.2497468076502614 0.1949745518997913 0  0.2469965252529372 0.1829317073451959 0  0.2439893735792749 0.1762316384219906 0  0.2400332147834255 0.1700443375285386 0  0.2352133972704371 0.1645032867342007 0  0.2296339016332438 0.1597280261969788 0  0.2234150974217223 0.1558215752574715 0  0.2166911463437691 0.1528682099456123 0  0.2096071079204251 0.1509316448471593 0  0.2023158100364996 0.1500536585536553 0  0.194974551899914 0.1502531923497262 0  0.1877417105387872 0.1515259415822739 0  0.1807733240461124 0.153844448527136 0  0.1742197252835808 0.15715869474974 0  0.1682222986673531 0.1613971801805478 0  0.162910430003803 0.1664684656256651 0  0.1583987151779087 0.1722631454351573 0  0.1547844879126891 0.178656207771761 0  0.1521457199348551 0.1855097315605723 0  0.1505393388476355 0.1926758619366523 0  0.1505393388476328 0.2073241380633295 0  0.1521457199348437 0.2144902684393899 0  0.1547844879126531 0.221343792228163 0  0.1583987151778488 0.2277368545647528 0  0.1629104300036858 0.2335315343742052 0  0.1682222986671726 0.2386028198193036 0  0.1742197252833576 0.2428413052501257 0  0.1807733240458683 0.2461555514727623 0  0.1877417105384929 0.2484740584176516 0  0.1949745518995776 0.2497468076502398 0  0.202315810036185 0.2499463414463592 0  0.2096071079201568 0.2490683551528932 0  0.2166911463435495 0.2471317900544655 0  0.2234150974215506 0.2441784247426195 0  0.2296339016331197 0.2402719738031125 0  0.2352133972703547 0.2354967132658811 0  0.2400332147833751 0.2299556624715287 0  0.2439893735792577 0.2237683615780412 0  0.246996525252926 0.2170682926548348 0  0.25645809709277 0.21 0  0.2639263993298655 0.21 0  0.271394701566961 0.21 0  0.2788630038040554 0.21 0  0.2863313060411479 0.21 0  0.2937996082782405 0.21 0  0.301267910515333 0.21 0  0.3087362127524279 0.21 0  0.3162045149895234 0.21 0  0.3236728172265972 0.21 0  0.3311411194636928 0.21 0  0.3386094217007701 0.21 0  0.3460777239378666 0.21 0  0.3535460261749672 0.21 0  0.3610143284120516 0.21 0  0.3684826306491596 0.21 0  0.3759509328862226 0.21 0  0.383419235123329 0.21 0  0.3908875373604028 0.21 0  0.3983558395975142 0.21 0  0.4058241418345938 0.21 0  0.4132924440716992 0.21 0  0.4207607463087888 0.21 0  0.4282290485459029 0.21 0  0.4356973507830418 0.21 0  0.4431656530201649 0.21 0  0.4506339552573136 0.21 0  0.4581022574944306 0.21 0  0.4655705597315852 0.21 0  0.4730388619686996 0.21 0  0.480507164205851 0.21 0  0.4879754664429498 0.21 0  0.4954437686800938 0.21 0  0.502912070917267 0.21 0  0.5103803731544119 0.21 0  0.5178486753915261 0.21 0  0.5253169776286404 0.21 0  0.5327852798657868 0.21 0  0.5402535821029386 0.21 0  0.54772188434007 0.21 0  0.5551901865771842 0.21 0  0.5626584888143201 0.21 0  0.5701267910514778 0.21 0  0.5775950932886138 0.21 0  0.5850633955257281 0.21 0  0.5925316977628483 0.21 0  0.6 0.2050000000000054 0  0.6 0.1950000000000217 0  0.5925316977628897 0.19 0  0.5850633955257988 0.19 0  0.5775950932887378 0.19 0  0.5701267910515998 0.19 0  0.5626584888145268 0.19 0  0.5551901865773963 0.19 0  0.547721884340339 0.19 0  0.5402535821032429 0.19 0  0.5327852798661811 0.19 0  0.5253169776290537 0.19 0  0.5178486753919799 0.19 0  0.5103803731549078 0.19 0  0.502912070917822 0.19 0  0.4954437686807294 0.19 0  0.4879754664436223 0.19 0  0.4805071642065402 0.19 0  0.4730388619694271 0.19 0  0.4655705597323621 0.19 0  0.4581022574952563 0.19 0  0.4506339552581777 0.19 0  0.4431656530210671 0.19 0  0.4356973507839815 0.19 0  0.4282290485468779 0.19 0  0.4207607463097617 0.19 0  0.4132924440726327 0.19 0  0.4058241418354857 0.19 0  0.3983558395983636 0.19 0  0.3908875373612097 0.19 0  0.3834192351240934 0.19 0  0.3759509328869369 0.19 0  0.3684826306498175 0.19 0  0.361014328412667 0.19 0  0.3535460261755617 0.19 0  0.3460777239384295 0.19 0  0.3386094217012945 0.19 0  0.3311411194641595 0.19 0  0.3236728172270245 0.19 0  0.3162045149898895 0.19 0  0.3087362127527544 0.19 0  0.3012679105156187 0.19 0  0.2937996082784807 0.19 0  0.2863313060413428 0.19 0  0.2788630038042048 0.19 0  0.2713947015670686 0.19 0  0.2639263993299336 0.19 0  0.2564580970927985 0.19 0  0.2607803159922026 0.2000727136295815 0  0.5887803774232762 0.2001272386983733 0  0.5745072403740523 0.2002044435018727 0  0.5511891430099709 0.2001122610077113 0  0.2751288526855082 0.20000000000002 0  0.5365194309847112 0.1999999999999436 0  0.2894621222999649 0.1998691686390484 0  0.5215828265105155 0.1999999999999228 0  0.3127789816668748 0.1998657885438805 0  0.3274069683451451 0.2000000000000796 0  0.5066462220363641 0.199999999999908 0  0.3650630746574081 0.199866017807523 0  0.476773013087985 0.1999999999998713 0  0.3417402379596385 0.1998691686391011 0  0.3796850840047755 0.200000000000134 0  0.4618364086138087 0.1999999999998546 0  0.4917096175621762 0.1999999999998808 0  0.3946216884789568 0.2000000000001512 0  0.446899804139621 0.1999999999998389 0  0.4089549580935208 0.1998691686391595 0  0.4322718174608562 0.200127451265745 0  0.4201487168029707 0.1999966199048527 0  0.3528922713220932 0.2000185703532356 0  0.5633122436674589 0.1999814296467508 0  0.3006558810093873 0.1999966199048318 0  0.5815926498168407 0.1966545283159175 0  0.2677053789419034 0.1964246479135325 0  0.5290511287476175 0.1970915826863981 0  0.5439877332217911 0.197091582686394 0  0.2825131256993216 0.2035478995978015 0  0.3199386661080599 0.202908417313604 0  0.4842413153250809 0.1970915826863873 0  0.5141145242734466 0.1970915826863843 0  0.3722167817676917 0.2029084173136195 0  0.4693047108508938 0.1970915826863783 0  0.3348752705822316 0.202908417313609 0  0.3871533862418661 0.2029084173136212 0  0.4543681063767183 0.1970915826863795 0  0.4991779197992749 0.1970915826863902 0  0.4020059614928624 0.203547899597858 0  0.4394315019025246 0.1970915826863714 0  0.2550657455369551 0.2034088125358657 0  0.2548908499171161 0.1966940311614271 0  0.5946539510196798 0.2024302972968126 0  0.267698176732111 0.2039977513680092 0  0.4261685417851465 0.196409292431739 0  0.3590076176283495 0.196411355804271 0  0.5571672426447437 0.2036011176410121 0  0.3066757059912147 0.1964092924317024 0  0.594380730180568 0.1966558399668133 0  0.4842413153245942 0.2040749161535287 0  0.4693047108503577 0.2040749161535231 0  0.3871533862424271 0.1959250838464788 0  0.372246743208829 0.1959123236376545 0  0.5141145242731028 0.2040749161535395 0  0.4543681063761134 0.2040749161535186 0  0.4019979587101454 0.1959834479682427 0  0.4394608940728603 0.2040870543693135 0  0.5439623148931173 0.2040856076781014 0  0.5290511287473298 0.2040749161535501 0  0.4991779197988497 0.2040749161535382 0  0.3347912413592433 0.1959225448935183 0  0.3199680582793816 0.1959123018030061 0  0.2825051229162361 0.1959834479681729 0  0.3590471196690275 0.2036304442587945 0  0.5571594006495384 0.1963685282145804 0  0.3067669986803285 0.203627750582736 0  0.4262598344738712 0.2036568242185335 0  0.5814408164431408 0.2041285596160068 0  0.5688286748170428 0.1961819304477386 0  0.4145905603063645 0.2038180695522843 0  0.3473758401724931 0.2038180695522752 0  0.2950977245128307 0.2038180695522663 0  0.5688286748170693 0.203818069552238 0  0.2950977245127906 0.1961819304477774 0  0.3473758401723931 0.1961819304478349 0  0.4145905603061963 0.1961819304479011 0  0.2601812407614425 0.2056861609747042
[...]
<PointData  Vectors="f_40-1"> 
<DataArray  type="Float64"  Name="f_40-1"  NumberOfComponents="3" format="ascii">0.0000000000000000e+00 0.0000000000000000e+00 0.0000000000000000e+00  0.0000000000000000e+00 0.0000000000000000e+00 0.0000000000000000e+00  0.0000000000000000e+00 0.0000000000000000e+00 0.0000000000000000e+00  0.0000000000000000e+00 0.0000000000000000e+00 0.0000000000000000e+00  -6.2270747803286662e-06 -2.8765456767303927e-06 0.0000000000000000e+00  -5.8674325806762346e-06 -3.6654430885453072e-06 0.0000000000000000e+00  0.0000000000000000e+00 0.0000000000000000e+00 0.0000000000000000e+00  0.0000000000000000e+00 0.0000000000000000e+00 0.0000000000000000e+00  0.0000000000000000e+00 0.0000000000000000e+00 0.0000000000000000e+00  0.0000000000000000e+00 0.0000000000000000e+00 0.0000000000000000e+00  -6.0780141177911385e-06 -3.2709908697432188e-06 0.0000000000000000e+00  0.0000000000000000e+00 0.0000000000000000e+00 0.0000000000000000e+00  0.0000000000000000e+00 0.0000000000000000e+00 0.0000000000000000e+00  0.0000000000000000e+00 0.0000000000000000e+00 0.0000000000000000e+00  0.0000000000000000e+00 0.0000000000000000e+00 0.0000000000000000e+00  0.0000000000000000e+00 0.0000000000000000e+00 0.0000000000000000e+00  0.0000000000000000e+00 0.0000000000000000e+00 0.0000000000000000e+00  0.0000000000000000e+00 0.0000000000000000e+00 0.0000000000000000e+00  0.0000000000000000e+00 0.0000000000000000e+00 0.0000000000000000e+00  0.0000000000000000e+00 0.0000000000000000e+00 0.0000000000000000e+00  0.0000000000000000e+00 0.0000000000000000e+00 0.0000000000000000e+00  0.0000000000000000e+00 0.0000000000000000e+00 0.0000000000000000e+00  0.0000000000000000e+00 0.0000000000000000e+00 0.0000000000000000e+00  0.0000000000000000e+00 0.0000000000000000e+00 0.0000000000000000e+00  0.0000000000000000e+00 0.0000000000000000e+00 0.0000000000000000e+00  0.0000000000000000e+00 0.0000000000000000e+00 0.0000000000000000e+00  0.0000000000000000e+00 0.0000000000000000e+00 0.0000000000000000e+00  0.0000000000000000e+00 0.0000000000000000e+00 0.0000000000000000e+00  0.0000000000000000e+00 0.0000000000000000e+00 0.0000000000000000e+00  0.0000000000000000e+00 0.0000000000000000e+00 0.0000000000000000e+00  0.0000000000000000e+00 0.0000000000000000e+00 0.0000000000000000e+00  0.0000000000000000e+00 0.0000000000000000e+00 0.0000000000000000e+00  0.0000000000000000e+00 0.0000000000000000e+00 0.0000000000000000e+00  0.0000000000000000e+00 0.0000000000000000e+00 0.0000000000000000e+00  0.0000000000000000e+00 0.0000000000000000e+00 0.0000000000000000e+00  0.0000000000000000e+00 0.0000000000000000e+00 0.0000000000000000e+00  0.0000000000000000e+00 0.0000000000000000e+00 0.0000000000000000e+00  0.0000000000000000e+00 0.0000000000000000e+00 0.0000000000000000e+00  0.0000000000000000e+00 0.0000000000000000e+00 0.0000000000000000e+00  0.0000000000000000e+00 0.0000000000000000e+00 0.0000000000000000e+00  0.0000000000000000e+00 0.0000000000000000e+00 0.0000000000000000e+00  0.0000000000000000e+00 0.0000000000000000e+00 0.0000000000000000e+00  0.0000000000000000e+00 0.0000000000000000e+00 0.0000000000000000e+00  0.0000000000000000e+00 0.0000000000000000e+00 0.0000000000000000e+00  0.0000000000000000e+00 0.0000000000000000e+00 0.0000000000000000e+00  0.0000000000000000e+00 0.0000000000000000e+00 0.0000000000000000e+00  0.0000000000000000e+00 0.0000000000000000e+00 0.0000000000000000e+00  0.0000000000000000e+00 0.0000000000000000e+00 0.0000000000000000e+00  0.0000000000000000e+00 0.0000000000000000e+00 0.0000000000000000e+00  0.0000000000000000e+00 0.0000000000000000e+00 0.0000000000000000e+00  0.0000000000000000e+00 0.0000000000000000e+00 0.0000000000000000e+00  0.0000000000000000e+00 0.0000000000000000e+00 0.0000000000000000e+00  0.0000000000000000e+00 0.0000000000000000e+00 0.0000000000000000e+00  0.0000000000000000e+00 0.0000000000000000e+00 0.0000000000000000e+00  0.0000000000000000e+00 0.0000000000000000e+00 0.0000000000000000e+00  0.0000000000000000e+00 0.0000000000000000e+00 0.0000000000000000e+00  0.0000000000000000e+00 0.0000000000000000e+00 0.0000000000000000e+00  0.0000000000000000e+00 0.0000000000000000e+00 0.0000000000000000e+00  0.0000000000000000e+00 0.0000000000000000e+00 0.0000000000000000e+00  0.0000000000000000e+00 0.0000000000000000e+00 0.0000000000000000e+00  0.0000000000000000e+00 0.0000000000000000e+00 0.0000000000000000e+00  0.0000000000000000e+00 0.0000000000000000e+00 0.0000000000000000e+00  0.0000000000000000e+00 0.0000000000000000e+00 0.0000000000000000e+00  0.0000000000000000e+00 0.0000000000000000e+00 0.0000000000000000e+00  0.0000000000000000e+00 0.0000000000000000e+00 0.0000000000000000e+00  0.0000000000000000e+00 0.0000000000000000e+00 0.0000000000000000e+00  0.0000000000000000e+00 0.0000000000000000e+00 0.0000000000000000e+00  0.0000000000000000e+00 0.0000000000000000e+00 0.0000000000000000e+00  0.0000000000000000e+00 0.0000000000000000e+00 0.0000000000000000e+00  0.0000000000000000e+00 0.0000000000000000e+00 0.0000000000000000e+00  0.0000000000000000e+00 0.0000000000000000e+00 0.0000000000000000e+00  0.0000000000000000e+00 0.0000000000000000e+00 0.0000000000000000e+00  0.0000000000000000e+00 0.0000000000000000e+00 0.0000000000000000e+00  0.0000000000000000e+00 0.0000000000000000e+00 0.0000000000000000e+00  0.0000000000000000e+00 0.0000000000000000e+00 0.0000000000000000e+00  0.0000000000000000e+00 0.0000000000000000e+00 0.0000000000000000e+00  0.0000000000000000e+00 0.0000000000000000e+00 0.0000000000000000e+00  0.0000000000000000e+00 0.0000000000000000e+00 0.0000000000000000e+00  0.0000000000000000e+00 0.0000000000000000e+00 0.0000000000000000e+00  0.0000000000000000e+00 0.0000000000000000e+00 0.0000000000000000e+00  0.0000000000000000e+00 0.0000000000000000e+00 0.0000000000000000e+00  0.0000000000000000e+00 0.0000000000000000e+00 0.0000000000000000e+00  0.0000000000000000e+00 0.0000000000000000e+00 0.0000000000000000e+00  0.0000000000000000e+00 0.0000000000000000e+00 0.0000000000000000e+00  0.0000000000000000e+00 0.0000000000000000e+00 0.0000000000000000e+00  0.0000000000000000e+00 0.0000000000000000e+00 0.0000000000000000e+00  0.0000000000000000e+00 0.0000000000000000e+00 0.0000000000000000e+00  0.0000000000000000e+00 0.0000000000000000e+00 0.0000000000000000e+00  0.0000000000000000e+00 0.0000000000000000e+00 0.0000000000000000e+00  0.0000000000000000e+00 0.0000000000000000e+00 0.0000000000000000e+00  0.0000000000000000e+00 0.0000000000000000e+00 0.0000000000000000e+00  0.0000000000000000e+00 0.0000000000000000e+00 0.0000000000000000e+00  0.0000000000000000e+00 0.0000000000000000e+00 0.0000000000000000e+00  0.0000000000000000e+00 0.0000000000000000e+00 0.0000000000000000e+00  0.0000000000000000e+00 0.0000000000000000e+00 0.0000000000000000e+00  0.0000000000000000e+00 0.0000000000000000e+00 0.0000000000000000e+00  0.0000000000000000e+00 0.0000000000000000e+00 0.0000000000000000e+00  0.0000000000000000e+00 0.0000000000000000e+00 0.0000000000000000e+00  0.0000000000000000e+00 0.0000000000000000e+00 0.0000000000000000e+00  0.0000000000000000e+00 0.0000000000000000e+00 0.0000000000000000e+00  0.0000000000000000e+00 0.0000000000000000e+00 0.0000000000000000e+00  0.0000000000000000e+00 0.0000000000000000e+00 0.0000000000000000e+00  0.0000000000000000e+00 0.0000000000000000e+00 0.0000000000000000e+00  0.0000000000000000e+00 0.0000000000000000e+00 0.0000000000000000e+00  0.0000000000000000e+00 0.0000000000000000e+00 0.0000000000000000e+00  0.0000000000000000e+00 0.0000000000000000e+00 0.0000000000000000e+00  0.0000000000000000e+00 0.0000000000000000e+00 0.0000000000000000e+00  0.0000000000000000e+00 0.0000000000000000e+00 0.0000000000000000e+00  0.0000000000000000e+00 0.0000000000000000e+00 0.0000000000000000e+00  0.0000000000000000e+00 0.0000000000000000e+00 0.0000000000000000e+00  0.0000000000000000e+00 0.0000000000000000e+00 0.0000000000000000e+00  0.0000000000000000e+00 0.0000000000000000e+00 0.0000000000000000e+00  0.0000000000000000e+00 0.0000000000000000e+00 0.0000000000000000e+00  0.0000000000000000e+00 0.0000000000000000e+00 0.0000000000000000e+00  0.0000000000000000e+00 0.0000000000000000e+00 0.0000000000000000e+00  0.0000000000000000e+00 0.0000000000000000e+00 0.0000000000000000e+00  0.0000000000000000e+00 0.0000000000000000e+00 0.0000000000000000e+00  0.0000000000000000e+00 0.0000000000000000e+00 0.0000000000000000e+00  0.0000000000000000e+00 0.0000000000000000e+00 0.0000000000000000e+00  0.0000000000000000e+00 0.0000000000000000e+00 0.0000000000000000e+00  0.0000000000000000e+00 0.0000000000000000e+00 0.0000000000000000e+00  0.0000000000000000e+00 0.0000000000000000e+00 0.0000000000000000e+00  0.0000000000000000e+00 0.0000000000000000e+00 0.0000000000000000e+00  0.0000000000000000e+00 0.0000000000000000e+00 0.0000000000000000e+00  0.0000000000000000e+00 0.0000000000000000e+00 0.0000000000000000e+00  0.0000000000000000e+00 0.0000000000000000e+00 0.0000000000000000e+00  0.0000000000000000e+00 0.0000000000000000e+00 0.0000000000000000e+00  0.0000000000000000e+00 0.0000000000000000e+00 0.0000000000000000e+00  0.0000000000000000e+00 0.0000000000000000e+00 0.0000000000000000e+00  0.0000000000000000e+00 0.0000000000000000e+00 0.0000000000000000e+00  0.0000000000000000e+00 0.0000000000000000e+00 0.0000000000000000e+00  0.0000000000000000e+00 0.0000000000000000e+00 0.0000000000000000e+00  0.0000000000000000e+00 0.0000000000000000e+00 0.0000000000000000e+00  0.0000000000000000e+00 0.0000000000000000e+00 0.0000000000000000e+00  0.0000000000000000e+00 0.0000000000000000e+00 0.0000000000000000e+00  0.0000000000000000e+00 0.0000000000000000e+00 0.0000000000000000e+00  0.0000000000000000e+00 0.0000000000000000e+00 0.0000000000000000e+00  0.0000000000000000e+00 0.0000000000000000e+00 0.0000000000000000e+00  0.0000000000000000e+00 0.0000000000000000e+00 0.0000000000000000e+00  0.0000000000000000e+00 0.0000000000000000e+00 0.0000000000000000e+00  0.0000000000000000e+00 0.0000000000000000e+00 0.0000000000000000e+00  0.0000000000000000e+00 0.0000000000000000e+00 0.0000000000000000e+00  0.0000000000000000e+00 0.0000000000000000e+00 0.0000000000000000e+00  -9.4918912231724606e-08 -6.2287525814743755e-07 0.0000000000000000e+00  -1.7483893730435260e-07 -6.6766377402161741e-07 0.0000000000000000e+00  -2.2398495453614117e-07 -6.7782660543964721e-07 0.0000000000000000e+00  -2.5823536986721848e-07 -6.6812298660241159e-07 0.0000000000000000e+00  -2.8817263847382685e-07 -6.5994107919616633e-07 0.0000000000000000e+00  -3.2242398377594168e-07 -6.5905804394154723e-07 0.0000000000000000e+00  -3.5988741292312796e-07 -6.5944341135784370e-07 0.0000000000000000e+00  -4.0263921067593595e-07 -6.6304015783264633e-07 0.0000000000000000e+00  -4.4759299521414381e-07 -6.6950660723116666e-07 0.0000000000000000e+00  -4.9845268370501724e-07 -6.7814215823607957e-07 0.0000000000000000e+00  -5.5229092450495212e-07 -6.9222204101629176e-07 0.0000000000000000e+00  -6.1194565004761386e-07 -7.0793203267577260e-07 0.0000000000000000e+00  -6.7562179893893657e-07 -7.2833583182966458e-07 0.0000000000000000e+00  -7.4397238655169721e-07 -7.5280601403465108e-07 0.0000000000000000e+00  -8.1826573060732755e-07 -7.8095379772795930e-07 0.0000000000000000e+00  -8.9495154346076728e-07 -8.1439926251967902e-07 0.0000000000000000e+00  -9.7858197852564143e-07 -8.4961298157880870e-07 0.0000000000000000e+00  -1.0656955269773313e-06 -8.9240343118864268e-07 0.0000000000000000e+00  -1.1592988637640998e-06 -9.3617769179406183e-07 0.0000000000000000e+00  -1.2562602041688912e-06 -9.8738837127958199e-07 0.0000000000000000e+00  -1.3595589752733460e-06 -1.0398963112900934e-06 0.0000000000000000e+00  -1.4677267476751622e-06 -1.0984248488914332e-06 0.0000000000000000e+00  -1.5804981928132689e-06 -1.1608721875310132e-06 0.0000000000000000e+00  -1.6995566328934747e-06 -1.2268373096855734e-06 0.0000000000000000e+00  -1.8214327620813629e-06 -1.2983292506310901e-06 0.0000000000000000e+00  -1.9500085088815071e-06 -1.3710962324752666e-06 0.0000000000000000e+00  -2.0838568756974076e-06 -1.4517512130607814e-06 0.0000000000000000e+00  -2.2228454100017283e-06 -1.5325237167458479e-06 0.0000000000000000e+00  -2.3671528058736215e-06 -1.6202223090774380e-06 0.0000000000000000e+00  -2.5166825314893922e-06 -1.7089323270516012e-06 0.0000000000000000e+00  -2.6712234215025244e-06 -1.8037446878160432e-06 0.0000000000000000e+00  -2.8316278242374715e-06 -1.8993257237981342e-06 0.0000000000000000e+00  -2.9964599391282121e-06 -2.0012622589579696e-06 0.0000000000000000e+00  -3.1673832027873339e-06 -2.1025298478006805e-06 0.0000000000000000e+00  -3.3439385120649651e-06 -2.2106136977680786e-06 0.0000000000000000e+00  -3.5257428918409600e-06 -2.3182781299445058e-06 0.0000000000000000e+00  -3.7126915008252736e-06 -2.4315695230901682e-06 0.0000000000000000e+00  -3.9052060197230631e-06 -2.5443116930601642e-06 0.0000000000000000e+00  -4.1032519923057896e-06 -2.6619662013969944e-06 0.0000000000000000e+00  -4.3073003183113582e-06 -2.7788949097308821e-06 0.0000000000000000e+00  -4.5171439319222729e-06 -2.8993122850705984e-06 0.0000000000000000e+00  -4.7317605484711178e-06 -3.0198254878027531e-06 0.0000000000000000e+00  -4.9532216798262042e-06 -3.1424810241940503e-06 0.0000000000000000e+00  -5.1777985223222809e-06 -3.2654900402392760e-06 0.0000000000000000e+00  -5.4086640056162598e-06 -3.3879694040296986e-06 0.0000000000000000e+00  -5.6414478179800688e-06 -3.5158515084009129e-06 0.0000000000000000e+00  -5.9839647220938127e-06 -3.4674440862853596e-06 0.0000000000000000e+00  -6.1614588451681918e-06 -3.0746311882710995e-06 0.0000000000000000e+00  -5.9978753573899114e-06 -2.7592441021423209e-06 0.0000000000000000e+00  -5.7626835701302908e-06 -2.6204426389394301e-06 0.0000000000000000e+00  -5.5291412709027780e-06 -2.4794609844649555e-06 0.0000000000000000e+00  -5.3011500689187350e-06 -2.3409191176613863e-06 0.0000000000000000e+00  -5.0765077948646459e-06 -2.2034791321504583e-06 0.0000000000000000e+00  -4.8585379401358879e-06 -2.0676281622527659e-06 0.0000000000000000e+00  -4.6440589427597543e-06 -1.9334932974970736e-06 0.0000000000000000e+00  -4.4357888693840957e-06 -1.8001191770092773e-06 0.0000000000000000e+00  -4.2316226247907317e-06 -1.6707298658552544e-06 0.0000000000000000e+00  -4.0332337147702798e-06 -1.5410235718295709e-06 0.0000000000000000e+00  -3.8390493812721706e-06 -1.4161008650128297e-06 0.0000000000000000e+00  -3.6507610438998053e-06 -1.2915518990210904e-06 0.0000000000000000e+00  -3.4664045117066787e-06 -1.1722670792223189e-06 0.0000000000000000e+00  -3.2879571201188493e-06 -1.0535549737995745e-06 0.0000000000000000e+00  -3.1133542894169386e-06 -9.4047872446294326e-07 0.0000000000000000e+00  -2.9447756000842118e-06 -8.2825901693440869e-07 0.0000000000000000e+00  -2.7800459043175816e-06 -7.2175435061447732e-07 0.0000000000000000e+00  -2.6216231571406274e-06 -6.1648000973501364e-07 0.0000000000000000e+00  -2.4668885261953234e-06 -5.1751844268882456e-07 0.0000000000000000e+00  -2.3183379274259508e-06 -4.1992420129366003e-07 0.0000000000000000e+00  -2.1733644490548944e-06 -3.2867611464434086e-07 0.0000000000000000e+00  -2.0346987432506870e-06 -2.3909741860470018e-07 0.0000000000000000e+00  -1.9004370736319655e-06 -1.5489285984180284e-07 0.0000000000000000e+00  -1.7710972693237216e-06 -7.4370471529527913e-08 0.0000000000000000e+00  -1.6481582018160062e-06 1.6356923964993711e-09 0.0000000000000000e+00  -1.5274601125120483e-06 7.3206711064031666e-08 0.0000000000000000e+00  -1.4134528292695174e-06 1.4208154156091431e-07 0.0000000000000000e+00  -1.3037358658782445e-06 2.0352160593899109e-07 0.0000000000000000e+00  -1.1996885194830892e-06 2.6432736245024687e-07 0.0000000000000000e+00  -1.1003854806766713e-06 3.1709661292993550e-07 0.0000000000000000e+00  -1.0064940919541929e-06 3.6915985384203530e-07 0.0000000000000000e+00  -9.1752078114148860e-07 4.1390217311817249e-07 0.0000000000000000e+00  -8.3302666998196368e-07 4.5659593620419405e-07 0.0000000000000000e+00  -7.5477428084005365e-07 4.9364178352960754e-07 0.0000000000000000e+00  -6.7923906342495826e-07 5.2768273178516193e-07 0.0000000000000000e+00  -6.1015386313082533e-07 5.5798343772037489e-07 0.0000000000000000e+00  -5.4576695098750298e-07 5.8230734169457122e-07 0.0000000000000000e+00  -4.8667029177660401e-07 6.0537779952709716e-07 0.0000000000000000e+00  -4.3263338480095104e-07 6.2339983568434478e-07 0.0000000000000000e+00  -3.8280471470454825e-07 6.3907266044838047e-07 0.0000000000000000e+00  -3.3904558279664737e-07 6.5157678686749102e-07 0.0000000000000000e+00  -2.9789360124274081e-07 6.6114570573625491e-07 0.0000000000000000e+00  -2.6328852269013831e-07 6.7385857737570866e-07 0.0000000000000000e+00  -2.2433660974747144e-07 6.8297864399499191e-07 0.0000000000000000e+00  -1.7403278697123635e-07 6.7073415834468081e-07 0.0000000000000000e+00  -9.6041852783537372e-08 6.2081966571595695e-07 0.0000000000000000e+00  -2.5957596885248258e-07 -2.8470241258257120e-09 0.0000000000000000e+00  -5.7099258407928397e-06 -3.0745714150348079e-06 0.0000000000000000e+00  -5.2574627288976080e-06 -2.8254344699825536e-06 0.0000000000000000e+00  -4.5733541567863026e-06 -2.4187008380639346e-06 0.0000000000000000e+00  -2.4682025716688599e-07 3.4928977528352334e-09 0.0000000000000000e+00  -4.1709180461301040e-06 -2.1676232582036899e-06 0.0000000000000000e+00  -3.0903782706347276e-07 9.2775181053187935e-09 0.0000000000000000e+00  -3.7795137527723110e-06 -1.9248030520229917e-06 0.0000000000000000e+00  -4.4568527335726401e-07 -1.5393142870322664e-08 0.0000000000000000e+00  -5.5344349857160800e-07 -5.4753452241862727e-08 0.0000000000000000e+00  -3.4089771298635614e-06 -1.6921320032319445e-06 0.0000000000000000e+00  -9.1451485225217862e-07 -1.9346910585889909e-07 0.0000000000000000e+00  -2.7300517858556611e-06 -1.2629456365850158e-06 0.0000000000000000e+00  -6.7618158864908082e-07 -9.0278789827787921e-08 0.0000000000000000e+00  -1.0879039328988435e-06 -2.8689789697178094e-07 0.0000000000000000e+00  -2.4214377073751826e-06 -1.0688765835538436e-06 0.0000000000000000e+00  -3.0591785956997981e-06 -1.4710565753651276e-06 0.0000000000000000e+00  -1.2848385035410279e-06 -3.9105044702678491e-07 0.0000000000000000e+00  -2.1332927913072216e-06 -8.8989807667307965e-07 0.0000000000000000e+00  -1.4934493659059339e-06 -4.9989219593422602e-07 0.0000000000000000e+00  -1.8690479446746838e-06 -7.3655416016607618e-07 0.0000000000000000e+00  -1.6692929006834894e-06 -6.0955538308599925e-07 0.0000000000000000e+00  -7.8507716002291347e-07 -1.4442441818411011e-07 0.0000000000000000e+00  -4.9272958723646728e-06 -2.6216288027435489e-06 0.0000000000000000e+00  -3.7074898185238531e-07 -8.0839374343446744e-09 0.0000000000000000e+00  -5.5407846298356111e-06 -2.8133499381673444e-06 0.0000000000000000e+00  -2.3537938469796695e-07 2.5688200727590916e-07 0.0000000000000000e+00  -4.0197700155811995e-06 -1.9170238913940401e-06 0.0000000000000000e+00  -4.4231975273942365e-06 -2.1682157434568640e-06 0.0000000000000000e+00  -2.7564229388037725e-07 -2.3301227785200082e-07 0.0000000000000000e+00  -4.9001981177349105e-07 -2.2199265021018278e-07 0.0000000000000000e+00  -2.9325829751433572e-06 -1.2249837465840725e-06 0.0000000000000000e+00  -3.6369064588121362e-06 -1.6749120051268685e-06 0.0000000000000000e+00  -9.7987509438782759e-07 -4.1241139016304965e-07 0.0000000000000000e+00  -2.6109875986106144e-06 -1.0196295165742264e-06 0.0000000000000000e+00  -6.0621511496557573e-07 -2.5684235095567198e-07 0.0000000000000000e+00  -1.1638840214255969e-06 -5.0426306469628876e-07 0.0000000000000000e+00  -2.3097763153102267e-06 -8.2896092807242149e-07 0.0000000000000000e+00  -3.2745696587637309e-06 -1.4437631539192278e-06 0.0000000000000000e+00  -1.3609724429287339e-06 -6.4850518323315341e-07 0.0000000000000000e+00  -2.0287188825068152e-06 -6.5377148701140393e-07 0.0000000000000000e+00  -1.9812373194495399e-07 -1.4857928928244588e-07 0.0000000000000000e+00  -1.9363125216834720e-07 1.3476835636692075e-07 0.0000000000000000e+00  -5.8602588638072817e-06 -3.2670674