<?xml version="1.0"?>
<VTKFile type="UnstructuredGrid"  version="0.1"  >
<UnstructuredGrid>
<Piece  NumberOfPoints="1419" NumberOfCells="2698">
<Points>
<DataArray  type="Float64"  NumberOfComponents="3"  format="ascii">0 0 0  0 0.41 0  2.5 0 0  2.5 0.41 0  0.6 0.19 0  0.6 0.21 0  0.25 0.2 0  0.15 0.2 0  0.2489897948556636 0.21 0  0.2489897948556636 0.19 0  0.6 0.2 0  0 0.3807142857143437 0  0 0.3514285714286952 0  0 0.3221428571430699 0  0 0.29285714285744 0  0 0.2635714285718054 0  0 0.2342857142861561 0  0 0.2050000000005308 0  0 0.175714285714732 0  0 0.1464285714289574 0  0 0.1171428571431897 0  0 0.08785714285737878 0  0 0.05857142857161107 0  0 0.02928571428580012 0  0.03015443760436003 0 0  0.06140001986583606 0 0  0.09377624077125973 0 0  0.1273239957535082 0 0  0.1620856860351972 0 0  0.1981052433264291 0 0  0.235428184091502 0 0  0.2741016576309132 0 0  0.3141745521465447 0 0  0.3556974926295285 0 0  0.3987229542472677 0 0  0.4433053055141081 0 0  0.4895008759286886 0 0  0.5373680609405097 0 0  0.5869673343216626 0 0  0.6383613676634521 0 0  0.6916151138468254 0 0  0.7467958595648856 0 0  0.8039733463919316 0 0  0.8632198139502143 0 0  0.9246101326867038 0 0  0.9882218810934433 0 0  1.054135445558498 0 0  1.122434100542598 0 0  1.193204177141305 0 0  1.266535089879536 0 0  1.342519516046404 0 0  1.421253448503939 0 0  1.502836389106271 0 0  1.587371439758838 0 0  1.674965418777374 0 0  1.765729001825544 0 0  1.859776908880082 0 0  1.957227977487062 0 0  2.058205329869943 0 0  2.162836591189951 0 0  2.271253957290865 0 0  2.383594446803425 0 0  2.5 0.1024999999997612 0  2.5 0.2049999999994743 0  2.5 0.3074999999997183 0  2.383594446803656 0.41 0  2.271253957291315 0.41 0  2.162836591190598 0.41 0  2.058205329870775 0.41 0  1.957227977488067 0.41 0  1.859776908881246 0.41 0  1.765729001826854 0.41 0  1.674965418778818 0.41 0  1.58737143976041 0.41 0  1.502836389107956 0.41 0  1.421253448505726 0.41 0  1.342519516048286 0.41 0  1.266535089881505 0.41 0  1.193204177143353 0.41 0  1.122434100544716 0.41 0  1.05413544556068 0.41 0  0.9882218810956305 0.41 0  0.9246101326886647 0.41 0  0.8632198139519631 0.41 0  0.8039733463934788 0.41 0  0.7467958595662458 0.41 0  0.6916151138480078 0.41 0  0.6383613676644679 0.41 0  0.5869673343225223 0.41 0  0.5373680609412221 0.41 0  0.4895008759292634 0.41 0  0.4433053055145528 0.41 0  0.3987229542475914 0.41 0  0.3556974926297398 0.41 0  0.3141745521466497 0.41 0  0.2741016576310038 0.41 0  0.2354281840915826 0.41 0  0.1981052433265003 0.41 0  0.1620856860352591 0.41 0  0.1273239957535623 0.41 0  0.09377624077128965 0.41 0  0.06140001986584975 0.41 0  0.03015443760436654 0.41 0  0.2497468076502589 0.2050254481002335 0  0.2497468076502614 0.1949745518997913 0  0.2469965252529372 0.1829317073451959 0  0.2439893735792749 0.1762316384219906 0  0.2400332147834255 0.1700443375285386 0  0.2352133972704371 0.1645032867342007 0  0.2296339016332438 0.1597280261969788 0  0.2234150974217223 0.1558215752574715 0  0.2166911463437691 0.1528682099456123 0  0.2096071079204251 0.1509316448471593 0  0.2023158100364996 0.1500536585536553 0  0.194974551899914 0.1502531923497262 0  0.1877417105387872 0.1515259415822739 0  0.1807733240461124 0.153844448527136 0  0.1742197252835808 0.15715869474974 0  0.1682222986673531 0.1613971801805478 0  0.162910430003803 0.1664684656256651 0  0.1583987151779087 0.1722631454351573 0  0.1547844879126891 0.178656207771761 0  0.1521457199348551 0.1855097315605723 0  0.1505393388476355 0.1926758619366523 0  0.1505393388476328 0.2073241380633295 0  0.1521457199348437 0.2144902684393899 0  0.1547844879126531 0.221343792228163 0  0.1583987151778488 0.2277368545647528 0  0.1629104300036858 0.2335315343742052 0  0.1682222986671726 0.2386028198193036 0  0.1742197252833576 0.2428413052501257 0  0.1807733240458683 0.2461555514727623 0  0.1877417105384929 0.2484740584176516 0  0.1949745518995776 0.2497468076502398 0  0.202315810036185 0.2499463414463592 0  0.2096071079201568 0.2490683551528932 0  0.2166911463435495 0.2471317900544655 0  0.2234150974215506 0.2441784247426195 0  0.2296339016331197 0.2402719738031125 0  0.2352133972703547 0.2354967132658811 0  0.2400332147833751 0.2299556624715287 0  0.2439893735792577 0.2237683615780412 0  0.246996525252926 0.2170682926548348 0  0.25645809709277 0.21 0  0.2639263993298655 0.21 0  0.271394701566961 0.21 0  0.2788630038040554 0.21 0  0.2863313060411479 0.21 0  0.2937996082782405 0.21 0  0.301267910515333 0.21 0  0.3087362127524279 0.21 0  0.3162045149895234 0.21 0  0.3236728172265972 0.21 0  0.3311411194636928 0.21 0  0.3386094217007701 0.21 0  0.3460777239378666 0.21 0  0.3535460261749672 0.21 0  0.3610143284120516 0.21 0  0.3684826306491596 0.21 0  0.3759509328862226 0.21 0  0.383419235123329 0.21 0  0.3908875373604028 0.21 0  0.3983558395975142 0.21 0  0.4058241418345938 0.21 0  0.4132924440716992 0.21 0  0.4207607463087888 0.21 0  0.4282290485459029 0.21 0  0.4356973507830418 0.21 0  0.4431656530201649 0.21 0  0.4506339552573136 0.21 0  0.4581022574944306 0.21 0  0.4655705597315852 0.21 0  0.4730388619686996 0.21 0  0.480507164205851 0.21 0  0.4879754664429498 0.21 0  0.4954437686800938 0.21 0  0.502912070917267 0.21 0  0.5103803731544119 0.21 0  0.5178486753915261 0.21 0  0.5253169776286404 0.21 0  0.5327852798657868 0.21 0  0.5402535821029386 0.21 0  0.54772188434007 0.21 0  0.5551901865771842 0.21 0  0.5626584888143201 0.21 0  0.5701267910514778 0.21 0  0.5775950932886138 0.21 0  0.5850633955257281 0.21 0  0.5925316977628483 0.21 0  0.6 0.2050000000000054 0  0.6 0.1950000000000217 0  0.5925316977628897 0.19 0  0.5850633955257988 0.19 0  0.5775950932887378 0.19 0  0.5701267910515998 0.19 0  0.5626584888145268 0.19 0  0.5551901865773963 0.19 0  0.547721884340339 0.19 0  0.5402535821032429 0.19 0  0.5327852798661811 0.19 0  0.5253169776290537 0.19 0  0.5178486753919799 0.19 0  0.5103803731549078 0.19 0  0.502912070917822 0.19 0  0.4954437686807294 0.19 0  0.4879754664436223 0.19 0  0.4805071642065402 0.19 0  0.4730388619694271 0.19 0  0.4655705597323621 0.19 0  0.4581022574952563 0.19 0  0.4506339552581777 0.19 0  0.4431656530210671 0.19 0  0.4356973507839815 0.19 0  0.4282290485468779 0.19 0  0.4207607463097617 0.19 0  0.4132924440726327 0.19 0  0.4058241418354857 0.19 0  0.3983558395983636 0.19 0  0.3908875373612097 0.19 0  0.3834192351240934 0.19 0  0.3759509328869369 0.19 0  0.3684826306498175 0.19 0  0.361014328412667 0.19 0  0.3535460261755617 0.19 0  0.3460777239384295 0.19 0  0.3386094217012945 0.19 0  0.3311411194641595 0.19 0  0.3236728172270245 0.19 0  0.3162045149898895 0.19 0  0.3087362127527544 0.19 0  0.3012679105156187 0.19 0  0.2937996082784807 0.19 0  0.2863313060413428 0.19 0  0.2788630038042048 0.19 0  0.2713947015670686 0.19 0  0.2639263993299336 0.19 0  0.2564580970927985 0.19 0  0.2607803159922026 0.2000727136295815 0  0.5887803774232762 0.2001272386983733 0  0.5745072403740523 0.2002044435018727 0  0.5511891430099709 0.2001122610077113 0  0.2751288526855082 0.20000000000002 0  0.5365194309847112 0.1999999999999436 0  0.2894621222999649 0.1998691686390484 0  0.5215828265105155 0.1999999999999228 0  0.3127789816668748 0.1998657885438805 0  0.3274069683451451 0.2000000000000796 0  0.5066462220363641 0.199999999999908 0  0.3650630746574081 0.199866017807523 0  0.476773013087985 0.1999999999998713 0  0.3417402379596385 0.1998691686391011 0  0.3796850840047755 0.200000000000134 0  0.4618364086138087 0.1999999999998546 0  0.4917096175621762 0.1999999999998808 0  0.3946216884789568 0.2000000000001512 0  0.446899804139621 0.1999999999998389 0  0.4089549580935208 0.1998691686391595 0  0.4322718174608562 0.200127451265745 0  0.4201487168029707 0.1999966199048527 0  0.3528922713220932 0.2000185703532356 0  0.5633122436674589 0.1999814296467508 0  0.3006558810093873 0.1999966199048318 0  0.5815926498168407 0.1966545283159175 0  0.2677053789419034 0.1964246479135325 0  0.5290511287476175 0.1970915826863981 0  0.5439877332217911 0.197091582686394 0  0.2825131256993216 0.2035478995978015 0  0.3199386661080599 0.202908417313604 0  0.4842413153250809 0.1970915826863873 0  0.5141145242734466 0.1970915826863843 0  0.3722167817676917 0.2029084173136195 0  0.4693047108508938 0.1970915826863783 0  0.3348752705822316 0.202908417313609 0  0.3871533862418661 0.2029084173136212 0  0.4543681063767183 0.1970915826863795 0  0.4991779197992749 0.1970915826863902 0  0.4020059614928624 0.203547899597858 0  0.4394315019025246 0.1970915826863714 0  0.2550657455369551 0.2034088125358657 0  0.2548908499171161 0.1966940311614271 0  0.5946539510196798 0.2024302972968126 0  0.267698176732111 0.2039977513680092 0  0.4261685417851465 0.196409292431739 0  0.3590076176283495 0.196411355804271 0  0.5571672426447437 0.2036011176410121 0  0.3066757059912147 0.1964092924317024 0  0.594380730180568 0.1966558399668133 0  0.4842413153245942 0.2040749161535287 0  0.4693047108503577 0.2040749161535231 0  0.3871533862424271 0.1959250838464788 0  0.372246743208829 0.1959123236376545 0  0.5141145242731028 0.2040749161535395 0  0.4543681063761134 0.2040749161535186 0  0.4019979587101454 0.1959834479682427 0  0.4394608940728603 0.2040870543693135 0  0.5439623148931173 0.2040856076781014 0  0.5290511287473298 0.2040749161535501 0  0.4991779197988497 0.2040749161535382 0  0.3347912413592433 0.1959225448935183 0  0.3199680582793816 0.1959123018030061 0  0.2825051229162361 0.1959834479681729 0  0.3590471196690275 0.2036304442587945 0  0.5571594006495384 0.1963685282145804 0  0.3067669986803285 0.203627750582736 0  0.4262598344738712 0.2036568242185335 0  0.5814408164431408 0.2041285596160068 0  0.5688286748170428 0.1961819304477386 0  0.4145905603063645 0.2038180695522843 0  0.3473758401724931 0.2038180695522752 0  0.2950977245128307 0.2038180695522663 0  0.5688286748170693 0.203818069552238 0  0.2950977245127906 0.1961819304477774 0  0.3473758401723931 0.1961819304478349 0  0.4145905603061963 0.1961819304479011 0  0.2601812407614425 0.2056861609747042
[...]
<PointData  Vectors="f_40-1"> 
<DataArray  type="Float64"  Name="f_40-1"  NumberOfComponents="3" format="ascii">0.0000000000000000e+00 0.0000000000000000e+00 0.0000000000000000e+00  0.0000000000000000e+00 0.0000000000000000e+00 0.0000000000000000e+00  0.0000000000000000e+00 0.0000000000000000e+00 0.0000000000000000e+00  0.0000000000000000e+00 0.0000000000000000e+00 0.0000000000000000e+00  -5.4922124353907278e-06 -1.7286600803760171e-06 0.0000000000000000e+00  -5.2498407004207288e-06 -2.3859464323815521e-06 0.0000000000000000e+00  0.0000000000000000e+00 0.0000000000000000e+00 0.0000000000000000e+00  0.0000000000000000e+00 0.0000000000000000e+00 0.0000000000000000e+00  0.0000000000000000e+00 0.0000000000000000e+00 0.0000000000000000e+00  0.0000000000000000e+00 0.0000000000000000e+00 0.0000000000000000e+00  -5.3938997389645713e-06 -2.0572405352194079e-06 0.0000000000000000e+00  0.0000000000000000e+00 0.0000000000000000e+00 0.0000000000000000e+00  0.0000000000000000e+00 0.0000000000000000e+00 0.0000000000000000e+00  0.0000000000000000e+00 0.0000000000000000e+00 0.0000000000000000e+00  0.0000000000000000e+00 0.0000000000000000e+00 0.0000000000000000e+00  0.0000000000000000e+00 0.0000000000000000e+00 0.0000000000000000e+00  0.0000000000000000e+00 0.0000000000000000e+00 0.0000000000000000e+00  0.0000000000000000e+00 0.0000000000000000e+00 0.0000000000000000e+00  0.0000000000000000e+00 0.0000000000000000e+00 0.0000000000000000e+00  0.0000000000000000e+00 0.0000000000000000e+00 0.0000000000000000e+00  0.0000000000000000e+00 0.0000000000000000e+00 0.0000000000000000e+00  0.0000000000000000e+00 0.0000000000000000e+00 0.0000000000000000e+00  0.0000000000000000e+00 0.0000000000000000e+00 0.0000000000000000e+00  0.0000000000000000e+00 0.0000000000000000e+00 0.0000000000000000e+00  0.0000000000000000e+00 0.0000000000000000e+00 0.0000000000000000e+00  0.0000000000000000e+00 0.0000000000000000e+00 0.0000000000000000e+00  0.0000000000000000e+00 0.0000000000000000e+00 0.0000000000000000e+00  0.0000000000000000e+00 0.0000000000000000e+00 0.0000000000000000e+00  0.0000000000000000e+00 0.0000000000000000e+00 0.0000000000000000e+00  0.0000000000000000e+00 0.0000000000000000e+00 0.0000000000000000e+00  0.0000000000000000e+00 0.0000000000000000e+00 0.0000000000000000e+00  0.0000000000000000e+00 0.0000000000000000e+00 0.0000000000000000e+00  0.0000000000000000e+00 0.0000000000000000e+00 0.0000000000000000e+00  0.0000000000000000e+00 0.0000000000000000e+00 0.0000000000000000e+00  0.0000000000000000e+00 0.0000000000000000e+00 0.0000000000000000e+00  0.0000000000000000e+00 0.0000000000000000e+00 0.0000000000000000e+00  0.0000000000000000e+00 0.0000000000000000e+00 0.0000000000000000e+00  0.0000000000000000e+00 0.0000000000000000e+00 0.0000000000000000e+00  0.0000000000000000e+00 0.0000000000000000e+00 0.0000000000000000e+00  0.0000000000000000e+00 0.0000000000000000e+00 0.0000000000000000e+00  0.0000000000000000e+00 0.0000000000000000e+00 0.0000000000000000e+00  0.0000000000000000e+00 0.0000000000000000e+00 0.0000000000000000e+00  0.0000000000000000e+00 0.0000000000000000e+00 0.0000000000000000e+00  0.0000000000000000e+00 0.0000000000000000e+00 0.0000000000000000e+00  0.0000000000000000e+00 0.0000000000000000e+00 0.0000000000000000e+00  0.0000000000000000e+00 0.0000000000000000e+00 0.0000000000000000e+00  0.0000000000000000e+00 0.0000000000000000e+00 0.0000000000000000e+00  0.0000000000000000e+00 0.0000000000000000e+00 0.0000000000000000e+00  0.0000000000000000e+00 0.0000000000000000e+00 0.0000000000000000e+00  0.0000000000000000e+00 0.0000000000000000e+00 0.0000000000000000e+00  0.0000000000000000e+00 0.0000000000000000e+00 0.0000000000000000e+00  0.0000000000000000e+00 0.0000000000000000e+00 0.0000000000000000e+00  0.0000000000000000e+00 0.0000000000000000e+00 0.0000000000000000e+00  0.0000000000000000e+00 0.0000000000000000e+00 0.0000000000000000e+00  0.0000000000000000e+00 0.0000000000000000e+00 0.0000000000000000e+00  0.0000000000000000e+00 0.0000000000000000e+00 0.0000000000000000e+00  0.0000000000000000e+00 0.0000000000000000e+00 0.0000000000000000e+00  0.0000000000000000e+00 0.0000000000000000e+00 0.0000000000000000e+00  0.0000000000000000e+00 0.0000000000000000e+00 0.0000000000000000e+00  0.0000000000000000e+00 0.0000000000000000e+00 0.0000000000000000e+00  0.0000000000000000e+00 0.0000000000000000e+00 0.0000000000000000e+00  0.0000000000000000e+00 0.0000000000000000e+00 0.0000000000000000e+00  0.0000000000000000e+00 0.0000000000000000e+00 0.0000000000000000e+00  0.0000000000000000e+00 0.0000000000000000e+00 0.0000000000000000e+00  0.0000000000000000e+00 0.0000000000000000e+00 0.0000000000000000e+00  0.0000000000000000e+00 0.0000000000000000e+00 0.0000000000000000e+00  0.0000000000000000e+00 0.0000000000000000e+00 0.0000000000000000e+00  0.0000000000000000e+00 0.0000000000000000e+00 0.0000000000000000e+00  0.0000000000000000e+00 0.0000000000000000e+00 0.0000000000000000e+00  0.0000000000000000e+00 0.0000000000000000e+00 0.0000000000000000e+00  0.0000000000000000e+00 0.0000000000000000e+00 0.0000000000000000e+00  0.0000000000000000e+00 0.0000000000000000e+00 0.0000000000000000e+00  0.0000000000000000e+00 0.0000000000000000e+00 0.0000000000000000e+00  0.0000000000000000e+00 0.0000000000000000e+00 0.0000000000000000e+00  0.0000000000000000e+00 0.0000000000000000e+00 0.0000000000000000e+00  0.0000000000000000e+00 0.0000000000000000e+00 0.0000000000000000e+00  0.0000000000000000e+00 0.0000000000000000e+00 0.0000000000000000e+00  0.0000000000000000e+00 0.0000000000000000e+00 0.0000000000000000e+00  0.0000000000000000e+00 0.0000000000000000e+00 0.0000000000000000e+00  0.0000000000000000e+00 0.0000000000000000e+00 0.0000000000000000e+00  0.0000000000000000e+00 0.0000000000000000e+00 0.0000000000000000e+00  0.0000000000000000e+00 0.0000000000000000e+00 0.0000000000000000e+00  0.0000000000000000e+00 0.0000000000000000e+00 0.0000000000000000e+00  0.0000000000000000e+00 0.0000000000000000e+00 0.0000000000000000e+00  0.0000000000000000e+00 0.0000000000000000e+00 0.0000000000000000e+00  0.0000000000000000e+00 0.0000000000000000e+00 0.0000000000000000e+00  0.0000000000000000e+00 0.0000000000000000e+00 0.0000000000000000e+00  0.0000000000000000e+00 0.0000000000000000e+00 0.0000000000000000e+00  0.0000000000000000e+00 0.0000000000000000e+00 0.0000000000000000e+00  0.0000000000000000e+00 0.0000000000000000e+00 0.0000000000000000e+00  0.0000000000000000e+00 0.0000000000000000e+00 0.0000000000000000e+00  0.0000000000000000e+00 0.0000000000000000e+00 0.0000000000000000e+00  0.0000000000000000e+00 0.0000000000000000e+00 0.0000000000000000e+00  0.0000000000000000e+00 0.0000000000000000e+00 0.0000000000000000e+00  0.0000000000000000e+00 0.0000000000000000e+00 0.0000000000000000e+00  0.0000000000000000e+00 0.0000000000000000e+00 0.0000000000000000e+00  0.0000000000000000e+00 0.0000000000000000e+00 0.0000000000000000e+00  0.0000000000000000e+00 0.0000000000000000e+00 0.0000000000000000e+00  0.0000000000000000e+00 0.0000000000000000e+00 0.0000000000000000e+00  0.0000000000000000e+00 0.0000000000000000e+00 0.0000000000000000e+00  0.0000000000000000e+00 0.0000000000000000e+00 0.0000000000000000e+00  0.0000000000000000e+00 0.0000000000000000e+00 0.0000000000000000e+00  0.0000000000000000e+00 0.0000000000000000e+00 0.0000000000000000e+00  0.0000000000000000e+00 0.0000000000000000e+00 0.0000000000000000e+00  0.0000000000000000e+00 0.0000000000000000e+00 0.0000000000000000e+00  0.0000000000000000e+00 0.0000000000000000e+00 0.0000000000000000e+00  0.0000000000000000e+00 0.0000000000000000e+00 0.0000000000000000e+00  0.0000000000000000e+00 0.0000000000000000e+00 0.0000000000000000e+00  0.0000000000000000e+00 0.0000000000000000e+00 0.0000000000000000e+00  0.0000000000000000e+00 0.0000000000000000e+00 0.0000000000000000e+00  0.0000000000000000e+00 0.0000000000000000e+00 0.0000000000000000e+00  0.0000000000000000e+00 0.0000000000000000e+00 0.0000000000000000e+00  0.0000000000000000e+00 0.0000000000000000e+00 0.0000000000000000e+00  0.0000000000000000e+00 0.0000000000000000e+00 0.0000000000000000e+00  0.0000000000000000e+00 0.0000000000000000e+00 0.0000000000000000e+00  0.0000000000000000e+00 0.0000000000000000e+00 0.0000000000000000e+00  0.0000000000000000e+00 0.0000000000000000e+00 0.0000000000000000e+00  0.0000000000000000e+00 0.0000000000000000e+00 0.0000000000000000e+00  0.0000000000000000e+00 0.0000000000000000e+00 0.0000000000000000e+00  0.0000000000000000e+00 0.0000000000000000e+00 0.0000000000000000e+00  0.0000000000000000e+00 0.0000000000000000e+00 0.0000000000000000e+00  0.0000000000000000e+00 0.0000000000000000e+00 0.0000000000000000e+00  0.0000000000000000e+00 0.0000000000000000e+00 0.0000000000000000e+00  0.0000000000000000e+00 0.0000000000000000e+00 0.0000000000000000e+00  0.0000000000000000e+00 0.0000000000000000e+00 0.0000000000000000e+00  0.0000000000000000e+00 0.0000000000000000e+00 0.0000000000000000e+00  0.0000000000000000e+00 0.0000000000000000e+00 0.0000000000000000e+00  0.0000000000000000e+00 0.0000000000000000e+00 0.0000000000000000e+00  0.0000000000000000e+00 0.0000000000000000e+00 0.0000000000000000e+00  0.0000000000000000e+00 0.0000000000000000e+00 0.0000000000000000e+00  0.0000000000000000e+00 0.0000000000000000e+00 0.0000000000000000e+00  0.0000000000000000e+00 0.0000000000000000e+00 0.0000000000000000e+00  0.0000000000000000e+00 0.0000000000000000e+00 0.0000000000000000e+00  0.0000000000000000e+00 0.0000000000000000e+00 0.0000000000000000e+00  0.0000000000000000e+00 0.0000000000000000e+00 0.0000000000000000e+00  0.0000000000000000e+00 0.0000000000000000e+00 0.0000000000000000e+00  0.0000000000000000e+00 0.0000000000000000e+00 0.0000000000000000e+00  0.0000000000000000e+00 0.0000000000000000e+00 0.0000000000000000e+00  0.0000000000000000e+00 0.0000000000000000e+00 0.0000000000000000e+00  0.0000000000000000e+00 0.0000000000000000e+00 0.0000000000000000e+00  0.0000000000000000e+00 0.0000000000000000e+00 0.0000000000000000e+00  0.0000000000000000e+00 0.0000000000000000e+00 0.0000000000000000e+00  0.0000000000000000e+00 0.0000000000000000e+00 0.0000000000000000e+00  -8.9375246309846661e-08 -5.1391903264858771e-07 0.0000000000000000e+00  -1.6701745312378208e-07 -5.4984184581142810e-07 0.0000000000000000e+00  -2.1928684023681223e-07 -5.5652064998694715e-07 0.0000000000000000e+00  -2.5929576879608280e-07 -5.4588745021530078e-07 0.0000000000000000e+00  -2.9546307958242803e-07 -5.3586371908100899e-07 0.0000000000000000e+00  -3.3524773185820162e-07 -5.3100190673622506e-07 0.0000000000000000e+00  -3.7738674254443133e-07 -5.2657667774158143e-07 0.0000000000000000e+00  -4.2377483108796494e-07 -5.2395714827852303e-07 0.0000000000000000e+00  -4.7205761483703360e-07 -5.2302048809739397e-07 0.0000000000000000e+00  -5.2481412149746385e-07 -5.2321566742831852e-07 0.0000000000000000e+00  -5.8014123695955073e-07 -5.2708591125135770e-07 0.0000000000000000e+00  -6.3986784607959817e-07 -5.3170331457312450e-07 0.0000000000000000e+00  -7.0296255576488864e-07 -5.3943468610430079e-07 0.0000000000000000e+00  -7.6960505376339376e-07 -5.4994751746597381e-07 0.0000000000000000e+00  -8.4102266924306398e-07 -5.6278473119546124e-07 0.0000000000000000e+00  -9.1445283576388851e-07 -5.7937480185346476e-07 0.0000000000000000e+00  -9.9323157140908233e-07 -5.9689372191994929e-07 0.0000000000000000e+00  -1.0749441390591746e-06 -6.1993624271432094e-07 0.0000000000000000e+00  -1.1616417934509226e-06 -6.4332982667244107e-07 0.0000000000000000e+00  -1.2511585291197588e-06 -6.7218253224623963e-07 0.0000000000000000e+00  -1.3455863344639395e-06 -7.0165083421992643e-07 0.0000000000000000e+00  -1.4439905943346282e-06 -7.3543633775252183e-07 0.0000000000000000e+00  -1.5459251344423805e-06 -7.7201712228166433e-07 0.0000000000000000e+00  -1.6529224086897708e-06 -8.1094630564272805e-07 0.0000000000000000e+00  -1.7622076855410068e-06 -8.5396980752926838e-07 0.0000000000000000e+00  -1.8767557119554821e-06 -8.9762595703129969e-07 0.0000000000000000e+00  -1.9955103364275945e-06 -9.4723979562557063e-07 0.0000000000000000e+00  -2.1183117797590340e-06 -9.9665670378978568e-07 0.0000000000000000e+00  -2.2453595559858964e-06 -1.0512957554759478e-06 0.0000000000000000e+00  -2.3765160947111525e-06 -1.1065192787826599e-06 0.0000000000000000e+00  -2.5116670023523708e-06 -1.1663493258504218e-06 0.0000000000000000e+00  -2.6514557488957690e-06 -1.2266406907446011e-06 0.0000000000000000e+00  -2.7947491000442133e-06 -1.2918050454538164e-06 0.0000000000000000e+00  -2.9428694782600356e-06 -1.3562965700199560e-06 0.0000000000000000e+00  -3.0954856139822932e-06 -1.4260978133749480e-06 0.0000000000000000e+00  -3.2522470256173826e-06 -1.4955093573279977e-06 0.0000000000000000e+00  -3.4131031518395601e-06 -1.5693169524330537e-06 0.0000000000000000e+00  -3.5783680512753608e-06 -1.6426574408492902e-06 0.0000000000000000e+00  -3.7480432046980555e-06 -1.7198370717532339e-06 0.0000000000000000e+00  -3.9224943470987184e-06 -1.7964526445914668e-06 0.0000000000000000e+00  -4.1015541264159030e-06 -1.8758230359759919e-06 0.0000000000000000e+00  -4.2844028213319776e-06 -1.9552752892491600e-06 0.0000000000000000e+00  -4.4727642006547865e-06 -2.0364367808376352e-06 0.0000000000000000e+00  -4.6636123400376210e-06 -2.1179009320041929e-06 0.0000000000000000e+00  -4.8594769130637623e-06 -2.1989823988367855e-06 0.0000000000000000e+00  -5.0570767535918271e-06 -2.2841883610527792e-06 0.0000000000000000e+00  -5.3303222309991939e-06 -2.2210406087912100e-06 0.0000000000000000e+00  -5.4497114566373463e-06 -1.8935170156135953e-06 0.0000000000000000e+00  -5.2969224421151143e-06 -1.6505990374298757e-06 0.0000000000000000e+00  -5.0974399158895275e-06 -1.5563195406819369e-06 0.0000000000000000e+00  -4.8994580286181063e-06 -1.4603974549901196e-06 0.0000000000000000e+00  -4.7058972354668807e-06 -1.3663708861989337e-06 0.0000000000000000e+00  -4.5150176937590716e-06 -1.2732198207241402e-06 0.0000000000000000e+00  -4.3295062863224273e-06 -1.1813406990318907e-06 0.0000000000000000e+00  -4.1467846222567409e-06 -1.0908058275908456e-06 0.0000000000000000e+00  -3.9690201927694557e-06 -1.0009093016110572e-06 0.0000000000000000e+00  -3.7945592413218419e-06 -9.1412178457846516e-07 0.0000000000000000e+00  -3.6247160596478346e-06 -8.2707901151901306e-07 0.0000000000000000e+00  -3.4582826189705408e-06 -7.4375687876103818e-07 0.0000000000000000e+00  -3.2965631125888488e-06 -6.6070905276248677e-07 0.0000000000000000e+00  -3.1380471034781185e-06 -5.8174018018487144e-07 0.0000000000000000e+00  -2.9842441350952017e-06 -5.0314532888656005e-07 0.0000000000000000e+00  -2.8335990357400174e-06 -4.2886952369461394e-07 0.0000000000000000e+00  -2.6877417221624512e-06 -3.5513795356799221e-07 0.0000000000000000e+00  -2.5450711341945907e-06 -2.8573057967058925e-07 0.0000000000000000e+00  -2.4074066906938432e-06 -2.1712322834593594e-07 0.0000000000000000e+00  -2.2728113696867414e-06 -1.5327126516418546e-07 0.0000000000000000e+00  -2.1430939928596657e-06 -9.0262273039965836e-08 0.0000000000000000e+00  -2.0163756988196103e-06 -3.1973823775281010e-08 0.0000000000000000e+00  -1.8946112066588887e-06 2.5280927589961836e-08 0.0000000000000000e+00  -1.7765095380481095e-06 7.8645577938812927e-08 0.0000000000000000e+00  -1.6622635673845862e-06 1.2938683687127324e-07 0.0000000000000000e+00  -1.5531884060467284e-06 1.7698696109486731e-07 0.0000000000000000e+00  -1.4460091323674407e-06 2.2137693116684836e-07 0.0000000000000000e+00  -1.3441165563183845e-06 2.6407868593801452e-07 0.0000000000000000e+00  -1.2457105491938109e-06 3.0128485765138104e-07 0.0000000000000000e+00  -1.1518082833363077e-06 3.3845428084550371e-07 0.0000000000000000e+00  -1.0617673976240947e-06 3.6966576069921132e-07 0.0000000000000000e+00  -9.7600985872138432e-07 4.0076937871989942e-07 0.0000000000000000e+00  -8.9428999848124430e-07 4.2659430940610769e-07 0.0000000000000000e+00  -8.1603536852261147e-07 4.5121484889037778e-07 0.0000000000000000e+00  -7.4282239148416723e-07 4.7195481854250173e-07 0.0000000000000000e+00  -6.7192269986101221e-07 4.9075207516513069e-07 0.0000000000000000e+00  -6.0610995362653641e-07 5.0717272064351944e-07 0.0000000000000000e+00  -5.4412039778440046e-07 5.1941627899953384e-07 0.0000000000000000e+00  -4.8631286878211665e-07 5.3124009943564215e-07 0.0000000000000000e+00  -4.3267890985585151e-07 5.3974537405270117e-07 0.0000000000000000e+00  -3.8226709392035840e-07 5.4690490684292824e-07 0.0000000000000000e+00  -3.3675089324521329e-07 5.5232363604105290e-07 0.0000000000000000e+00  -2.9348963555014956e-07 5.5594779208192533e-07 0.0000000000000000e+00  -2.5537758330281123e-07 5.6295614837351539e-07 0.0000000000000000e+00  -2.1368568193581291e-07 5.6786131289054709e-07 0.0000000000000000e+00  -1.6239841504544905e-07 5.5581272916229156e-07 0.0000000000000000e+00  -8.8491264243804537e-08 5.1353574541683783e-07 0.0000000000000000e+00  -2.3038619327331987e-07 -1.7078763649757147e-09 0.0000000000000000e+00  -5.0831428204586967e-06 -1.9257129125866837e-06 0.0000000000000000e+00  -4.7002635612368838e-06 -1.7587971343609336e-06 0.0000000000000000e+00  -4.1179185092850682e-06 -1.4859811477779074e-06 0.0000000000000000e+00  -2.4028993057492944e-07 7.1398957537991037e-09 0.0000000000000000e+00  -3.7737422946637976e-06 -1.3180843423902813e-06 0.0000000000000000e+00  -3.1175662303790813e-07 1.8363590710265790e-08 0.0000000000000000e+00  -3.4382412442724351e-06 -1.1574203970750870e-06 0.0000000000000000e+00  -4.5645125827805910e-07 1.4413355320123809e-08 0.0000000000000000e+00  -5.6494000759832602e-07 -4.1845096846259276e-09 0.0000000000000000e+00  -3.1194145616525550e-06 -1.0046161474940281e-06 0.0000000000000000e+00  -9.1062611033276861e-07 -7.0776159807684712e-08 0.0000000000000000e+00  -2.5314390501147302e-06 -7.2642278483818093e-07 0.0000000000000000e+00  -6.8470845897643720e-07 -1.7269323252438090e-08 0.0000000000000000e+00  -1.0715947474801365e-06 -1.2495556674671218e-07 0.0000000000000000e+00  -2.2621134286264951e-06 -6.0255164177786337e-07 0.0000000000000000e+00  -2.8171646218238562e-06 -8.6066071270960648e-07 0.0000000000000000e+00  -1.2516836001548444e-06 -1.8513990758805676e-07 0.0000000000000000e+00  -2.0091471079733292e-06 -4.8965280446216272e-07 0.0000000000000000e+00  -1.4399661549775353e-06 -2.4807610863953370e-07 0.0000000000000000e+00  -1.7760049417633608e-06 -3.9557027692490506e-07 0.0000000000000000e+00  -1.5976730374308548e-06 -3.1615496672876846e-07 0.0000000000000000e+00  -7.8883302352828917e-07 -4.7524488810234692e-08 0.0000000000000000e+00  -4.4188584655870681e-06 -1.6207305758618413e-06 0.0000000000000000e+00  -3.7816353679683672e-07 1.1117714838134455e-08 0.0000000000000000e+00  -4.9294227009539416e-06 -1.7279961745206611e-06 0.0000000000000000e+00  -2.1940574674077669e-07 2.1435806798750354e-07 0.0000000000000000e+00  -3.6351321493338383e-06 -1.1300963052300125e-06 0.0000000000000000e+00  -3.9802165225514701e-06 -1.2974261222412875e-06 0.0000000000000000e+00  -2.7611601906078666e-07 -1.8524679781856718e-07 0.0000000000000000e+00  -5.0549137832236256e-07 -1.4991506292631869e-07 0.0000000000000000e+00  -2.6984470765928125e-06 -6.7553220770122181e-07 0.0000000000000000e+00  -3.3065110259121263e-06 -9.6983042644643746e-07 0.0000000000000000e+00  -9.7803407928405340e-07 -2.4101482851854420e-07 0.0000000000000000e+00  -2.4189119197530212e-06 -5.4303850209992738e-07 0.0000000000000000e+00  -6.2153811713692138e-07 -1.6314366124487644e-07 0.0000000000000000e+00  -1.1481601333275999e-06 -2.9225626938551632e-07 0.0000000000000000e+00  -2.1557145903462122e-06 -4.2131388477873505e-07 0.0000000000000000e+00  -2.9943284467023563e-06 -8.1800522591372223e-07 0.0000000000000000e+00  -1.3296577460563505e-06 -3.8471685905106995e-07 0.0000000000000000e+00  -1.9086571799125817e-06 -3.1075961100097851e-07 0.0000000000000000e+00  -1.7147143208779064e-07 -1.2252848611293211e-07 0.0000000000000000e+00  -1.6719181930416525e-07 1.1130315867372028e-07 0.0000000000000000e+00  -5.2172923281583216e-06 -2.069661611271