<?xml version="1.0"?>
<VTKFile type="UnstructuredGrid"  version="0.1"  >
<UnstructuredGrid>
<Piece  NumberOfPoints="1419" NumberOfCells="2698">
<Points>
<DataArray  type="Float64"  NumberOfComponents="3"  format="ascii">0 0 0  0 0.41 0  2.5 0 0  2.5 0.41 0  0.6 0.19 0  0.6 0.21 0  0.25 0.2 0  0.15 0.2 0  0.2489897948556636 0.21 0  0.2489897948556636 0.19 0  0.6 0.2 0  0 0.3807142857143437 0  0 0.3514285714286952 0  0 0.3221428571430699 0  0 0.29285714285744 0  0 0.2635714285718054 0  0 0.2342857142861561 0  0 0.2050000000005308 0  0 0.175714285714732 0  0 0.1464285714289574 0  0 0.1171428571431897 0  0 0.08785714285737878 0  0 0.05857142857161107 0  0 0.02928571428580012 0  0.03015443760436003 0 0  0.06140001986583606 0 0  0.09377624077125973 0 0  0.1273239957535082 0 0  0.1620856860351972 0 0  0.1981052433264291 0 0  0.235428184091502 0 0  0.2741016576309132 0 0  0.3141745521465447 0 0  0.3556974926295285 0 0  0.3987229542472677 0 0  0.4433053055141081 0 0  0.4895008759286886 0 0  0.5373680609405097 0 0  0.5869673343216626 0 0  0.6383613676634521 0 0  0.6916151138468254 0 0  0.7467958595648856 0 0  0.8039733463919316 0 0  0.8632198139502143 0 0  0.9246101326867038 0 0  0.9882218810934433 0 0  1.054135445558498 0 0  1.122434100542598 0 0  1.193204177141305 0 0  1.266535089879536 0 0  1.342519516046404 0 0  1.421253448503939 0 0  1.502836389106271 0 0  1.587371439758838 0 0  1.674965418777374 0 0  1.765729001825544 0 0  1.859776908880082 0 0  1.957227977487062 0 0  2.058205329869943 0 0  2.162836591189951 0 0  2.271253957290865 0 0  2.383594446803425 0 0  2.5 0.1024999999997612 0  2.5 0.2049999999994743 0  2.5 0.3074999999997183 0  2.383594446803656 0.41 0  2.271253957291315 0.41 0  2.162836591190598 0.41 0  2.058205329870775 0.41 0  1.957227977488067 0.41 0  1.859776908881246 0.41 0  1.765729001826854 0.41 0  1.674965418778818 0.41 0  1.58737143976041 0.41 0  1.502836389107956 0.41 0  1.421253448505726 0.41 0  1.342519516048286 0.41 0  1.266535089881505 0.41 0  1.193204177143353 0.41 0  1.122434100544716 0.41 0  1.05413544556068 0.41 0  0.9882218810956305 0.41 0  0.9246101326886647 0.41 0  0.8632198139519631 0.41 0  0.8039733463934788 0.41 0  0.7467958595662458 0.41 0  0.6916151138480078 0.41 0  0.6383613676644679 0.41 0  0.5869673343225223 0.41 0  0.5373680609412221 0.41 0  0.4895008759292634 0.41 0  0.4433053055145528 0.41 0  0.3987229542475914 0.41 0  0.3556974926297398 0.41 0  0.3141745521466497 0.41 0  0.2741016576310038 0.41 0  0.2354281840915826 0.41 0  0.1981052433265003 0.41 0  0.1620856860352591 0.41 0  0.1273239957535623 0.41 0  0.09377624077128965 0.41 0  0.06140001986584975 0.41 0  0.03015443760436654 0.41 0  0.2497468076502589 0.2050254481002335 0  0.2497468076502614 0.1949745518997913 0  0.2469965252529372 0.1829317073451959 0  0.2439893735792749 0.1762316384219906 0  0.2400332147834255 0.1700443375285386 0  0.2352133972704371 0.1645032867342007 0  0.2296339016332438 0.1597280261969788 0  0.2234150974217223 0.1558215752574715 0  0.2166911463437691 0.1528682099456123 0  0.2096071079204251 0.1509316448471593 0  0.2023158100364996 0.1500536585536553 0  0.194974551899914 0.1502531923497262 0  0.1877417105387872 0.1515259415822739 0  0.1807733240461124 0.153844448527136 0  0.1742197252835808 0.15715869474974 0  0.1682222986673531 0.1613971801805478 0  0.162910430003803 0.1664684656256651 0  0.1583987151779087 0.1722631454351573 0  0.1547844879126891 0.178656207771761 0  0.1521457199348551 0.1855097315605723 0  0.1505393388476355 0.1926758619366523 0  0.1505393388476328 0.2073241380633295 0  0.1521457199348437 0.2144902684393899 0  0.1547844879126531 0.221343792228163 0  0.1583987151778488 0.2277368545647528 0  0.1629104300036858 0.2335315343742052 0  0.1682222986671726 0.2386028198193036 0  0.1742197252833576 0.2428413052501257 0  0.1807733240458683 0.2461555514727623 0  0.1877417105384929 0.2484740584176516 0  0.1949745518995776 0.2497468076502398 0  0.202315810036185 0.2499463414463592 0  0.2096071079201568 0.2490683551528932 0  0.2166911463435495 0.2471317900544655 0  0.2234150974215506 0.2441784247426195 0  0.2296339016331197 0.2402719738031125 0  0.2352133972703547 0.2354967132658811 0  0.2400332147833751 0.2299556624715287 0  0.2439893735792577 0.2237683615780412 0  0.246996525252926 0.2170682926548348 0  0.25645809709277 0.21 0  0.2639263993298655 0.21 0  0.271394701566961 0.21 0  0.2788630038040554 0.21 0  0.2863313060411479 0.21 0  0.2937996082782405 0.21 0  0.301267910515333 0.21 0  0.3087362127524279 0.21 0  0.3162045149895234 0.21 0  0.3236728172265972 0.21 0  0.3311411194636928 0.21 0  0.3386094217007701 0.21 0  0.3460777239378666 0.21 0  0.3535460261749672 0.21 0  0.3610143284120516 0.21 0  0.3684826306491596 0.21 0  0.3759509328862226 0.21 0  0.383419235123329 0.21 0  0.3908875373604028 0.21 0  0.3983558395975142 0.21 0  0.4058241418345938 0.21 0  0.4132924440716992 0.21 0  0.4207607463087888 0.21 0  0.4282290485459029 0.21 0  0.4356973507830418 0.21 0  0.4431656530201649 0.21 0  0.4506339552573136 0.21 0  0.4581022574944306 0.21 0  0.4655705597315852 0.21 0  0.4730388619686996 0.21 0  0.480507164205851 0.21 0  0.4879754664429498 0.21 0  0.4954437686800938 0.21 0  0.502912070917267 0.21 0  0.5103803731544119 0.21 0  0.5178486753915261 0.21 0  0.5253169776286404 0.21 0  0.5327852798657868 0.21 0  0.5402535821029386 0.21 0  0.54772188434007 0.21 0  0.5551901865771842 0.21 0  0.5626584888143201 0.21 0  0.5701267910514778 0.21 0  0.5775950932886138 0.21 0  0.5850633955257281 0.21 0  0.5925316977628483 0.21 0  0.6 0.2050000000000054 0  0.6 0.1950000000000217 0  0.5925316977628897 0.19 0  0.5850633955257988 0.19 0  0.5775950932887378 0.19 0  0.5701267910515998 0.19 0  0.5626584888145268 0.19 0  0.5551901865773963 0.19 0  0.547721884340339 0.19 0  0.5402535821032429 0.19 0  0.5327852798661811 0.19 0  0.5253169776290537 0.19 0  0.5178486753919799 0.19 0  0.5103803731549078 0.19 0  0.502912070917822 0.19 0  0.4954437686807294 0.19 0  0.4879754664436223 0.19 0  0.4805071642065402 0.19 0  0.4730388619694271 0.19 0  0.4655705597323621 0.19 0  0.4581022574952563 0.19 0  0.4506339552581777 0.19 0  0.4431656530210671 0.19 0  0.4356973507839815 0.19 0  0.4282290485468779 0.19 0  0.4207607463097617 0.19 0  0.4132924440726327 0.19 0  0.4058241418354857 0.19 0  0.3983558395983636 0.19 0  0.3908875373612097 0.19 0  0.3834192351240934 0.19 0  0.3759509328869369 0.19 0  0.3684826306498175 0.19 0  0.361014328412667 0.19 0  0.3535460261755617 0.19 0  0.3460777239384295 0.19 0  0.3386094217012945 0.19 0  0.3311411194641595 0.19 0  0.3236728172270245 0.19 0  0.3162045149898895 0.19 0  0.3087362127527544 0.19 0  0.3012679105156187 0.19 0  0.2937996082784807 0.19 0  0.2863313060413428 0.19 0  0.2788630038042048 0.19 0  0.2713947015670686 0.19 0  0.2639263993299336 0.19 0  0.2564580970927985 0.19 0  0.2607803159922026 0.2000727136295815 0  0.5887803774232762 0.2001272386983733 0  0.5745072403740523 0.2002044435018727 0  0.5511891430099709 0.2001122610077113 0  0.2751288526855082 0.20000000000002 0  0.5365194309847112 0.1999999999999436 0  0.2894621222999649 0.1998691686390484 0  0.5215828265105155 0.1999999999999228 0  0.3127789816668748 0.1998657885438805 0  0.3274069683451451 0.2000000000000796 0  0.5066462220363641 0.199999999999908 0  0.3650630746574081 0.199866017807523 0  0.476773013087985 0.1999999999998713 0  0.3417402379596385 0.1998691686391011 0  0.3796850840047755 0.200000000000134 0  0.4618364086138087 0.1999999999998546 0  0.4917096175621762 0.1999999999998808 0  0.3946216884789568 0.2000000000001512 0  0.446899804139621 0.1999999999998389 0  0.4089549580935208 0.1998691686391595 0  0.4322718174608562 0.200127451265745 0  0.4201487168029707 0.1999966199048527 0  0.3528922713220932 0.2000185703532356 0  0.5633122436674589 0.1999814296467508 0  0.3006558810093873 0.1999966199048318 0  0.5815926498168407 0.1966545283159175 0  0.2677053789419034 0.1964246479135325 0  0.5290511287476175 0.1970915826863981 0  0.5439877332217911 0.197091582686394 0  0.2825131256993216 0.2035478995978015 0  0.3199386661080599 0.202908417313604 0  0.4842413153250809 0.1970915826863873 0  0.5141145242734466 0.1970915826863843 0  0.3722167817676917 0.2029084173136195 0  0.4693047108508938 0.1970915826863783 0  0.3348752705822316 0.202908417313609 0  0.3871533862418661 0.2029084173136212 0  0.4543681063767183 0.1970915826863795 0  0.4991779197992749 0.1970915826863902 0  0.4020059614928624 0.203547899597858 0  0.4394315019025246 0.1970915826863714 0  0.2550657455369551 0.2034088125358657 0  0.2548908499171161 0.1966940311614271 0  0.5946539510196798 0.2024302972968126 0  0.267698176732111 0.2039977513680092 0  0.4261685417851465 0.196409292431739 0  0.3590076176283495 0.196411355804271 0  0.5571672426447437 0.2036011176410121 0  0.3066757059912147 0.1964092924317024 0  0.594380730180568 0.1966558399668133 0  0.4842413153245942 0.2040749161535287 0  0.4693047108503577 0.2040749161535231 0  0.3871533862424271 0.1959250838464788 0  0.372246743208829 0.1959123236376545 0  0.5141145242731028 0.2040749161535395 0  0.4543681063761134 0.2040749161535186 0  0.4019979587101454 0.1959834479682427 0  0.4394608940728603 0.2040870543693135 0  0.5439623148931173 0.2040856076781014 0  0.5290511287473298 0.2040749161535501 0  0.4991779197988497 0.2040749161535382 0  0.3347912413592433 0.1959225448935183 0  0.3199680582793816 0.1959123018030061 0  0.2825051229162361 0.1959834479681729 0  0.3590471196690275 0.2036304442587945 0  0.5571594006495384 0.1963685282145804 0  0.3067669986803285 0.203627750582736 0  0.4262598344738712 0.2036568242185335 0  0.5814408164431408 0.2041285596160068 0  0.5688286748170428 0.1961819304477386 0  0.4145905603063645 0.2038180695522843 0  0.3473758401724931 0.2038180695522752 0  0.2950977245128307 0.2038180695522663 0  0.5688286748170693 0.203818069552238 0  0.2950977245127906 0.1961819304477774 0  0.3473758401723931 0.1961819304478349 0  0.4145905603061963 0.1961819304479011 0  0.2601812407614425 0.2056861609747042
[...]
<PointData  Vectors="f_40-1"> 
<DataArray  type="Float64"  Name="f_40-1"  NumberOfComponents="3" format="ascii">0.0000000000000000e+00 0.0000000000000000e+00 0.0000000000000000e+00  0.0000000000000000e+00 0.0000000000000000e+00 0.0000000000000000e+00  0.0000000000000000e+00 0.0000000000000000e+00 0.0000000000000000e+00  0.0000000000000000e+00 0.0000000000000000e+00 0.0000000000000000e+00  -7.0676432986103694e-06 -4.9706037017465029e-06 0.0000000000000000e+00  -6.5177228957370178e-06 -5.9355876226493106e-06 0.0000000000000000e+00  0.0000000000000000e+00 0.0000000000000000e+00 0.0000000000000000e+00  0.0000000000000000e+00 0.0000000000000000e+00 0.0000000000000000e+00  0.0000000000000000e+00 0.0000000000000000e+00 0.0000000000000000e+00  0.0000000000000000e+00 0.0000000000000000e+00 0.0000000000000000e+00  -6.8352003686789637e-06 -5.4531953093741755e-06 0.0000000000000000e+00  0.0000000000000000e+00 0.0000000000000000e+00 0.0000000000000000e+00  0.0000000000000000e+00 0.0000000000000000e+00 0.0000000000000000e+00  0.0000000000000000e+00 0.0000000000000000e+00 0.0000000000000000e+00  0.0000000000000000e+00 0.0000000000000000e+00 0.0000000000000000e+00  0.0000000000000000e+00 0.0000000000000000e+00 0.0000000000000000e+00  0.0000000000000000e+00 0.0000000000000000e+00 0.0000000000000000e+00  0.0000000000000000e+00 0.0000000000000000e+00 0.0000000000000000e+00  0.0000000000000000e+00 0.0000000000000000e+00 0.0000000000000000e+00  0.0000000000000000e+00 0.0000000000000000e+00 0.0000000000000000e+00  0.0000000000000000e+00 0.0000000000000000e+00 0.0000000000000000e+00  0.0000000000000000e+00 0.0000000000000000e+00 0.0000000000000000e+00  0.0000000000000000e+00 0.0000000000000000e+00 0.0000000000000000e+00  0.0000000000000000e+00 0.0000000000000000e+00 0.0000000000000000e+00  0.0000000000000000e+00 0.0000000000000000e+00 0.0000000000000000e+00  0.0000000000000000e+00 0.0000000000000000e+00 0.0000000000000000e+00  0.0000000000000000e+00 0.0000000000000000e+00 0.0000000000000000e+00  0.0000000000000000e+00 0.0000000000000000e+00 0.0000000000000000e+00  0.0000000000000000e+00 0.0000000000000000e+00 0.0000000000000000e+00  0.0000000000000000e+00 0.0000000000000000e+00 0.0000000000000000e+00  0.0000000000000000e+00 0.0000000000000000e+00 0.0000000000000000e+00  0.0000000000000000e+00 0.0000000000000000e+00 0.0000000000000000e+00  0.0000000000000000e+00 0.0000000000000000e+00 0.0000000000000000e+00  0.0000000000000000e+00 0.0000000000000000e+00 0.0000000000000000e+00  0.0000000000000000e+00 0.0000000000000000e+00 0.0000000000000000e+00  0.0000000000000000e+00 0.0000000000000000e+00 0.0000000000000000e+00  0.0000000000000000e+00 0.0000000000000000e+00 0.0000000000000000e+00  0.0000000000000000e+00 0.0000000000000000e+00 0.0000000000000000e+00  0.0000000000000000e+00 0.0000000000000000e+00 0.0000000000000000e+00  0.0000000000000000e+00 0.0000000000000000e+00 0.0000000000000000e+00  0.0000000000000000e+00 0.0000000000000000e+00 0.0000000000000000e+00  0.0000000000000000e+00 0.0000000000000000e+00 0.0000000000000000e+00  0.0000000000000000e+00 0.0000000000000000e+00 0.0000000000000000e+00  0.0000000000000000e+00 0.0000000000000000e+00 0.0000000000000000e+00  0.0000000000000000e+00 0.0000000000000000e+00 0.0000000000000000e+00  0.0000000000000000e+00 0.0000000000000000e+00 0.0000000000000000e+00  0.0000000000000000e+00 0.0000000000000000e+00 0.0000000000000000e+00  0.0000000000000000e+00 0.0000000000000000e+00 0.0000000000000000e+00  0.0000000000000000e+00 0.0000000000000000e+00 0.0000000000000000e+00  0.0000000000000000e+00 0.0000000000000000e+00 0.0000000000000000e+00  0.0000000000000000e+00 0.0000000000000000e+00 0.0000000000000000e+00  0.0000000000000000e+00 0.0000000000000000e+00 0.0000000000000000e+00  0.0000000000000000e+00 0.0000000000000000e+00 0.0000000000000000e+00  0.0000000000000000e+00 0.0000000000000000e+00 0.0000000000000000e+00  0.0000000000000000e+00 0.0000000000000000e+00 0.0000000000000000e+00  0.0000000000000000e+00 0.0000000000000000e+00 0.0000000000000000e+00  0.0000000000000000e+00 0.0000000000000000e+00 0.0000000000000000e+00  0.0000000000000000e+00 0.0000000000000000e+00 0.0000000000000000e+00  0.0000000000000000e+00 0.0000000000000000e+00 0.0000000000000000e+00  0.0000000000000000e+00 0.0000000000000000e+00 0.0000000000000000e+00  0.0000000000000000e+00 0.0000000000000000e+00 0.0000000000000000e+00  0.0000000000000000e+00 0.0000000000000000e+00 0.0000000000000000e+00  0.0000000000000000e+00 0.0000000000000000e+00 0.0000000000000000e+00  0.0000000000000000e+00 0.0000000000000000e+00 0.0000000000000000e+00  0.0000000000000000e+00 0.0000000000000000e+00 0.0000000000000000e+00  0.0000000000000000e+00 0.0000000000000000e+00 0.0000000000000000e+00  0.0000000000000000e+00 0.0000000000000000e+00 0.0000000000000000e+00  0.0000000000000000e+00 0.0000000000000000e+00 0.0000000000000000e+00  0.0000000000000000e+00 0.0000000000000000e+00 0.0000000000000000e+00  0.0000000000000000e+00 0.0000000000000000e+00 0.0000000000000000e+00  0.0000000000000000e+00 0.0000000000000000e+00 0.0000000000000000e+00  0.0000000000000000e+00 0.0000000000000000e+00 0.0000000000000000e+00  0.0000000000000000e+00 0.0000000000000000e+00 0.0000000000000000e+00  0.0000000000000000e+00 0.0000000000000000e+00 0.0000000000000000e+00  0.0000000000000000e+00 0.0000000000000000e+00 0.0000000000000000e+00  0.0000000000000000e+00 0.0000000000000000e+00 0.0000000000000000e+00  0.0000000000000000e+00 0.0000000000000000e+00 0.0000000000000000e+00  0.0000000000000000e+00 0.0000000000000000e+00 0.0000000000000000e+00  0.0000000000000000e+00 0.0000000000000000e+00 0.0000000000000000e+00  0.0000000000000000e+00 0.0000000000000000e+00 0.0000000000000000e+00  0.0000000000000000e+00 0.0000000000000000e+00 0.0000000000000000e+00  0.0000000000000000e+00 0.0000000000000000e+00 0.0000000000000000e+00  0.0000000000000000e+00 0.0000000000000000e+00 0.0000000000000000e+00  0.0000000000000000e+00 0.0000000000000000e+00 0.0000000000000000e+00  0.0000000000000000e+00 0.0000000000000000e+00 0.0000000000000000e+00  0.0000000000000000e+00 0.0000000000000000e+00 0.0000000000000000e+00  0.0000000000000000e+00 0.0000000000000000e+00 0.0000000000000000e+00  0.0000000000000000e+00 0.0000000000000000e+00 0.0000000000000000e+00  0.0000000000000000e+00 0.0000000000000000e+00 0.0000000000000000e+00  0.0000000000000000e+00 0.0000000000000000e+00 0.0000000000000000e+00  0.0000000000000000e+00 0.0000000000000000e+00 0.0000000000000000e+00  0.0000000000000000e+00 0.0000000000000000e+00 0.0000000000000000e+00  0.0000000000000000e+00 0.0000000000000000e+00 0.0000000000000000e+00  0.0000000000000000e+00 0.0000000000000000e+00 0.0000000000000000e+00  0.0000000000000000e+00 0.0000000000000000e+00 0.0000000000000000e+00  0.0000000000000000e+00 0.0000000000000000e+00 0.0000000000000000e+00  0.0000000000000000e+00 0.0000000000000000e+00 0.0000000000000000e+00  0.0000000000000000e+00 0.0000000000000000e+00 0.0000000000000000e+00  0.0000000000000000e+00 0.0000000000000000e+00 0.0000000000000000e+00  0.0000000000000000e+00 0.0000000000000000e+00 0.0000000000000000e+00  0.0000000000000000e+00 0.0000000000000000e+00 0.0000000000000000e+00  0.0000000000000000e+00 0.0000000000000000e+00 0.0000000000000000e+00  0.0000000000000000e+00 0.0000000000000000e+00 0.0000000000000000e+00  0.0000000000000000e+00 0.0000000000000000e+00 0.0000000000000000e+00  0.0000000000000000e+00 0.0000000000000000e+00 0.0000000000000000e+00  0.0000000000000000e+00 0.0000000000000000e+00 0.0000000000000000e+00  0.0000000000000000e+00 0.0000000000000000e+00 0.0000000000000000e+00  0.0000000000000000e+00 0.0000000000000000e+00 0.0000000000000000e+00  0.0000000000000000e+00 0.0000000000000000e+00 0.0000000000000000e+00  0.0000000000000000e+00 0.0000000000000000e+00 0.0000000000000000e+00  0.0000000000000000e+00 0.0000000000000000e+00 0.0000000000000000e+00  0.0000000000000000e+00 0.0000000000000000e+00 0.0000000000000000e+00  0.0000000000000000e+00 0.0000000000000000e+00 0.0000000000000000e+00  0.0000000000000000e+00 0.0000000000000000e+00 0.0000000000000000e+00  0.0000000000000000e+00 0.0000000000000000e+00 0.0000000000000000e+00  0.0000000000000000e+00 0.0000000000000000e+00 0.0000000000000000e+00  0.0000000000000000e+00 0.0000000000000000e+00 0.0000000000000000e+00  0.0000000000000000e+00 0.0000000000000000e+00 0.0000000000000000e+00  0.0000000000000000e+00 0.0000000000000000e+00 0.0000000000000000e+00  0.0000000000000000e+00 0.0000000000000000e+00 0.0000000000000000e+00  0.0000000000000000e+00 0.0000000000000000e+00 0.0000000000000000e+00  0.0000000000000000e+00 0.0000000000000000e+00 0.0000000000000000e+00  0.0000000000000000e+00 0.0000000000000000e+00 0.0000000000000000e+00  0.0000000000000000e+00 0.0000000000000000e+00 0.0000000000000000e+00  0.0000000000000000e+00 0.0000000000000000e+00 0.0000000000000000e+00  0.0000000000000000e+00 0.0000000000000000e+00 0.0000000000000000e+00  0.0000000000000000e+00 0.0000000000000000e+00 0.0000000000000000e+00  0.0000000000000000e+00 0.0000000000000000e+00 0.0000000000000000e+00  0.0000000000000000e+00 0.0000000000000000e+00 0.0000000000000000e+00  0.0000000000000000e+00 0.0000000000000000e+00 0.0000000000000000e+00  0.0000000000000000e+00 0.0000000000000000e+00 0.0000000000000000e+00  0.0000000000000000e+00 0.0000000000000000e+00 0.0000000000000000e+00  0.0000000000000000e+00 0.0000000000000000e+00 0.0000000000000000e+00  0.0000000000000000e+00 0.0000000000000000e+00 0.0000000000000000e+00  0.0000000000000000e+00 0.0000000000000000e+00 0.0000000000000000e+00  0.0000000000000000e+00 0.0000000000000000e+00 0.0000000000000000e+00  0.0000000000000000e+00 0.0000000000000000e+00 0.0000000000000000e+00  0.0000000000000000e+00 0.0000000000000000e+00 0.0000000000000000e+00  0.0000000000000000e+00 0.0000000000000000e+00 0.0000000000000000e+00  0.0000000000000000e+00 0.0000000000000000e+00 0.0000000000000000e+00  0.0000000000000000e+00 0.0000000000000000e+00 0.0000000000000000e+00  0.0000000000000000e+00 0.0000000000000000e+00 0.0000000000000000e+00  0.0000000000000000e+00 0.0000000000000000e+00 0.0000000000000000e+00  -9.5818166675519679e-08 -7.7297895473140781e-07 0.0000000000000000e+00  -1.7178862751123391e-07 -8.3238571721741285e-07 0.0000000000000000e+00  -2.0990050585504358e-07 -8.5122314440424615e-07 0.0000000000000000e+00  -2.2949311649784348e-07 -8.4823544066966372e-07 0.0000000000000000e+00  -2.4458521853152335e-07 -8.4910588157265409e-07 0.0000000000000000e+00  -2.6488434152883771e-07 -8.6141768589366403e-07 0.0000000000000000e+00  -2.9000097655823502e-07 -8.7695000651221845e-07 0.0000000000000000e+00  -3.2199328566792279e-07 -8.9863500021765557e-07 0.0000000000000000e+00  -3.5657008080806524e-07 -9.2554378554443920e-07 0.0000000000000000e+00  -3.9943582098621731e-07 -9.5668618663603191e-07 0.0000000000000000e+00  -4.4579514023597113e-07 -9.9636480050410351e-07 0.0000000000000000e+00  -5.0026489797045860e-07 -1.0393209259092854e-06 0.0000000000000000e+00  -5.5968818693178647e-07 -1.0896035221327195e-06 0.0000000000000000e+00  -6.2556148183793001e-07 -1.1460018654451402e-06 0.0000000000000000e+00  -6.9910685746217389e-07 -1.2082382592343074e-06 0.0000000000000000e+00  -7.7563387464340251e-07 -1.2780914737331112e-06 0.0000000000000000e+00  -8.6149123459584278e-07 -1.3509677502239174e-06 0.0000000000000000e+00  -9.5167317902900107e-07 -1.4343833677638728e-06 0.0000000000000000e+00  -1.0505456698847428e-06 -1.5196211018069579e-06 0.0000000000000000e+00  -1.1536165361088699e-06 -1.6150600510969472e-06 0.0000000000000000e+00  -1.2650810844876133e-06 -1.7126221742214344e-06 0.0000000000000000e+00  -1.3827644181369324e-06 -1.8184956320598131e-06 0.0000000000000000e+00  -1.5065726147378837e-06 -1.9297270662789030e-06 0.0000000000000000e+00  -1.6384223603677284e-06 -2.0459279023183238e-06 0.0000000000000000e+00  -1.7739160844594025e-06 -2.1695055169478136e-06 0.0000000000000000e+00  -1.9181363874236324e-06 -2.2950348505399044e-06 0.0000000000000000e+00  -2.0691756810499536e-06 -2.4309735688836514e-06 0.0000000000000000e+00  -2.2268981972590688e-06 -2.5672427147984610e-06 0.0000000000000000e+00  -2.3914835728619318e-06 -2.7126372804737788e-06 0.0000000000000000e+00  -2.5628548131982044e-06 -2.8594127872072232e-06 0.0000000000000000e+00  -2.7406950229795693e-06 -3.0142072633811399e-06 0.0000000000000000e+00  -2.9261078962352440e-06 -3.1699893501168760e-06 0.0000000000000000e+00  -3.1172719611040474e-06 -3.3340381231565830e-06 0.0000000000000000e+00  -3.3162929469944971e-06 -3.4972576482378592e-06 0.0000000000000000e+00  -3.5225541236776298e-06 -3.6692698716897934e-06 0.0000000000000000e+00  -3.7356080188550691e-06 -3.8406786806744763e-06 0.0000000000000000e+00  -3.9552919844274033e-06 -4.0193389316951782e-06 0.0000000000000000e+00  -4.1821637435585435e-06 -4.1972227300182115e-06 0.0000000000000000e+00  -4.4161536811927485e-06 -4.3814626598178286e-06 0.0000000000000000e+00  -4.6578707435378653e-06 -4.5646695598679224e-06 0.0000000000000000e+00  -4.9070719786922781e-06 -4.7523503587812296e-06 0.0000000000000000e+00  -5.1624319528594663e-06 -4.9401110925192366e-06 0.0000000000000000e+00  -5.4265149096381142e-06 -5.1305916910577313e-06 0.0000000000000000e+00  -5.6946117190108288e-06 -5.3214815659641646e-06 0.0000000000000000e+00  -5.9708091903750121e-06 -5.5115934935202611e-06 0.0000000000000000e+00  -6.2491389309382741e-06 -5.7089610446999478e-06 0.0000000000000000e+00  -6.6918320968684514e-06 -5.6932845305371169e-06 0.0000000000000000e+00  -6.9637018634238345e-06 -5.2132226450395956e-06 0.0000000000000000e+00  -6.7948642408513603e-06 -4.7890020552377289e-06 0.0000000000000000e+00  -6.5133799483774411e-06 -4.5781383158594458e-06 0.0000000000000000e+00  -6.2337324067813042e-06 -4.3643013336856888e-06 0.0000000000000000e+00  -5.9612783962488278e-06 -4.1536942436919566e-06 0.0000000000000000e+00  -5.6931362267091678e-06 -3.9444979329963689e-06 0.0000000000000000e+00  -5.4335367652507311e-06 -3.7373069228617608e-06 0.0000000000000000e+00  -5.1784650730019925e-06 -3.5323371017691939e-06 0.0000000000000000e+00  -4.9313957785023529e-06 -3.3282210515107664e-06 0.0000000000000000e+00  -4.6896251493842298e-06 -3.1292954451898706e-06 0.0000000000000000e+00  -4.4552802792060726e-06 -2.9298490477955622e-06 0.0000000000000000e+00  -4.2263359806308474e-06 -2.7366211597759347e-06 0.0000000000000000e+00  -4.0049547534096059e-06 -2.5437509401033800e-06 0.0000000000000000e+00  -3.7886221979483580e-06 -2.3577172862440659e-06 0.0000000000000000e+00  -3.5798717373207274e-06 -2.1723530840920727e-06 0.0000000000000000e+00  -3.3760301156300845e-06 -1.9943482108524293e-06 0.0000000000000000e+00  -3.1799307317259632e-06 -1.8174241983730162e-06 0.0000000000000000e+00  -2.9887108315338996e-06 -1.6480123013081942e-06 0.0000000000000000e+00  -2.8055888227204178e-06 -1.4801931129748767e-06 0.0000000000000000e+00  -2.6271262423528942e-06 -1.3206964888229985e-06 0.0000000000000000e+00  -2.4566333847077514e-06 -1.1630638554211664e-06 0.0000000000000000e+00  -2.2906209119838261e-06 -1.0138767749632039e-06 0.0000000000000000e+00  -2.1327638781870462e-06 -8.6701497377066479e-07 0.0000000000000000e+00  -1.9804218116341432e-06 -7.2743210586105072e-07 0.0000000000000000e+00  -1.8344523910489119e-06 -5.9282872566377777e-07 0.0000000000000000e+00  -1.6965963000721445e-06 -4.6448853489248905e-07 0.0000000000000000e+00  -1.5614896808362155e-06 -3.4217715236771135e-07 0.0000000000000000e+00  -1.4350037773682551e-06 -2.2384339202647089e-07 0.0000000000000000e+00  -1.3139255971321372e-06 -1.1557801163610284e-07 0.0000000000000000e+00  -1.2001110783525791e-06 -8.7430798937425771e-09 0.0000000000000000e+00  -1.0922370922251657e-06 8.7162201937661315e-08 0.0000000000000000e+00  -9.9131943268045345e-07 1.8147483260930712e-07 0.0000000000000000e+00  -8.9646733205079867e-07 2.6549009752476858e-07 0.0000000000000000e+00  -8.0750153116212268e-07 3.4613315621564347e-07 0.0000000000000000e+00  -7.2638763028224722e-07 4.1838080018109920e-07 0.0000000000000000e+00  -6.4841965486185713e-07 4.8590227490059028e-07 0.0000000000000000e+00  -5.7877633847113275e-07 5.4735512036143963e-07 0.0000000000000000e+00  -5.1492302640089363e-07 5.9987356324522683e-07 0.0000000000000000e+00  -4.5787331050397211e-07 6.4942131408606268e-07 0.0000000000000000e+00  -4.0687731254439071e-07 6.9078758007691119e-07 0.0000000000000000e+00  -3.6154685733074931e-07 7.2777688988652148e-07 0.0000000000000000e+00  -3.2382302785935963e-07 7.5860113204751771e-07 0.0000000000000000e+00  -2.8885997840559329e-07 7.8413264983157089e-07 0.0000000000000000e+00  -2.6242726242474888e-07 8.1126396865764762e-07 0.0000000000000000e+00  -2.3028199410547360e-07 8.3151683404984003e-07 0.0000000000000000e+00  -1.8451640457292940e-07 8.2301115368671365e-07 0.0000000000000000e+00  -1.0367788922913270e-07 7.6522318130318752e-07 0.0000000000000000e+00  -2.9192196699376655e-07 -6.3123175823100255e-09 0.0000000000000000e+00  -6.3919869125291126e-06 -5.1512412596886502e-06 0.0000000000000000e+00  -5.8489139257963359e-06 -4.7683807698301194e-06 0.0000000000000000e+00  -5.0341857957928993e-06 -4.1437614833016515e-06 0.0000000000000000e+00  -2.3881522564010762e-07 -1.1377288068160309e-08 0.0000000000000000e+00  -4.5578893571071465e-06 -3.7569416897510483e-06 0.0000000000000000e+00  -2.7915626118208234e-07 -2.5742242417248775e-08 0.0000000000000000e+00  -4.0960298943544067e-06 -3.3791387293103823e-06 0.0000000000000000e+00  -3.8999323081504118e-07 -1.0737390450704709e-07 0.0000000000000000e+00  -4.8749923518883728e-07 -1.9686274710700024e-07 0.0000000000000000e+00  -3.6610296706332584e-06 -3.0142758193717532e-06 0.0000000000000000e+00  -8.4741186396556036e-07 -4.9837126862881505e-07 0.0000000000000000e+00  -2.8709820369290357e-06 -2.3311807243129005e-06 0.0000000000000000e+00  -6.0580464394797777e-07 -2.8642835521189145e-07 0.0000000000000000e+00  -1.0292275200213017e-06 -6.7201638485163246e-07 0.0000000000000000e+00  -2.5156344284520632e-06 -2.0164536779372090e-06 0.0000000000000000e+00  -3.2527098854501256e-06 -2.6643094953854579e-06 0.0000000000000000e+00  -1.2409104783016349e-06 -8.6366684811758766e-07 0.0000000000000000e+00  -2.1866166249393957e-06 -1.7217490069756772e-06 0.0000000000000000e+00  -1.4698085949756688e-06 -1.0614731844049165e-06 0.0000000000000000e+00  -1.8869204142886998e-06 -1.4618459354304412e-06 0.0000000000000000e+00  -1.6643655897049318e-06 -1.2481948278114713e-06 0.0000000000000000e+00  -7.1437721411313917e-07 -3.9245422518299223e-07 0.0000000000000000e+00  -5.4563852721341386e-06 -4.4580461954470406e-06 0.0000000000000000e+00  -3.2716223137748263e-07 -6.9732462243661707e-08 0.0000000000000000e+00  -6.2092221592481766e-06 -4.7933028722559468e-06 0.0000000000000000e+00  -2.4695930782836578e-07 3.0950294025658548e-07 0.0000000000000000e+00  -4.3969766442122359e-06 -3.4100054583779453e-06 0.0000000000000000e+00  -4.8742795561599258e-06 -3.7984162782982042e-06 0.0000000000000000e+00  -2.5023155506458776e-07 -3.1411875108219299e-07 0.0000000000000000e+00  -4.1901444818224357e-07 -3.8191602426608518e-07 0.0000000000000000e+00  -3.1233640643933118e-06 -2.3234591366082419e-06 0.0000000000000000e+00  -3.9461239126176062e-06 -3.0331518292992043e-06 0.0000000000000000e+00  -9.0041161163082394e-07 -7.9652573902089948e-07 0.0000000000000000e+00  -2.7512450521686963e-06 -1.9941216810813481e-06 0.0000000000000000e+00  -5.2582681820302786e-07 -4.6965945324818241e-07 0.0000000000000000e+00  -1.0949495679558625e-06 -9.7118340213386260e-07 0.0000000000000000e+00  -2.4052933628617653e-06 -1.6841365339878708e-06 0.0000000000000000e+00  -3.5216655354197473e-06 -2.6703116864435309e-06 0.0000000000000000e+00  -1.3040682446752455e-06 -1.2133329675366292e-06 0.0000000000000000e+00  -2.0852161602479034e-06 -1.3948294529657608e-06 0.0000000000000000e+00  -2.3053691437207508e-07 -1.8457385701016318e-07 0.0000000000000000e+00  -2.2652723277480133e-07 1.6635835328475085e-07 0.0000000000000000e+00  -6.5591856372414782e-06 -5.