<?xml version="1.0"?>
<VTKFile type="UnstructuredGrid"  version="0.1"  >
<UnstructuredGrid>
<Piece  NumberOfPoints="1419" NumberOfCells="2698">
<Points>
<DataArray  type="Float64"  NumberOfComponents="3"  format="ascii">0 0 0  0 0.41 0  2.5 0 0  2.5 0.41 0  0.6 0.19 0  0.6 0.21 0  0.25 0.2 0  0.15 0.2 0  0.2489897948556636 0.21 0  0.2489897948556636 0.19 0  0.6 0.2 0  0 0.3807142857143437 0  0 0.3514285714286952 0  0 0.3221428571430699 0  0 0.29285714285744 0  0 0.2635714285718054 0  0 0.2342857142861561 0  0 0.2050000000005308 0  0 0.175714285714732 0  0 0.1464285714289574 0  0 0.1171428571431897 0  0 0.08785714285737878 0  0 0.05857142857161107 0  0 0.02928571428580012 0  0.03015443760436003 0 0  0.06140001986583606 0 0  0.09377624077125973 0 0  0.1273239957535082 0 0  0.1620856860351972 0 0  0.1981052433264291 0 0  0.235428184091502 0 0  0.2741016576309132 0 0  0.3141745521465447 0 0  0.3556974926295285 0 0  0.3987229542472677 0 0  0.4433053055141081 0 0  0.4895008759286886 0 0  0.5373680609405097 0 0  0.5869673343216626 0 0  0.6383613676634521 0 0  0.6916151138468254 0 0  0.7467958595648856 0 0  0.8039733463919316 0 0  0.8632198139502143 0 0  0.9246101326867038 0 0  0.9882218810934433 0 0  1.054135445558498 0 0  1.122434100542598 0 0  1.193204177141305 0 0  1.266535089879536 0 0  1.342519516046404 0 0  1.421253448503939 0 0  1.502836389106271 0 0  1.587371439758838 0 0  1.674965418777374 0 0  1.765729001825544 0 0  1.859776908880082 0 0  1.957227977487062 0 0  2.058205329869943 0 0  2.162836591189951 0 0  2.271253957290865 0 0  2.383594446803425 0 0  2.5 0.1024999999997612 0  2.5 0.2049999999994743 0  2.5 0.3074999999997183 0  2.383594446803656 0.41 0  2.271253957291315 0.41 0  2.162836591190598 0.41 0  2.058205329870775 0.41 0  1.957227977488067 0.41 0  1.859776908881246 0.41 0  1.765729001826854 0.41 0  1.674965418778818 0.41 0  1.58737143976041 0.41 0  1.502836389107956 0.41 0  1.421253448505726 0.41 0  1.342519516048286 0.41 0  1.266535089881505 0.41 0  1.193204177143353 0.41 0  1.122434100544716 0.41 0  1.05413544556068 0.41 0  0.9882218810956305 0.41 0  0.9246101326886647 0.41 0  0.8632198139519631 0.41 0  0.8039733463934788 0.41 0  0.7467958595662458 0.41 0  0.6916151138480078 0.41 0  0.6383613676644679 0.41 0  0.5869673343225223 0.41 0  0.5373680609412221 0.41 0  0.4895008759292634 0.41 0  0.4433053055145528 0.41 0  0.3987229542475914 0.41 0  0.3556974926297398 0.41 0  0.3141745521466497 0.41 0  0.2741016576310038 0.41 0  0.2354281840915826 0.41 0  0.1981052433265003 0.41 0  0.1620856860352591 0.41 0  0.1273239957535623 0.41 0  0.09377624077128965 0.41 0  0.06140001986584975 0.41 0  0.03015443760436654 0.41 0  0.2497468076502589 0.2050254481002335 0  0.2497468076502614 0.1949745518997913 0  0.2469965252529372 0.1829317073451959 0  0.2439893735792749 0.1762316384219906 0  0.2400332147834255 0.1700443375285386 0  0.2352133972704371 0.1645032867342007 0  0.2296339016332438 0.1597280261969788 0  0.2234150974217223 0.1558215752574715 0  0.2166911463437691 0.1528682099456123 0  0.2096071079204251 0.1509316448471593 0  0.2023158100364996 0.1500536585536553 0  0.194974551899914 0.1502531923497262 0  0.1877417105387872 0.1515259415822739 0  0.1807733240461124 0.153844448527136 0  0.1742197252835808 0.15715869474974 0  0.1682222986673531 0.1613971801805478 0  0.162910430003803 0.1664684656256651 0  0.1583987151779087 0.1722631454351573 0  0.1547844879126891 0.178656207771761 0  0.1521457199348551 0.1855097315605723 0  0.1505393388476355 0.1926758619366523 0  0.1505393388476328 0.2073241380633295 0  0.1521457199348437 0.2144902684393899 0  0.1547844879126531 0.221343792228163 0  0.1583987151778488 0.2277368545647528 0  0.1629104300036858 0.2335315343742052 0  0.1682222986671726 0.2386028198193036 0  0.1742197252833576 0.2428413052501257 0  0.1807733240458683 0.2461555514727623 0  0.1877417105384929 0.2484740584176516 0  0.1949745518995776 0.2497468076502398 0  0.202315810036185 0.2499463414463592 0  0.2096071079201568 0.2490683551528932 0  0.2166911463435495 0.2471317900544655 0  0.2234150974215506 0.2441784247426195 0  0.2296339016331197 0.2402719738031125 0  0.2352133972703547 0.2354967132658811 0  0.2400332147833751 0.2299556624715287 0  0.2439893735792577 0.2237683615780412 0  0.246996525252926 0.2170682926548348 0  0.25645809709277 0.21 0  0.2639263993298655 0.21 0  0.271394701566961 0.21 0  0.2788630038040554 0.21 0  0.2863313060411479 0.21 0  0.2937996082782405 0.21 0  0.301267910515333 0.21 0  0.3087362127524279 0.21 0  0.3162045149895234 0.21 0  0.3236728172265972 0.21 0  0.3311411194636928 0.21 0  0.3386094217007701 0.21 0  0.3460777239378666 0.21 0  0.3535460261749672 0.21 0  0.3610143284120516 0.21 0  0.3684826306491596 0.21 0  0.3759509328862226 0.21 0  0.383419235123329 0.21 0  0.3908875373604028 0.21 0  0.3983558395975142 0.21 0  0.4058241418345938 0.21 0  0.4132924440716992 0.21 0  0.4207607463087888 0.21 0  0.4282290485459029 0.21 0  0.4356973507830418 0.21 0  0.4431656530201649 0.21 0  0.4506339552573136 0.21 0  0.4581022574944306 0.21 0  0.4655705597315852 0.21 0  0.4730388619686996 0.21 0  0.480507164205851 0.21 0  0.4879754664429498 0.21 0  0.4954437686800938 0.21 0  0.502912070917267 0.21 0  0.5103803731544119 0.21 0  0.5178486753915261 0.21 0  0.5253169776286404 0.21 0  0.5327852798657868 0.21 0  0.5402535821029386 0.21 0  0.54772188434007 0.21 0  0.5551901865771842 0.21 0  0.5626584888143201 0.21 0  0.5701267910514778 0.21 0  0.5775950932886138 0.21 0  0.5850633955257281 0.21 0  0.5925316977628483 0.21 0  0.6 0.2050000000000054 0  0.6 0.1950000000000217 0  0.5925316977628897 0.19 0  0.5850633955257988 0.19 0  0.5775950932887378 0.19 0  0.5701267910515998 0.19 0  0.5626584888145268 0.19 0  0.5551901865773963 0.19 0  0.547721884340339 0.19 0  0.5402535821032429 0.19 0  0.5327852798661811 0.19 0  0.5253169776290537 0.19 0  0.5178486753919799 0.19 0  0.5103803731549078 0.19 0  0.502912070917822 0.19 0  0.4954437686807294 0.19 0  0.4879754664436223 0.19 0  0.4805071642065402 0.19 0  0.4730388619694271 0.19 0  0.4655705597323621 0.19 0  0.4581022574952563 0.19 0  0.4506339552581777 0.19 0  0.4431656530210671 0.19 0  0.4356973507839815 0.19 0  0.4282290485468779 0.19 0  0.4207607463097617 0.19 0  0.4132924440726327 0.19 0  0.4058241418354857 0.19 0  0.3983558395983636 0.19 0  0.3908875373612097 0.19 0  0.3834192351240934 0.19 0  0.3759509328869369 0.19 0  0.3684826306498175 0.19 0  0.361014328412667 0.19 0  0.3535460261755617 0.19 0  0.3460777239384295 0.19 0  0.3386094217012945 0.19 0  0.3311411194641595 0.19 0  0.3236728172270245 0.19 0  0.3162045149898895 0.19 0  0.3087362127527544 0.19 0  0.3012679105156187 0.19 0  0.2937996082784807 0.19 0  0.2863313060413428 0.19 0  0.2788630038042048 0.19 0  0.2713947015670686 0.19 0  0.2639263993299336 0.19 0  0.2564580970927985 0.19 0  0.2607803159922026 0.2000727136295815 0  0.5887803774232762 0.2001272386983733 0  0.5745072403740523 0.2002044435018727 0  0.5511891430099709 0.2001122610077113 0  0.2751288526855082 0.20000000000002 0  0.5365194309847112 0.1999999999999436 0  0.2894621222999649 0.1998691686390484 0  0.5215828265105155 0.1999999999999228 0  0.3127789816668748 0.1998657885438805 0  0.3274069683451451 0.2000000000000796 0  0.5066462220363641 0.199999999999908 0  0.3650630746574081 0.199866017807523 0  0.476773013087985 0.1999999999998713 0  0.3417402379596385 0.1998691686391011 0  0.3796850840047755 0.200000000000134 0  0.4618364086138087 0.1999999999998546 0  0.4917096175621762 0.1999999999998808 0  0.3946216884789568 0.2000000000001512 0  0.446899804139621 0.1999999999998389 0  0.4089549580935208 0.1998691686391595 0  0.4322718174608562 0.200127451265745 0  0.4201487168029707 0.1999966199048527 0  0.3528922713220932 0.2000185703532356 0  0.5633122436674589 0.1999814296467508 0  0.3006558810093873 0.1999966199048318 0  0.5815926498168407 0.1966545283159175 0  0.2677053789419034 0.1964246479135325 0  0.5290511287476175 0.1970915826863981 0  0.5439877332217911 0.197091582686394 0  0.2825131256993216 0.2035478995978015 0  0.3199386661080599 0.202908417313604 0  0.4842413153250809 0.1970915826863873 0  0.5141145242734466 0.1970915826863843 0  0.3722167817676917 0.2029084173136195 0  0.4693047108508938 0.1970915826863783 0  0.3348752705822316 0.202908417313609 0  0.3871533862418661 0.2029084173136212 0  0.4543681063767183 0.1970915826863795 0  0.4991779197992749 0.1970915826863902 0  0.4020059614928624 0.203547899597858 0  0.4394315019025246 0.1970915826863714 0  0.2550657455369551 0.2034088125358657 0  0.2548908499171161 0.1966940311614271 0  0.5946539510196798 0.2024302972968126 0  0.267698176732111 0.2039977513680092 0  0.4261685417851465 0.196409292431739 0  0.3590076176283495 0.196411355804271 0  0.5571672426447437 0.2036011176410121 0  0.3066757059912147 0.1964092924317024 0  0.594380730180568 0.1966558399668133 0  0.4842413153245942 0.2040749161535287 0  0.4693047108503577 0.2040749161535231 0  0.3871533862424271 0.1959250838464788 0  0.372246743208829 0.1959123236376545 0  0.5141145242731028 0.2040749161535395 0  0.4543681063761134 0.2040749161535186 0  0.4019979587101454 0.1959834479682427 0  0.4394608940728603 0.2040870543693135 0  0.5439623148931173 0.2040856076781014 0  0.5290511287473298 0.2040749161535501 0  0.4991779197988497 0.2040749161535382 0  0.3347912413592433 0.1959225448935183 0  0.3199680582793816 0.1959123018030061 0  0.2825051229162361 0.1959834479681729 0  0.3590471196690275 0.2036304442587945 0  0.5571594006495384 0.1963685282145804 0  0.3067669986803285 0.203627750582736 0  0.4262598344738712 0.2036568242185335 0  0.5814408164431408 0.2041285596160068 0  0.5688286748170428 0.1961819304477386 0  0.4145905603063645 0.2038180695522843 0  0.3473758401724931 0.2038180695522752 0  0.2950977245128307 0.2038180695522663 0  0.5688286748170693 0.203818069552238 0  0.2950977245127906 0.1961819304477774 0  0.3473758401723931 0.1961819304478349 0  0.4145905603061963 0.1961819304479011 0  0.2601812407614425 0.2056861609747042
[...]
<PointData  Vectors="f_40-1"> 
<DataArray  type="Float64"  Name="f_40-1"  NumberOfComponents="3" format="ascii">0.0000000000000000e+00 0.0000000000000000e+00 0.0000000000000000e+00  0.0000000000000000e+00 0.0000000000000000e+00 0.0000000000000000e+00  0.0000000000000000e+00 0.0000000000000000e+00 0.0000000000000000e+00  0.0000000000000000e+00 0.0000000000000000e+00 0.0000000000000000e+00  -7.3136536556747067e-06 -5.8719193638930197e-06 0.0000000000000000e+00  -6.6875378138997664e-06 -6.8984184488517915e-06 0.0000000000000000e+00  0.0000000000000000e+00 0.0000000000000000e+00 0.0000000000000000e+00  0.0000000000000000e+00 0.0000000000000000e+00 0.0000000000000000e+00  0.0000000000000000e+00 0.0000000000000000e+00 0.0000000000000000e+00  0.0000000000000000e+00 0.0000000000000000e+00 0.0000000000000000e+00  -7.0475582888062656e-06 -6.3853082896616712e-06 0.0000000000000000e+00  0.0000000000000000e+00 0.0000000000000000e+00 0.0000000000000000e+00  0.0000000000000000e+00 0.0000000000000000e+00 0.0000000000000000e+00  0.0000000000000000e+00 0.0000000000000000e+00 0.0000000000000000e+00  0.0000000000000000e+00 0.0000000000000000e+00 0.0000000000000000e+00  0.0000000000000000e+00 0.0000000000000000e+00 0.0000000000000000e+00  0.0000000000000000e+00 0.0000000000000000e+00 0.0000000000000000e+00  0.0000000000000000e+00 0.0000000000000000e+00 0.0000000000000000e+00  0.0000000000000000e+00 0.0000000000000000e+00 0.0000000000000000e+00  0.0000000000000000e+00 0.0000000000000000e+00 0.0000000000000000e+00  0.0000000000000000e+00 0.0000000000000000e+00 0.0000000000000000e+00  0.0000000000000000e+00 0.0000000000000000e+00 0.0000000000000000e+00  0.0000000000000000e+00 0.0000000000000000e+00 0.0000000000000000e+00  0.0000000000000000e+00 0.0000000000000000e+00 0.0000000000000000e+00  0.0000000000000000e+00 0.0000000000000000e+00 0.0000000000000000e+00  0.0000000000000000e+00 0.0000000000000000e+00 0.0000000000000000e+00  0.0000000000000000e+00 0.0000000000000000e+00 0.0000000000000000e+00  0.0000000000000000e+00 0.0000000000000000e+00 0.0000000000000000e+00  0.0000000000000000e+00 0.0000000000000000e+00 0.0000000000000000e+00  0.0000000000000000e+00 0.0000000000000000e+00 0.0000000000000000e+00  0.0000000000000000e+00 0.0000000000000000e+00 0.0000000000000000e+00  0.0000000000000000e+00 0.0000000000000000e+00 0.0000000000000000e+00  0.0000000000000000e+00 0.0000000000000000e+00 0.0000000000000000e+00  0.0000000000000000e+00 0.0000000000000000e+00 0.0000000000000000e+00  0.0000000000000000e+00 0.0000000000000000e+00 0.0000000000000000e+00  0.0000000000000000e+00 0.0000000000000000e+00 0.0000000000000000e+00  0.0000000000000000e+00 0.0000000000000000e+00 0.0000000000000000e+00  0.0000000000000000e+00 0.0000000000000000e+00 0.0000000000000000e+00  0.0000000000000000e+00 0.0000000000000000e+00 0.0000000000000000e+00  0.0000000000000000e+00 0.0000000000000000e+00 0.0000000000000000e+00  0.0000000000000000e+00 0.0000000000000000e+00 0.0000000000000000e+00  0.0000000000000000e+00 0.0000000000000000e+00 0.0000000000000000e+00  0.0000000000000000e+00 0.0000000000000000e+00 0.0000000000000000e+00  0.0000000000000000e+00 0.0000000000000000e+00 0.0000000000000000e+00  0.0000000000000000e+00 0.0000000000000000e+00 0.0000000000000000e+00  0.0000000000000000e+00 0.0000000000000000e+00 0.0000000000000000e+00  0.0000000000000000e+00 0.0000000000000000e+00 0.0000000000000000e+00  0.0000000000000000e+00 0.0000000000000000e+00 0.0000000000000000e+00  0.0000000000000000e+00 0.0000000000000000e+00 0.0000000000000000e+00  0.0000000000000000e+00 0.0000000000000000e+00 0.0000000000000000e+00  0.0000000000000000e+00 0.0000000000000000e+00 0.0000000000000000e+00  0.0000000000000000e+00 0.0000000000000000e+00 0.0000000000000000e+00  0.0000000000000000e+00 0.0000000000000000e+00 0.0000000000000000e+00  0.0000000000000000e+00 0.0000000000000000e+00 0.0000000000000000e+00  0.0000000000000000e+00 0.0000000000000000e+00 0.0000000000000000e+00  0.0000000000000000e+00 0.0000000000000000e+00 0.0000000000000000e+00  0.0000000000000000e+00 0.0000000000000000e+00 0.0000000000000000e+00  0.0000000000000000e+00 0.0000000000000000e+00 0.0000000000000000e+00  0.0000000000000000e+00 0.0000000000000000e+00 0.0000000000000000e+00  0.0000000000000000e+00 0.0000000000000000e+00 0.0000000000000000e+00  0.0000000000000000e+00 0.0000000000000000e+00 0.0000000000000000e+00  0.0000000000000000e+00 0.0000000000000000e+00 0.0000000000000000e+00  0.0000000000000000e+00 0.0000000000000000e+00 0.0000000000000000e+00  0.0000000000000000e+00 0.0000000000000000e+00 0.0000000000000000e+00  0.0000000000000000e+00 0.0000000000000000e+00 0.0000000000000000e+00  0.0000000000000000e+00 0.0000000000000000e+00 0.0000000000000000e+00  0.0000000000000000e+00 0.0000000000000000e+00 0.0000000000000000e+00  0.0000000000000000e+00 0.0000000000000000e+00 0.0000000000000000e+00  0.0000000000000000e+00 0.0000000000000000e+00 0.0000000000000000e+00  0.0000000000000000e+00 0.0000000000000000e+00 0.0000000000000000e+00  0.0000000000000000e+00 0.0000000000000000e+00 0.0000000000000000e+00  0.0000000000000000e+00 0.0000000000000000e+00 0.0000000000000000e+00  0.0000000000000000e+00 0.0000000000000000e+00 0.0000000000000000e+00  0.0000000000000000e+00 0.0000000000000000e+00 0.0000000000000000e+00  0.0000000000000000e+00 0.0000000000000000e+00 0.0000000000000000e+00  0.0000000000000000e+00 0.0000000000000000e+00 0.0000000000000000e+00  0.0000000000000000e+00 0.0000000000000000e+00 0.0000000000000000e+00  0.0000000000000000e+00 0.0000000000000000e+00 0.0000000000000000e+00  0.0000000000000000e+00 0.0000000000000000e+00 0.0000000000000000e+00  0.0000000000000000e+00 0.0000000000000000e+00 0.0000000000000000e+00  0.0000000000000000e+00 0.0000000000000000e+00 0.0000000000000000e+00  0.0000000000000000e+00 0.0000000000000000e+00 0.0000000000000000e+00  0.0000000000000000e+00 0.0000000000000000e+00 0.0000000000000000e+00  0.0000000000000000e+00 0.0000000000000000e+00 0.0000000000000000e+00  0.0000000000000000e+00 0.0000000000000000e+00 0.0000000000000000e+00  0.0000000000000000e+00 0.0000000000000000e+00 0.0000000000000000e+00  0.0000000000000000e+00 0.0000000000000000e+00 0.0000000000000000e+00  0.0000000000000000e+00 0.0000000000000000e+00 0.0000000000000000e+00  0.0000000000000000e+00 0.0000000000000000e+00 0.0000000000000000e+00  0.0000000000000000e+00 0.0000000000000000e+00 0.0000000000000000e+00  0.0000000000000000e+00 0.0000000000000000e+00 0.0000000000000000e+00  0.0000000000000000e+00 0.0000000000000000e+00 0.0000000000000000e+00  0.0000000000000000e+00 0.0000000000000000e+00 0.0000000000000000e+00  0.0000000000000000e+00 0.0000000000000000e+00 0.0000000000000000e+00  0.0000000000000000e+00 0.0000000000000000e+00 0.0000000000000000e+00  0.0000000000000000e+00 0.0000000000000000e+00 0.0000000000000000e+00  0.0000000000000000e+00 0.0000000000000000e+00 0.0000000000000000e+00  0.0000000000000000e+00 0.0000000000000000e+00 0.0000000000000000e+00  0.0000000000000000e+00 0.0000000000000000e+00 0.0000000000000000e+00  0.0000000000000000e+00 0.0000000000000000e+00 0.0000000000000000e+00  0.0000000000000000e+00 0.0000000000000000e+00 0.0000000000000000e+00  0.0000000000000000e+00 0.0000000000000000e+00 0.0000000000000000e+00  0.0000000000000000e+00 0.0000000000000000e+00 0.0000000000000000e+00  0.0000000000000000e+00 0.0000000000000000e+00 0.0000000000000000e+00  0.0000000000000000e+00 0.0000000000000000e+00 0.0000000000000000e+00  0.0000000000000000e+00 0.0000000000000000e+00 0.0000000000000000e+00  0.0000000000000000e+00 0.0000000000000000e+00 0.0000000000000000e+00  0.0000000000000000e+00 0.0000000000000000e+00 0.0000000000000000e+00  0.0000000000000000e+00 0.0000000000000000e+00 0.0000000000000000e+00  0.0000000000000000e+00 0.0000000000000000e+00 0.0000000000000000e+00  0.0000000000000000e+00 0.0000000000000000e+00 0.0000000000000000e+00  0.0000000000000000e+00 0.0000000000000000e+00 0.0000000000000000e+00  0.0000000000000000e+00 0.0000000000000000e+00 0.0000000000000000e+00  0.0000000000000000e+00 0.0000000000000000e+00 0.0000000000000000e+00  0.0000000000000000e+00 0.0000000000000000e+00 0.0000000000000000e+00  0.0000000000000000e+00 0.0000000000000000e+00 0.0000000000000000e+00  0.0000000000000000e+00 0.0000000000000000e+00 0.0000000000000000e+00  0.0000000000000000e+00 0.0000000000000000e+00 0.0000000000000000e+00  0.0000000000000000e+00 0.0000000000000000e+00 0.0000000000000000e+00  0.0000000000000000e+00 0.0000000000000000e+00 0.0000000000000000e+00  0.0000000000000000e+00 0.0000000000000000e+00 0.0000000000000000e+00  0.0000000000000000e+00 0.0000000000000000e+00 0.0000000000000000e+00  0.0000000000000000e+00 0.0000000000000000e+00 0.0000000000000000e+00  0.0000000000000000e+00 0.0000000000000000e+00 0.0000000000000000e+00  0.0000000000000000e+00 0.0000000000000000e+00 0.0000000000000000e+00  0.0000000000000000e+00 0.0000000000000000e+00 0.0000000000000000e+00  0.0000000000000000e+00 0.0000000000000000e+00 0.0000000000000000e+00  0.0000000000000000e+00 0.0000000000000000e+00 0.0000000000000000e+00  0.0000000000000000e+00 0.0000000000000000e+00 0.0000000000000000e+00  0.0000000000000000e+00 0.0000000000000000e+00 0.0000000000000000e+00  0.0000000000000000e+00 0.0000000000000000e+00 0.0000000000000000e+00  0.0000000000000000e+00 0.0000000000000000e+00 0.0000000000000000e+00  0.0000000000000000e+00 0.0000000000000000e+00 0.0000000000000000e+00  0.0000000000000000e+00 0.0000000000000000e+00 0.0000000000000000e+00  0.0000000000000000e+00 0.0000000000000000e+00 0.0000000000000000e+00  0.0000000000000000e+00 0.0000000000000000e+00 0.0000000000000000e+00  0.0000000000000000e+00 0.0000000000000000e+00 0.0000000000000000e+00  0.0000000000000000e+00 0.0000000000000000e+00 0.0000000000000000e+00  0.0000000000000000e+00 0.0000000000000000e+00 0.0000000000000000e+00  0.0000000000000000e+00 0.0000000000000000e+00 0.0000000000000000e+00  0.0000000000000000e+00 0.0000000000000000e+00 0.0000000000000000e+00  0.0000000000000000e+00 0.0000000000000000e+00 0.0000000000000000e+00  0.0000000000000000e+00 0.0000000000000000e+00 0.0000000000000000e+00  -9.4070518497274231e-08 -8.2684323845010124e-07 0.0000000000000000e+00  -1.6644518880602962e-07 -8.9220145001276783e-07 0.0000000000000000e+00  -1.9851809303308987e-07 -9.1529512727956084e-07 0.0000000000000000e+00  -2.1076823485580691e-07 -9.1632283351848639e-07 0.0000000000000000e+00  -2.1858263386293992e-07 -9.2237201048297973e-07 0.0000000000000000e+00  -2.3189874765540515e-07 -9.4170545045787805e-07 0.0000000000000000e+00  -2.5073169951924548e-07 -9.6520237644751295e-07 0.0000000000000000e+00  -2.7705217984361594e-07 -9.9621095802101810e-07 0.0000000000000000e+00  -3.0607794031749277e-07 -1.0335048461761627e-06 0.0000000000000000e+00  -3.4436763295023538e-07 -1.0759692808944311e-06 0.0000000000000000e+00  -3.8631714186421844e-07 -1.1282768059097959e-06 0.0000000000000000e+00  -4.3730115880532938e-07 -1.1845901445922210e-06 0.0000000000000000e+00  -4.9357839405073706e-07 -1.2493138119151448e-06 0.0000000000000000e+00  -5.5700996584779196e-07 -1.3209781118636736e-06 0.0000000000000000e+00  -6.2876908875685974e-07 -1.3993499485636589e-06 0.0000000000000000e+00  -7.0373939915138302e-07 -1.4862325702628524e-06 0.0000000000000000e+00  -7.8895291360852876e-07 -1.5766231466012074e-06 0.0000000000000000e+00  -8.7881765526771370e-07 -1.6786596531388056e-06 0.0000000000000000e+00  -9.7820270818860638e-07 -1.7828130186017764e-06 0.0000000000000000e+00  -1.0821184579758678e-06 -1.8981726068007399e-06 0.0000000000000000e+00  -1.1951949327270389e-06 -2.0159190554063368e-06 0.0000000000000000e+00  -1.3150138140349613e-06 -2.1427785041723369e-06 0.0000000000000000e+00  -1.4415180443742809e-06 -2.2754779253116263e-06 0.0000000000000000e+00  -1.5767192781988676e-06 -2.4136119681152874e-06 0.0000000000000000e+00  -1.7158940999511568e-06 -2.5597452334714241e-06 0.0000000000000000e+00  -1.8645406594244722e-06 -2.7079962276886654e-06 0.0000000000000000e+00  -2.0205902531157800e-06 -2.8675100779732113e-06 0.0000000000000000e+00  -2.1838909600147420e-06 -3.0273471751651997e-06 0.0000000000000000e+00  -2.3546344553882706e-06 -3.1970381757175031e-06 0.0000000000000000e+00  -2.5327359271839318e-06 -3.3681575143953827e-06 0.0000000000000000e+00  -2.7178522868653761e-06 -3.5479185496710413e-06 0.0000000000000000e+00  -2.9111632032486806e-06 -3.7286635232932275e-06 0.0000000000000000e+00  -3.1107194164543830e-06 -3.9182992495640066e-06 0.0000000000000000e+00  -3.3187740293386908e-06 -4.1069742958080502e-06 0.0000000000000000e+00  -3.5346627211890806e-06 -4.3051018762860313e-06 0.0000000000000000e+00  -3.7579038566539870e-06 -4.5024976434231282e-06 0.0000000000000000e+00  -3.9883235021919270e-06 -4.7076875176366276e-06 0.0000000000000000e+00  -4.2265199370821884e-06 -4.9119710610897411e-06 0.0000000000000000e+00  -4.4724187845653031e-06 -5.1231023341873581e-06 0.0000000000000000e+00  -4.7266738032178009e-06 -5.3330580675967494e-06 0.0000000000000000e+00  -4.9890363395631480e-06 -5.5478245392392290e-06 0.0000000000000000e+00  -5.2580633184469020e-06 -5.7626507705859120e-06 0.0000000000000000e+00  -5.5365044913535869e-06 -5.9803962287707888e-06 0.0000000000000000e+00  -5.8192941356155159e-06 -6.1985660961029171e-06 0.0000000000000000e+00  -6.1108556920683488e-06 -6.4158582295989758e-06 0.0000000000000000e+00  -6.4046246730453024e-06 -6.6410942118556990e-06 0.0000000000000000e+00  -6.8844748112024994e-06 -6.6406289999244232e-06 0.0000000000000000e+00  -7.1941579408913726e-06 -6.1301126684048781e-06 0.0000000000000000e+00  -7.0261792282066991e-06 -5.6644029761759949e-06 0.0000000000000000e+00  -6.7289789426373088e-06 -5.4247196773031006e-06 0.0000000000000000e+00  -6.4336875973012910e-06 -5.1817678270979741e-06 0.0000000000000000e+00  -6.1462105976343963e-06 -4.9423417230486662e-06 0.0000000000000000e+00  -5.8634099134393470e-06 -4.7044364453939450e-06 0.0000000000000000e+00  -5.5898534040844208e-06 -4.4686783618749213e-06 0.0000000000000000e+00  -5.3212261291837428e-06 -4.2353150100086388e-06 0.0000000000000000e+00  -5.0612710731897309e-06 -4.0028111459640642e-06 0.0000000000000000e+00  -4.8070825953416869e-06 -3.7759193566402917e-06 0.0000000000000000e+00  -4.5609289589824321e-06 -3.5483859243992422e-06 0.0000000000000000e+00  -4.3206474920195966e-06 -3.3275604482945394e-06 0.0000000000000000e+00  -4.0885389250149454e-06 -3.1070251230630237e-06 0.0000000000000000e+00  -3.8619250110429281e-06 -2.8938518564338289e-06 0.0000000000000000e+00  -3.6434993469173679e-06 -2.6813098206898449e-06 0.0000000000000000e+00  -3.4304115485812816e-06 -2.4766951662252773e-06 0.0000000000000000e+00  -3.2256815217669935e-06 -2.2731601733052126e-06 0.0000000000000000e+00  -3.0262450781035936e-06 -2.0777218633519035e-06 0.0000000000000000e+00  -2.8355430834710709e-06 -1.8839195374966102e-06 0.0000000000000000e+00  -2.6498906505730618e-06 -1.6990987149913040e-06 0.0000000000000000e+00  -2.4728385271766970e-06 -1.5162377874555364e-06 0.0000000000000000e+00  -2.3006276004578275e-06 -1.3425159769082707e-06 0.0000000000000000e+00  -2.1372232817971454e-06 -1.1712792432170711e-06 0.0000000000000000e+00  -1.9797608901973899e-06 -1.0079498536789158e-06 0.0000000000000000e+00  -1.8291822395450168e-06 -8.5001281507336599e-07 0.0000000000000000e+00  -1.6873356000049237e-06 -6.9891401794737873e-07 0.0000000000000000e+00  -1.5484300989023728e-06 -5.5438583846968921e-07 0.0000000000000000e+00  -1.4188339225792493e-06 -4.1426177199541176e-07 0.0000000000000000e+00  -1.2950467781091414e-06 -2.8513963068424894e-07 0.0000000000000000e+00  -1.1790898628220672e-06 -1.5772809096703052e-07 0.0000000000000000e+00  -1.0694945878768240e-06 -4.2295971681221243e-08 0.0000000000000000e+00  -9.6740504516926665e-07 7.1200885421421797e-08 0.0000000000000000e+00  -8.7177027324426102e-07 1.7327881400517305e-07 0.0000000000000000e+00  -7.8252995882311503e-07 2.7145656083873233e-07 0.0000000000000000e+00  -7.0170511880289155e-07 3.6015247470881123e-07 0.0000000000000000e+00  -6.2413973264731180e-07 4.4342365810786601e-07 0.0000000000000000e+00  -5.5556925630763569e-07 5.1964801238024163e-07 0.0000000000000000e+00  -4.9314393164689092e-07 5.8573073936369273e-07 0.0000000000000000e+00  -4.3806000540463967e-07 6.4804954500150616e-07 0.0000000000000000e+00  -3.8931605227072387e-07 7.0083519328237135e-07 0.0000000000000000e+00  -3.4678961128715927e-07 7.4831934025592323e-07 0.0000000000000000e+00  -3.1239578207659969e-07 7.8825303495826460e-07 0.0000000000000000e+00  -2.8071745696674567e-07 8.2181169832253775e-07 0.0000000000000000e+00  -2.5829662820956625e-07 8.5605195571043442e-07 0.0000000000000000e+00  -2.2957881147808900e-07 8.8186880686111519e-07 0.0000000000000000e+00  -1.8647050123264514e-07 8.7588296548067721e-07 0.0000000000000000e+00  -1.0551667142085256e-07 8.1604739920721856e-07 0.0000000000000000e+00  -3.0107255545250394e-07 -8.1091548893639609e-09 0.0000000000000000e+00  -6.5785927416940857e-06 -6.0410384231129226e-06 0.0000000000000000e+00  -6.0046561764794475e-06 -5.6045663366924515e-06 0.0000000000000000e+00  -5.1460748878609766e-06 -4.8925765998494706e-06 0.0000000000000000e+00  -2.3061113996614291e-07 -1.9606456855754551e-08 0.0000000000000000e+00  -4.6453064180394739e-06 -4.4512037494128555e-06 0.0000000000000000e+00  -2.6021867669822355e-07 -4.4941805164984244e-08 0.0000000000000000e+00  -4.1602660113491134e-06 -4.0188880487605268e-06 0.0000000000000000e+00  -3.5711932905499225e-07 -1.5544673855250663e-07 0.0000000000000000e+00  -4.4799767502358571e-07 -2.6933861301237150e-07 0.0000000000000000e+00  -3.7043135397481829e-06 -3.6003376909950361e-06 0.0000000000000000e+00  -8.0030274136197379e-07 -6.4826700048381700e-07 0.0000000000000000e+00  -2.8789757716942805e-06 -2.8129032373391084e-06 0.0000000000000000e+00  -5.6197599821862338e-07 -3.8520759369741622e-07 0.0000000000000000e+00  -9.8233825256226932e-07 -8.5856666630025594e-07 0.0000000000000000e+00  -2.5092577289621445e-06 -2.4478337340795799e-06 0.0000000000000000e+00  -3.2772497720762908e-06 -3.1976419763200115e-06 0.0000000000000000e+00  -1.1965714342477745e-06 -1.0897339646566393e-06 0.0000000000000000e+00  -2.1680402890885215e-06 -2.1042602609926550e-06 0.0000000000000000e+00  -1.4302381411887260e-06 -1.3272250004906265e-06 0.0000000000000000e+00  -1.8580347015551827e-06 -1.7986546356784362e-06 0.0000000000000000e+00  -1.6294746261402529e-06 -1.5475589538520324e-06 0.0000000000000000e+00  -6.6821767321531542e-07 -5.1553516978074952e-07 0.0000000000000000e+00  -5.5912520915554699e-06 -5.2516178144365407e-06 0.0000000000000000e+00  -3.0101443379286917e-07 -1.0225012815996410e-07 0.0000000000000000e+00  -6.3931386967166750e-06 -5.6458854155576117e-06 0.0000000000000000e+00  -2.4781736511859766e-07 3.2663830528938236e-07 0.0000000000000000e+00  -4.4831196446716582e-06 -4.0669076358827835e-06 0.0000000000000000e+00  -4.9848475971137581e-06 -4.5105758835787009e-06 0.0000000000000000e+00  -2.3339497248009413e-07 -3.4773150519153322e-07 0.0000000000000000e+00  -3.7792003617184584e-07 -4.5726984157999075e-07 0.0000000000000000e+00  -3.1493888474399673e-06 -2.8196486467098845e-06 0.0000000000000000e+00  -4.0100439863430007e-06 -3.6355380159342453e-06 0.0000000000000000e+00  -8.4590419167451275e-07 -9.7850569489572394e-07 0.0000000000000000e+00  -2.7615587970019354e-06 -2.4389191354926806e-06 0.0000000000000000e+00  -4.7830298635346068e-07 -5.7089134891179313e-07 0.0000000000000000e+00  -1.0414355231946404e-06 -1.1909701926283210e-06 0.0000000000000000e+00  -2.4020410349868298e-06 -2.0789175649540660e-06 0.0000000000000000e+00  -3.5655549627299231e-06 -3.2190745758234579e-06 0.0000000000000000e+00  -1.2518312348975337e-06 -1.4762722788093376e-06 0.0000000000000000e+00  -2.0705120871025768e-06 -1.7411732146342375e-06 0.0000000000000000e+00  -2.4083406870646482e-07 -1.9752108981814054e-07 0.0000000000000000e+00  -2.3722856017792544e-07 1.7748159980051213e-07 0.0000000000000000e+00  -6.7502713869494881e-06 -6