<?xml version="1.0"?>
<VTKFile type="UnstructuredGrid"  version="0.1"  >
<UnstructuredGrid>
<Piece  NumberOfPoints="1419" NumberOfCells="2698">
<Points>
<DataArray  type="Float64"  NumberOfComponents="3"  format="ascii">0 0 0  0 0.41 0  2.5 0 0  2.5 0.41 0  0.6 0.19 0  0.6 0.21 0  0.25 0.2 0  0.15 0.2 0  0.2489897948556636 0.21 0  0.2489897948556636 0.19 0  0.6 0.2 0  0 0.3807142857143437 0  0 0.3514285714286952 0  0 0.3221428571430699 0  0 0.29285714285744 0  0 0.2635714285718054 0  0 0.2342857142861561 0  0 0.2050000000005308 0  0 0.175714285714732 0  0 0.1464285714289574 0  0 0.1171428571431897 0  0 0.08785714285737878 0  0 0.05857142857161107 0  0 0.02928571428580012 0  0.03015443760436003 0 0  0.06140001986583606 0 0  0.09377624077125973 0 0  0.1273239957535082 0 0  0.1620856860351972 0 0  0.1981052433264291 0 0  0.235428184091502 0 0  0.2741016576309132 0 0  0.3141745521465447 0 0  0.3556974926295285 0 0  0.3987229542472677 0 0  0.4433053055141081 0 0  0.4895008759286886 0 0  0.5373680609405097 0 0  0.5869673343216626 0 0  0.6383613676634521 0 0  0.6916151138468254 0 0  0.7467958595648856 0 0  0.8039733463919316 0 0  0.8632198139502143 0 0  0.9246101326867038 0 0  0.9882218810934433 0 0  1.054135445558498 0 0  1.122434100542598 0 0  1.193204177141305 0 0  1.266535089879536 0 0  1.342519516046404 0 0  1.421253448503939 0 0  1.502836389106271 0 0  1.587371439758838 0 0  1.674965418777374 0 0  1.765729001825544 0 0  1.859776908880082 0 0  1.957227977487062 0 0  2.058205329869943 0 0  2.162836591189951 0 0  2.271253957290865 0 0  2.383594446803425 0 0  2.5 0.1024999999997612 0  2.5 0.2049999999994743 0  2.5 0.3074999999997183 0  2.383594446803656 0.41 0  2.271253957291315 0.41 0  2.162836591190598 0.41 0  2.058205329870775 0.41 0  1.957227977488067 0.41 0  1.859776908881246 0.41 0  1.765729001826854 0.41 0  1.674965418778818 0.41 0  1.58737143976041 0.41 0  1.502836389107956 0.41 0  1.421253448505726 0.41 0  1.342519516048286 0.41 0  1.266535089881505 0.41 0  1.193204177143353 0.41 0  1.122434100544716 0.41 0  1.05413544556068 0.41 0  0.9882218810956305 0.41 0  0.9246101326886647 0.41 0  0.8632198139519631 0.41 0  0.8039733463934788 0.41 0  0.7467958595662458 0.41 0  0.6916151138480078 0.41 0  0.6383613676644679 0.41 0  0.5869673343225223 0.41 0  0.5373680609412221 0.41 0  0.4895008759292634 0.41 0  0.4433053055145528 0.41 0  0.3987229542475914 0.41 0  0.3556974926297398 0.41 0  0.3141745521466497 0.41 0  0.2741016576310038 0.41 0  0.2354281840915826 0.41 0  0.1981052433265003 0.41 0  0.1620856860352591 0.41 0  0.1273239957535623 0.41 0  0.09377624077128965 0.41 0  0.06140001986584975 0.41 0  0.03015443760436654 0.41 0  0.2497468076502589 0.2050254481002335 0  0.2497468076502614 0.1949745518997913 0  0.2469965252529372 0.1829317073451959 0  0.2439893735792749 0.1762316384219906 0  0.2400332147834255 0.1700443375285386 0  0.2352133972704371 0.1645032867342007 0  0.2296339016332438 0.1597280261969788 0  0.2234150974217223 0.1558215752574715 0  0.2166911463437691 0.1528682099456123 0  0.2096071079204251 0.1509316448471593 0  0.2023158100364996 0.1500536585536553 0  0.194974551899914 0.1502531923497262 0  0.1877417105387872 0.1515259415822739 0  0.1807733240461124 0.153844448527136 0  0.1742197252835808 0.15715869474974 0  0.1682222986673531 0.1613971801805478 0  0.162910430003803 0.1664684656256651 0  0.1583987151779087 0.1722631454351573 0  0.1547844879126891 0.178656207771761 0  0.1521457199348551 0.1855097315605723 0  0.1505393388476355 0.1926758619366523 0  0.1505393388476328 0.2073241380633295 0  0.1521457199348437 0.2144902684393899 0  0.1547844879126531 0.221343792228163 0  0.1583987151778488 0.2277368545647528 0  0.1629104300036858 0.2335315343742052 0  0.1682222986671726 0.2386028198193036 0  0.1742197252833576 0.2428413052501257 0  0.1807733240458683 0.2461555514727623 0  0.1877417105384929 0.2484740584176516 0  0.1949745518995776 0.2497468076502398 0  0.202315810036185 0.2499463414463592 0  0.2096071079201568 0.2490683551528932 0  0.2166911463435495 0.2471317900544655 0  0.2234150974215506 0.2441784247426195 0  0.2296339016331197 0.2402719738031125 0  0.2352133972703547 0.2354967132658811 0  0.2400332147833751 0.2299556624715287 0  0.2439893735792577 0.2237683615780412 0  0.246996525252926 0.2170682926548348 0  0.25645809709277 0.21 0  0.2639263993298655 0.21 0  0.271394701566961 0.21 0  0.2788630038040554 0.21 0  0.2863313060411479 0.21 0  0.2937996082782405 0.21 0  0.301267910515333 0.21 0  0.3087362127524279 0.21 0  0.3162045149895234 0.21 0  0.3236728172265972 0.21 0  0.3311411194636928 0.21 0  0.3386094217007701 0.21 0  0.3460777239378666 0.21 0  0.3535460261749672 0.21 0  0.3610143284120516 0.21 0  0.3684826306491596 0.21 0  0.3759509328862226 0.21 0  0.383419235123329 0.21 0  0.3908875373604028 0.21 0  0.3983558395975142 0.21 0  0.4058241418345938 0.21 0  0.4132924440716992 0.21 0  0.4207607463087888 0.21 0  0.4282290485459029 0.21 0  0.4356973507830418 0.21 0  0.4431656530201649 0.21 0  0.4506339552573136 0.21 0  0.4581022574944306 0.21 0  0.4655705597315852 0.21 0  0.4730388619686996 0.21 0  0.480507164205851 0.21 0  0.4879754664429498 0.21 0  0.4954437686800938 0.21 0  0.502912070917267 0.21 0  0.5103803731544119 0.21 0  0.5178486753915261 0.21 0  0.5253169776286404 0.21 0  0.5327852798657868 0.21 0  0.5402535821029386 0.21 0  0.54772188434007 0.21 0  0.5551901865771842 0.21 0  0.5626584888143201 0.21 0  0.5701267910514778 0.21 0  0.5775950932886138 0.21 0  0.5850633955257281 0.21 0  0.5925316977628483 0.21 0  0.6 0.2050000000000054 0  0.6 0.1950000000000217 0  0.5925316977628897 0.19 0  0.5850633955257988 0.19 0  0.5775950932887378 0.19 0  0.5701267910515998 0.19 0  0.5626584888145268 0.19 0  0.5551901865773963 0.19 0  0.547721884340339 0.19 0  0.5402535821032429 0.19 0  0.5327852798661811 0.19 0  0.5253169776290537 0.19 0  0.5178486753919799 0.19 0  0.5103803731549078 0.19 0  0.502912070917822 0.19 0  0.4954437686807294 0.19 0  0.4879754664436223 0.19 0  0.4805071642065402 0.19 0  0.4730388619694271 0.19 0  0.4655705597323621 0.19 0  0.4581022574952563 0.19 0  0.4506339552581777 0.19 0  0.4431656530210671 0.19 0  0.4356973507839815 0.19 0  0.4282290485468779 0.19 0  0.4207607463097617 0.19 0  0.4132924440726327 0.19 0  0.4058241418354857 0.19 0  0.3983558395983636 0.19 0  0.3908875373612097 0.19 0  0.3834192351240934 0.19 0  0.3759509328869369 0.19 0  0.3684826306498175 0.19 0  0.361014328412667 0.19 0  0.3535460261755617 0.19 0  0.3460777239384295 0.19 0  0.3386094217012945 0.19 0  0.3311411194641595 0.19 0  0.3236728172270245 0.19 0  0.3162045149898895 0.19 0  0.3087362127527544 0.19 0  0.3012679105156187 0.19 0  0.2937996082784807 0.19 0  0.2863313060413428 0.19 0  0.2788630038042048 0.19 0  0.2713947015670686 0.19 0  0.2639263993299336 0.19 0  0.2564580970927985 0.19 0  0.2607803159922026 0.2000727136295815 0  0.5887803774232762 0.2001272386983733 0  0.5745072403740523 0.2002044435018727 0  0.5511891430099709 0.2001122610077113 0  0.2751288526855082 0.20000000000002 0  0.5365194309847112 0.1999999999999436 0  0.2894621222999649 0.1998691686390484 0  0.5215828265105155 0.1999999999999228 0  0.3127789816668748 0.1998657885438805 0  0.3274069683451451 0.2000000000000796 0  0.5066462220363641 0.199999999999908 0  0.3650630746574081 0.199866017807523 0  0.476773013087985 0.1999999999998713 0  0.3417402379596385 0.1998691686391011 0  0.3796850840047755 0.200000000000134 0  0.4618364086138087 0.1999999999998546 0  0.4917096175621762 0.1999999999998808 0  0.3946216884789568 0.2000000000001512 0  0.446899804139621 0.1999999999998389 0  0.4089549580935208 0.1998691686391595 0  0.4322718174608562 0.200127451265745 0  0.4201487168029707 0.1999966199048527 0  0.3528922713220932 0.2000185703532356 0  0.5633122436674589 0.1999814296467508 0  0.3006558810093873 0.1999966199048318 0  0.5815926498168407 0.1966545283159175 0  0.2677053789419034 0.1964246479135325 0  0.5290511287476175 0.1970915826863981 0  0.5439877332217911 0.197091582686394 0  0.2825131256993216 0.2035478995978015 0  0.3199386661080599 0.202908417313604 0  0.4842413153250809 0.1970915826863873 0  0.5141145242734466 0.1970915826863843 0  0.3722167817676917 0.2029084173136195 0  0.4693047108508938 0.1970915826863783 0  0.3348752705822316 0.202908417313609 0  0.3871533862418661 0.2029084173136212 0  0.4543681063767183 0.1970915826863795 0  0.4991779197992749 0.1970915826863902 0  0.4020059614928624 0.203547899597858 0  0.4394315019025246 0.1970915826863714 0  0.2550657455369551 0.2034088125358657 0  0.2548908499171161 0.1966940311614271 0  0.5946539510196798 0.2024302972968126 0  0.267698176732111 0.2039977513680092 0  0.4261685417851465 0.196409292431739 0  0.3590076176283495 0.196411355804271 0  0.5571672426447437 0.2036011176410121 0  0.3066757059912147 0.1964092924317024 0  0.594380730180568 0.1966558399668133 0  0.4842413153245942 0.2040749161535287 0  0.4693047108503577 0.2040749161535231 0  0.3871533862424271 0.1959250838464788 0  0.372246743208829 0.1959123236376545 0  0.5141145242731028 0.2040749161535395 0  0.4543681063761134 0.2040749161535186 0  0.4019979587101454 0.1959834479682427 0  0.4394608940728603 0.2040870543693135 0  0.5439623148931173 0.2040856076781014 0  0.5290511287473298 0.2040749161535501 0  0.4991779197988497 0.2040749161535382 0  0.3347912413592433 0.1959225448935183 0  0.3199680582793816 0.1959123018030061 0  0.2825051229162361 0.1959834479681729 0  0.3590471196690275 0.2036304442587945 0  0.5571594006495384 0.1963685282145804 0  0.3067669986803285 0.203627750582736 0  0.4262598344738712 0.2036568242185335 0  0.5814408164431408 0.2041285596160068 0  0.5688286748170428 0.1961819304477386 0  0.4145905603063645 0.2038180695522843 0  0.3473758401724931 0.2038180695522752 0  0.2950977245128307 0.2038180695522663 0  0.5688286748170693 0.203818069552238 0  0.2950977245127906 0.1961819304477774 0  0.3473758401723931 0.1961819304478349 0  0.4145905603061963 0.1961819304479011 0  0.2601812407614425 0.2056861609747042
[...]
<PointData  Vectors="f_40-1"> 
<DataArray  type="Float64"  Name="f_40-1"  NumberOfComponents="3" format="ascii">0.0000000000000000e+00 0.0000000000000000e+00 0.0000000000000000e+00  0.0000000000000000e+00 0.0000000000000000e+00 0.0000000000000000e+00  0.0000000000000000e+00 0.0000000000000000e+00 0.0000000000000000e+00  0.0000000000000000e+00 0.0000000000000000e+00 0.0000000000000000e+00  -8.7787124565419230e-06 -1.5473600508892570e-05 0.0000000000000000e+00  -7.3934725890789824e-06 -1.6926805839788233e-05 0.0000000000000000e+00  0.0000000000000000e+00 0.0000000000000000e+00 0.0000000000000000e+00  0.0000000000000000e+00 0.0000000000000000e+00 0.0000000000000000e+00  0.0000000000000000e+00 0.0000000000000000e+00 0.0000000000000000e+00  0.0000000000000000e+00 0.0000000000000000e+00 0.0000000000000000e+00  -8.1674472360915022e-06 -1.6200694486614085e-05 0.0000000000000000e+00  0.0000000000000000e+00 0.0000000000000000e+00 0.0000000000000000e+00  0.0000000000000000e+00 0.0000000000000000e+00 0.0000000000000000e+00  0.0000000000000000e+00 0.0000000000000000e+00 0.0000000000000000e+00  0.0000000000000000e+00 0.0000000000000000e+00 0.0000000000000000e+00  0.0000000000000000e+00 0.0000000000000000e+00 0.0000000000000000e+00  0.0000000000000000e+00 0.0000000000000000e+00 0.0000000000000000e+00  0.0000000000000000e+00 0.0000000000000000e+00 0.0000000000000000e+00  0.0000000000000000e+00 0.0000000000000000e+00 0.0000000000000000e+00  0.0000000000000000e+00 0.0000000000000000e+00 0.0000000000000000e+00  0.0000000000000000e+00 0.0000000000000000e+00 0.0000000000000000e+00  0.0000000000000000e+00 0.0000000000000000e+00 0.0000000000000000e+00  0.0000000000000000e+00 0.0000000000000000e+00 0.0000000000000000e+00  0.0000000000000000e+00 0.0000000000000000e+00 0.0000000000000000e+00  0.0000000000000000e+00 0.0000000000000000e+00 0.0000000000000000e+00  0.0000000000000000e+00 0.0000000000000000e+00 0.0000000000000000e+00  0.0000000000000000e+00 0.0000000000000000e+00 0.0000000000000000e+00  0.0000000000000000e+00 0.0000000000000000e+00 0.0000000000000000e+00  0.0000000000000000e+00 0.0000000000000000e+00 0.0000000000000000e+00  0.0000000000000000e+00 0.0000000000000000e+00 0.0000000000000000e+00  0.0000000000000000e+00 0.0000000000000000e+00 0.0000000000000000e+00  0.0000000000000000e+00 0.0000000000000000e+00 0.0000000000000000e+00  0.0000000000000000e+00 0.0000000000000000e+00 0.0000000000000000e+00  0.0000000000000000e+00 0.0000000000000000e+00 0.0000000000000000e+00  0.0000000000000000e+00 0.0000000000000000e+00 0.0000000000000000e+00  0.0000000000000000e+00 0.0000000000000000e+00 0.0000000000000000e+00  0.0000000000000000e+00 0.0000000000000000e+00 0.0000000000000000e+00  0.0000000000000000e+00 0.0000000000000000e+00 0.0000000000000000e+00  0.0000000000000000e+00 0.0000000000000000e+00 0.0000000000000000e+00  0.0000000000000000e+00 0.0000000000000000e+00 0.0000000000000000e+00  0.0000000000000000e+00 0.0000000000000000e+00 0.0000000000000000e+00  0.0000000000000000e+00 0.0000000000000000e+00 0.0000000000000000e+00  0.0000000000000000e+00 0.0000000000000000e+00 0.0000000000000000e+00  0.0000000000000000e+00 0.0000000000000000e+00 0.0000000000000000e+00  0.0000000000000000e+00 0.0000000000000000e+00 0.0000000000000000e+00  0.0000000000000000e+00 0.0000000000000000e+00 0.0000000000000000e+00  0.0000000000000000e+00 0.0000000000000000e+00 0.0000000000000000e+00  0.0000000000000000e+00 0.0000000000000000e+00 0.0000000000000000e+00  0.0000000000000000e+00 0.0000000000000000e+00 0.0000000000000000e+00  0.0000000000000000e+00 0.0000000000000000e+00 0.0000000000000000e+00  0.0000000000000000e+00 0.0000000000000000e+00 0.0000000000000000e+00  0.0000000000000000e+00 0.0000000000000000e+00 0.0000000000000000e+00  0.0000000000000000e+00 0.0000000000000000e+00 0.0000000000000000e+00  0.0000000000000000e+00 0.0000000000000000e+00 0.0000000000000000e+00  0.0000000000000000e+00 0.0000000000000000e+00 0.0000000000000000e+00  0.0000000000000000e+00 0.0000000000000000e+00 0.0000000000000000e+00  0.0000000000000000e+00 0.0000000000000000e+00 0.0000000000000000e+00  0.0000000000000000e+00 0.0000000000000000e+00 0.0000000000000000e+00  0.0000000000000000e+00 0.0000000000000000e+00 0.0000000000000000e+00  0.0000000000000000e+00 0.0000000000000000e+00 0.0000000000000000e+00  0.0000000000000000e+00 0.0000000000000000e+00 0.0000000000000000e+00  0.0000000000000000e+00 0.0000000000000000e+00 0.0000000000000000e+00  0.0000000000000000e+00 0.0000000000000000e+00 0.0000000000000000e+00  0.0000000000000000e+00 0.0000000000000000e+00 0.0000000000000000e+00  0.0000000000000000e+00 0.0000000000000000e+00 0.0000000000000000e+00  0.0000000000000000e+00 0.0000000000000000e+00 0.0000000000000000e+00  0.0000000000000000e+00 0.0000000000000000e+00 0.0000000000000000e+00  0.0000000000000000e+00 0.0000000000000000e+00 0.0000000000000000e+00  0.0000000000000000e+00 0.0000000000000000e+00 0.0000000000000000e+00  0.0000000000000000e+00 0.0000000000000000e+00 0.0000000000000000e+00  0.0000000000000000e+00 0.0000000000000000e+00 0.0000000000000000e+00  0.0000000000000000e+00 0.0000000000000000e+00 0.0000000000000000e+00  0.0000000000000000e+00 0.0000000000000000e+00 0.0000000000000000e+00  0.0000000000000000e+00 0.0000000000000000e+00 0.0000000000000000e+00  0.0000000000000000e+00 0.0000000000000000e+00 0.0000000000000000e+00  0.0000000000000000e+00 0.0000000000000000e+00 0.0000000000000000e+00  0.0000000000000000e+00 0.0000000000000000e+00 0.0000000000000000e+00  0.0000000000000000e+00 0.0000000000000000e+00 0.0000000000000000e+00  0.0000000000000000e+00 0.0000000000000000e+00 0.0000000000000000e+00  0.0000000000000000e+00 0.0000000000000000e+00 0.0000000000000000e+00  0.0000000000000000e+00 0.0000000000000000e+00 0.0000000000000000e+00  0.0000000000000000e+00 0.0000000000000000e+00 0.0000000000000000e+00  0.0000000000000000e+00 0.0000000000000000e+00 0.0000000000000000e+00  0.0000000000000000e+00 0.0000000000000000e+00 0.0000000000000000e+00  0.0000000000000000e+00 0.0000000000000000e+00 0.0000000000000000e+00  0.0000000000000000e+00 0.0000000000000000e+00 0.0000000000000000e+00  0.0000000000000000e+00 0.0000000000000000e+00 0.0000000000000000e+00  0.0000000000000000e+00 0.0000000000000000e+00 0.0000000000000000e+00  0.0000000000000000e+00 0.0000000000000000e+00 0.0000000000000000e+00  0.0000000000000000e+00 0.0000000000000000e+00 0.0000000000000000e+00  0.0000000000000000e+00 0.0000000000000000e+00 0.0000000000000000e+00  0.0000000000000000e+00 0.0000000000000000e+00 0.0000000000000000e+00  0.0000000000000000e+00 0.0000000000000000e+00 0.0000000000000000e+00  0.0000000000000000e+00 0.0000000000000000e+00 0.0000000000000000e+00  0.0000000000000000e+00 0.0000000000000000e+00 0.0000000000000000e+00  0.0000000000000000e+00 0.0000000000000000e+00 0.0000000000000000e+00  0.0000000000000000e+00 0.0000000000000000e+00 0.0000000000000000e+00  0.0000000000000000e+00 0.0000000000000000e+00 0.0000000000000000e+00  0.0000000000000000e+00 0.0000000000000000e+00 0.0000000000000000e+00  0.0000000000000000e+00 0.0000000000000000e+00 0.0000000000000000e+00  0.0000000000000000e+00 0.0000000000000000e+00 0.0000000000000000e+00  0.0000000000000000e+00 0.0000000000000000e+00 0.0000000000000000e+00  0.0000000000000000e+00 0.0000000000000000e+00 0.0000000000000000e+00  0.0000000000000000e+00 0.0000000000000000e+00 0.0000000000000000e+00  0.0000000000000000e+00 0.0000000000000000e+00 0.0000000000000000e+00  0.0000000000000000e+00 0.0000000000000000e+00 0.0000000000000000e+00  0.0000000000000000e+00 0.0000000000000000e+00 0.0000000000000000e+00  0.0000000000000000e+00 0.0000000000000000e+00 0.0000000000000000e+00  0.0000000000000000e+00 0.0000000000000000e+00 0.0000000000000000e+00  0.0000000000000000e+00 0.0000000000000000e+00 0.0000000000000000e+00  0.0000000000000000e+00 0.0000000000000000e+00 0.0000000000000000e+00  0.0000000000000000e+00 0.0000000000000000e+00 0.0000000000000000e+00  0.0000000000000000e+00 0.0000000000000000e+00 0.0000000000000000e+00  0.0000000000000000e+00 0.0000000000000000e+00 0.0000000000000000e+00  0.0000000000000000e+00 0.0000000000000000e+00 0.0000000000000000e+00  0.0000000000000000e+00 0.0000000000000000e+00 0.0000000000000000e+00  0.0000000000000000e+00 0.0000000000000000e+00 0.0000000000000000e+00  0.0000000000000000e+00 0.0000000000000000e+00 0.0000000000000000e+00  0.0000000000000000e+00 0.0000000000000000e+00 0.0000000000000000e+00  0.0000000000000000e+00 0.0000000000000000e+00 0.0000000000000000e+00  0.0000000000000000e+00 0.0000000000000000e+00 0.0000000000000000e+00  0.0000000000000000e+00 0.0000000000000000e+00 0.0000000000000000e+00  0.0000000000000000e+00 0.0000000000000000e+00 0.0000000000000000e+00  0.0000000000000000e+00 0.0000000000000000e+00 0.0000000000000000e+00  0.0000000000000000e+00 0.0000000000000000e+00 0.0000000000000000e+00  0.0000000000000000e+00 0.0000000000000000e+00 0.0000000000000000e+00  0.0000000000000000e+00 0.0000000000000000e+00 0.0000000000000000e+00  0.0000000000000000e+00 0.0000000000000000e+00 0.0000000000000000e+00  0.0000000000000000e+00 0.0000000000000000e+00 0.0000000000000000e+00  0.0000000000000000e+00 0.0000000000000000e+00 0.0000000000000000e+00  0.0000000000000000e+00 0.0000000000000000e+00 0.0000000000000000e+00  0.0000000000000000e+00 0.0000000000000000e+00 0.0000000000000000e+00  0.0000000000000000e+00 0.0000000000000000e+00 0.0000000000000000e+00  0.0000000000000000e+00 0.0000000000000000e+00 0.0000000000000000e+00  0.0000000000000000e+00 0.0000000000000000e+00 0.0000000000000000e+00  0.0000000000000000e+00 0.0000000000000000e+00 0.0000000000000000e+00  0.0000000000000000e+00 0.0000000000000000e+00 0.0000000000000000e+00  0.0000000000000000e+00 0.0000000000000000e+00 0.0000000000000000e+00  0.0000000000000000e+00 0.0000000000000000e+00 0.0000000000000000e+00  0.0000000000000000e+00 0.0000000000000000e+00 0.0000000000000000e+00  0.0000000000000000e+00 0.0000000000000000e+00 0.0000000000000000e+00  0.0000000000000000e+00 0.0000000000000000e+00 0.0000000000000000e+00  0.0000000000000000e+00 0.0000000000000000e+00 0.0000000000000000e+00  -6.2521558921561597e-08 -1.2148049825857198e-06 0.0000000000000000e+00  -8.8724417535116226e-08 -1.3329204492957036e-06 0.0000000000000000e+00  -5.8420177299534292e-08 -1.4031975796919547e-06 0.0000000000000000e+00  1.4400413096937074e-09 -1.4565273424130008e-06 0.0000000000000000e+00  6.3440327468681156e-08 -1.5284690654376803e-06 0.0000000000000000e+00  1.1851979038201196e-07 -1.6327279624053449e-06 0.0000000000000000e+00  1.6120458788109048e-07 -1.7520657456012501e-06 0.0000000000000000e+00  1.9150739558078781e-07 -1.8940250061377253e-06 0.0000000000000000e+00  2.1881196934335000e-07 -2.0538803209920392e-06 0.0000000000000000e+00  2.2790722949958293e-07 -2.2294890926623690e-06 0.0000000000000000e+00  2.3287291317021794e-07 -2.4282549565884031e-06 0.0000000000000000e+00  2.2041105139717047e-07 -2.6393844373756115e-06 0.0000000000000000e+00  2.0057755248313465e-07 -2.8698965785223461e-06 0.0000000000000000e+00  1.6731822398971978e-07 -3.1155972879030340e-06 0.0000000000000000e+00  1.2063103525842611e-07 -3.3769989381445603e-06 0.0000000000000000e+00  6.9214628479228678e-08 -3.6553158604697144e-06 0.0000000000000000e+00  -1.2019608093831734e-10 -3.9424101449166363e-06 0.0000000000000000e+00  -7.6277397128486811e-08 -4.2509461976517792e-06 0.0000000000000000e+00  -1.6883583343559918e-07 -4.5649482863411291e-06 0.0000000000000000e+00  -2.6823656333013744e-07 -4.8987403669248764e-06 0.0000000000000000e+00  -3.8294551763775891e-07 -5.2377351601599913e-06 0.0000000000000000e+00  -5.0826535148027833e-07 -5.5926525117957341e-06 0.0000000000000000e+00  -6.4474321099951316e-07 -5.9574572596812129e-06 0.0000000000000000e+00  -7.9480866041520345e-07 -6.3317847580791536e-06 0.0000000000000000e+00  -9.5130222595649282e-07 -6.7190204625770804e-06 0.0000000000000000e+00  -1.1229610210867593e-06 -7.1099842560790106e-06 0.0000000000000000e+00  -1.3063705546528017e-06 -7.5187674142339044e-06 0.0000000000000000e+00  -1.5013240990272651e-06 -7.9279611904133734e-06 0.0000000000000000e+00  -1.7080237198235758e-06 -8.3525482360246852e-06 0.0000000000000000e+00  -1.9263692318502408e-06 -8.7788843002757272e-06 0.0000000000000000e+00  -2.1557835753321729e-06 -9.2185241093995827e-06 0.0000000000000000e+00  -2.3979782810412594e-06 -9.6589895459185961e-06 0.0000000000000000e+00  -2.6501109069273751e-06 -1.0112888212846544e-05 0.0000000000000000e+00  -2.9154584826666376e-06 -1.0564757937395542e-05 0.0000000000000000e+00  -3.1929930947394762e-06 -1.1030811987838371e-05 0.0000000000000000e+00  -3.4819979684736000e-06 -1.1494980784014890e-05 0.0000000000000000e+00  -3.7822135531860969e-06 -1.1970786033136533e-05 0.0000000000000000e+00  -4.0945112402207533e-06 -1.2444505321055815e-05 0.0000000000000000e+00  -4.4187801746320350e-06 -1.2928561348896932e-05 0.0000000000000000e+00  -4.7559852793313393e-06 -1.3410171038289142e-05 0.0000000000000000e+00  -5.1058830866151259e-06 -1.3898911263688350e-05 0.0000000000000000e+00  -5.4661123398422278e-06 -1.4387425366086971e-05 0.0000000000000000e+00  -5.8407481830564461e-06 -1.4880174878296053e-05 0.0000000000000000e+00  -6.2221868580320372e-06 -1.5373360750503014e-05 0.0000000000000000e+00  -6.6173321115142162e-06 -1.5864730822287364e-05 0.0000000000000000e+00  -7.0151285366490883e-06 -1.6369110277836534e-05 0.0000000000000000e+00  -7.8093011950309278e-06 -1.6561510271723312e-05 0.0000000000000000e+00  -8.4964791421002529e-06 -1.5840058834894168e-05 0.0000000000000000e+00  -8.3931990591549465e-06 -1.5001764966600109e-05 0.0000000000000000e+00  -7.9900144136440282e-06 -1.4475904086955807e-05 0.0000000000000000e+00  -7.5892284894937232e-06 -1.3944495604819695e-05 0.0000000000000000e+00  -7.2009334259857867e-06 -1.3418840192756315e-05 0.0000000000000000e+00  -6.8199838354220052e-06 -1.2895440497468470e-05 0.0000000000000000e+00  -6.4534141484378305e-06 -1.2375095306695337e-05 0.0000000000000000e+00  -6.0947784681273792e-06 -1.1858338466818821e-05 0.0000000000000000e+00  -5.7497039552446716e-06 -1.1342242964410202e-05 0.0000000000000000e+00  -5.4138895371059659e-06 -1.0834787826208887e-05 0.0000000000000000e+00  -5.0905107064675760e-06 -1.0325552000069501e-05 0.0000000000000000e+00  -4.7764846909447315e-06 -9.8265169600874125e-06 0.0000000000000000e+00  -4.4750221260293992e-06 -9.3269994598254214e-06 0.0000000000000000e+00  -4.1823440599933592e-06 -8.8386187336148846e-06 0.0000000000000000e+00  -3.9022063684951483e-06 -8.3503864628466144e-06 0.0000000000000000e+00  -3.6305349188883754e-06 -7.8742165724317830e-06 0.0000000000000000e+00  -3.3716566016795710e-06 -7.3989773992772361e-06 0.0000000000000000e+00  -3.1210326489680033e-06 -6.9361497765133872e-06 0.0000000000000000e+00  -2.8837411254234940e-06 -6.4751843268551013e-06 0.0000000000000000e+00  -2.6542604792955654e-06 -6.0281511952847905e-06 0.0000000000000000e+00  -2.4379576576402436e-06 -5.5838522313976253e-06 0.0000000000000000e+00  -2.2289657904975196e-06 -5.1540303910983726e-06 0.0000000000000000e+00  -2.0335507525619530e-06 -4.7280775317747578e-06 0.0000000000000000e+00  -1.8469561650921953e-06 -4.3150469696530004e-06 0.0000000000000000e+00  -1.6709996214397987e-06 -3.9107720971569609e-06 0.0000000000000000e+00  -1.5081428740102966e-06 -3.5182309268156425e-06 0.0000000000000000e+00  -1.3493369423183210e-06 -3.1367351933375736e-06 0.0000000000000000e+00  -1.2048405303350449e-06 -2.7636795836354294e-06 0.0000000000000000e+00  -1.0687986192764226e-06 -2.4093507906918685e-06 0.0000000000000000e+00  -9.4463424612896675e-07 -2.0599961868669620e-06 0.0000000000000000e+00  -8.2954563631722666e-07 -1.7315283088179940e-06 0.0000000000000000e+00  -7.2590478280698586e-07 -1.4090385734987269e-06 0.0000000000000000e+00  -6.3091181781877757e-07 -1.1081385421294769e-06 0.0000000000000000e+00  -5.4626100536533046e-07 -8.1670883447524808e-07 0.0000000000000000e+00  -4.7385735112056985e-07 -5.4539445181067108e-07 0.0000000000000000e+00  -4.0466161840761175e-07 -2.8663797661541004e-07 0.0000000000000000e+00  -3.4944867239739196e-07 -4.5260963361678458e-08 0.0000000000000000e+00  -3.0232866079831404e-07 1.7408811798866264e-07 0.0000000000000000e+00  -2.6650750554559824e-07 3.8041723263116997e-07 0.0000000000000000e+00  -2.3798717735740434e-07 5.6309837369196978e-07 0.0000000000000000e+00  -2.2037305869922523e-07 7.3023931889601074e-07 0.0000000000000000e+00  -2.1444624979606810e-07 8.7441660692504102e-07 0.0000000000000000e+00  -2.0940833229582412e-07 1.0003996909008550e-06 0.0000000000000000e+00  -2.1937177093232665e-07 1.1145303030285613e-06 0.0000000000000000e+00  -2.1756814013872381e-07 1.2032651508083536e-06 0.0000000000000000e+00  -1.9666882877083832e-07 1.2322379426455723e-06 0.0000000000000000e+00  -1.1650460681318833e-07 1.1684602705501953e-06 0.0000000000000000e+00  -3.4882637563931624e-07 -2.8389406512987228e-08 0.0000000000000000e+00  -7.5215740210463376e-06 -1.5433570134551948e-05 0.0000000000000000e+00  -6.7378139941522989e-06 -1.4460824960269049e-05 0.0000000000000000e+00  -5.5872837918670187e-06 -1.2873854933037848e-05 0.0000000000000000e+00  -1.3388166649255219e-07 -1.1962834447138598e-07 0.0000000000000000e+00  -4.9262668435363276e-06 -1.1884388368915051e-05 0.0000000000000000e+00  -6.6490399439401756e-08 -2.7917474825489053e-07 0.0000000000000000e+00  -4.2895682972856611e-06 -1.0900750726335515e-05 0.0000000000000000e+00  -3.1222625910336991e-08 -7.2693258682734475e-07 0.0000000000000000e+00  -5.4037541281755934e-08 -1.1185199151958388e-06 0.0000000000000000e+00  -3.6982431408825374e-06 -9.9361947934139576e-06 0.0000000000000000e+00  -3.0470145877110085e-07 -2.3729006166237859e-06 0.0000000000000000e+00  -2.6504867598712896e-06 -8.0774413336775695e-06 0.0000000000000000e+00  -1.1924516796790537e-07 -1.5367166638881710e-06 0.0000000000000000e+00  -4.6920144913814335e-07 -2.9858415504435217e-06 0.0000000000000000e+00  -2.1934983158973139e-06 -7.1898185836093423e-06 0.0000000000000000e+00  -3.1519395084286207e-06 -8.9939209045840656e-06 0.0000000000000000e+00  -6.8388380922638380e-07 -3.6492767008881417e-06 0.0000000000000000e+00  -1.7809062083925632e-06 -6.3348452876193229e-06 0.0000000000000000e+00  -9.3635883528776569e-07 -4.3185917230323509e-06 0.0000000000000000e+00  -1.4116908508082924e-06 -5.5449131716901706e-06 0.0000000000000000e+00  -1.1551428630526949e-06 -4.8970837751107252e-06 0.0000000000000000e+00  -1.9336708427401360e-07 -1.9374394732813968e-06 0.0000000000000000e+00  -6.1874122317935092e-06 -1.3683259023902698e-05 0.0000000000000000e+00  -3.9361513707942566e-08 -4.8947588859359595e-07 0.0000000000000000e+00  -7.3598552828860251e-06 -1.4697912781735955e-05 0.0000000000000000e+00  -2.3445652421347847e-07 4.2593685337459358e-07 0.0000000000000000e+00  -4.7934015960397953e-06 -1.1154194487665951e-05 0.0000000000000000e+00  -5.4557506991133952e-06 -1.2154239523548681e-05 0.0000000000000000e+00  -5.0860286163116052e-08 -6.5450266402539274e-07 0.0000000000000000e+00  3.7595659719893787e-08 -1.2713889977087178e-06 0.0000000000000000e+00  -3.0738324253764637e-06 -8.2708683898549301e-06 0.0000000000000000e+00  -4.1757844710328039e-06 -1.0171159670957965e-05 0.0000000000000000e+00  -2.5962718065972044e-07 -2.9989670778797584e-06 0.0000000000000000e+00  -2.5889186809488462e-06 -7.3599561765801567e-06 0.0000000000000000e+00  5.7704048569701371e-09 -1.6825447212693854e-06 0.0000000000000000e+00  -4.4303100561252829e-07 -3.6285611512420757e-06 0.0000000000000000e+00  -2.1479316731788868e-06 -6.4799525822976888e-06 0.0000000000000000e+00  -3.6027526855084098e-06 -9.2088835954544068e-06 0.0000000000000000e+00  -6.3759878834726147e-07 -4.3732979673276629e-06 0.0000000000000000e+00  -1.7503176413360732e-06 -5.6344147516655575e-06 0.0000000000000000e+00  -3.0406857731005569e-07 -2.9087488701804038e-07 0.0000000000000000e+00  -3.0643239479015127e-07 2.5474923753275520e-07 0.0000000000000000e+00  -7.6960334254851535e-06 -1.59970705