<?xml version="1.0"?>
<VTKFile type="UnstructuredGrid"  version="0.1"  >
<UnstructuredGrid>
<Piece  NumberOfPoints="1419" NumberOfCells="2698">
<Points>
<DataArray  type="Float64"  NumberOfComponents="3"  format="ascii">0 0 0  0 0.41 0  2.5 0 0  2.5 0.41 0  0.6 0.19 0  0.6 0.21 0  0.25 0.2 0  0.15 0.2 0  0.2489897948556636 0.21 0  0.2489897948556636 0.19 0  0.6 0.2 0  0 0.3807142857143437 0  0 0.3514285714286952 0  0 0.3221428571430699 0  0 0.29285714285744 0  0 0.2635714285718054 0  0 0.2342857142861561 0  0 0.2050000000005308 0  0 0.175714285714732 0  0 0.1464285714289574 0  0 0.1171428571431897 0  0 0.08785714285737878 0  0 0.05857142857161107 0  0 0.02928571428580012 0  0.03015443760436003 0 0  0.06140001986583606 0 0  0.09377624077125973 0 0  0.1273239957535082 0 0  0.1620856860351972 0 0  0.1981052433264291 0 0  0.235428184091502 0 0  0.2741016576309132 0 0  0.3141745521465447 0 0  0.3556974926295285 0 0  0.3987229542472677 0 0  0.4433053055141081 0 0  0.4895008759286886 0 0  0.5373680609405097 0 0  0.5869673343216626 0 0  0.6383613676634521 0 0  0.6916151138468254 0 0  0.7467958595648856 0 0  0.8039733463919316 0 0  0.8632198139502143 0 0  0.9246101326867038 0 0  0.9882218810934433 0 0  1.054135445558498 0 0  1.122434100542598 0 0  1.193204177141305 0 0  1.266535089879536 0 0  1.342519516046404 0 0  1.421253448503939 0 0  1.502836389106271 0 0  1.587371439758838 0 0  1.674965418777374 0 0  1.765729001825544 0 0  1.859776908880082 0 0  1.957227977487062 0 0  2.058205329869943 0 0  2.162836591189951 0 0  2.271253957290865 0 0  2.383594446803425 0 0  2.5 0.1024999999997612 0  2.5 0.2049999999994743 0  2.5 0.3074999999997183 0  2.383594446803656 0.41 0  2.271253957291315 0.41 0  2.162836591190598 0.41 0  2.058205329870775 0.41 0  1.957227977488067 0.41 0  1.859776908881246 0.41 0  1.765729001826854 0.41 0  1.674965418778818 0.41 0  1.58737143976041 0.41 0  1.502836389107956 0.41 0  1.421253448505726 0.41 0  1.342519516048286 0.41 0  1.266535089881505 0.41 0  1.193204177143353 0.41 0  1.122434100544716 0.41 0  1.05413544556068 0.41 0  0.9882218810956305 0.41 0  0.9246101326886647 0.41 0  0.8632198139519631 0.41 0  0.8039733463934788 0.41 0  0.7467958595662458 0.41 0  0.6916151138480078 0.41 0  0.6383613676644679 0.41 0  0.5869673343225223 0.41 0  0.5373680609412221 0.41 0  0.4895008759292634 0.41 0  0.4433053055145528 0.41 0  0.3987229542475914 0.41 0  0.3556974926297398 0.41 0  0.3141745521466497 0.41 0  0.2741016576310038 0.41 0  0.2354281840915826 0.41 0  0.1981052433265003 0.41 0  0.1620856860352591 0.41 0  0.1273239957535623 0.41 0  0.09377624077128965 0.41 0  0.06140001986584975 0.41 0  0.03015443760436654 0.41 0  0.2497468076502589 0.2050254481002335 0  0.2497468076502614 0.1949745518997913 0  0.2469965252529372 0.1829317073451959 0  0.2439893735792749 0.1762316384219906 0  0.2400332147834255 0.1700443375285386 0  0.2352133972704371 0.1645032867342007 0  0.2296339016332438 0.1597280261969788 0  0.2234150974217223 0.1558215752574715 0  0.2166911463437691 0.1528682099456123 0  0.2096071079204251 0.1509316448471593 0  0.2023158100364996 0.1500536585536553 0  0.194974551899914 0.1502531923497262 0  0.1877417105387872 0.1515259415822739 0  0.1807733240461124 0.153844448527136 0  0.1742197252835808 0.15715869474974 0  0.1682222986673531 0.1613971801805478 0  0.162910430003803 0.1664684656256651 0  0.1583987151779087 0.1722631454351573 0  0.1547844879126891 0.178656207771761 0  0.1521457199348551 0.1855097315605723 0  0.1505393388476355 0.1926758619366523 0  0.1505393388476328 0.2073241380633295 0  0.1521457199348437 0.2144902684393899 0  0.1547844879126531 0.221343792228163 0  0.1583987151778488 0.2277368545647528 0  0.1629104300036858 0.2335315343742052 0  0.1682222986671726 0.2386028198193036 0  0.1742197252833576 0.2428413052501257 0  0.1807733240458683 0.2461555514727623 0  0.1877417105384929 0.2484740584176516 0  0.1949745518995776 0.2497468076502398 0  0.202315810036185 0.2499463414463592 0  0.2096071079201568 0.2490683551528932 0  0.2166911463435495 0.2471317900544655 0  0.2234150974215506 0.2441784247426195 0  0.2296339016331197 0.2402719738031125 0  0.2352133972703547 0.2354967132658811 0  0.2400332147833751 0.2299556624715287 0  0.2439893735792577 0.2237683615780412 0  0.246996525252926 0.2170682926548348 0  0.25645809709277 0.21 0  0.2639263993298655 0.21 0  0.271394701566961 0.21 0  0.2788630038040554 0.21 0  0.2863313060411479 0.21 0  0.2937996082782405 0.21 0  0.301267910515333 0.21 0  0.3087362127524279 0.21 0  0.3162045149895234 0.21 0  0.3236728172265972 0.21 0  0.3311411194636928 0.21 0  0.3386094217007701 0.21 0  0.3460777239378666 0.21 0  0.3535460261749672 0.21 0  0.3610143284120516 0.21 0  0.3684826306491596 0.21 0  0.3759509328862226 0.21 0  0.383419235123329 0.21 0  0.3908875373604028 0.21 0  0.3983558395975142 0.21 0  0.4058241418345938 0.21 0  0.4132924440716992 0.21 0  0.4207607463087888 0.21 0  0.4282290485459029 0.21 0  0.4356973507830418 0.21 0  0.4431656530201649 0.21 0  0.4506339552573136 0.21 0  0.4581022574944306 0.21 0  0.4655705597315852 0.21 0  0.4730388619686996 0.21 0  0.480507164205851 0.21 0  0.4879754664429498 0.21 0  0.4954437686800938 0.21 0  0.502912070917267 0.21 0  0.5103803731544119 0.21 0  0.5178486753915261 0.21 0  0.5253169776286404 0.21 0  0.5327852798657868 0.21 0  0.5402535821029386 0.21 0  0.54772188434007 0.21 0  0.5551901865771842 0.21 0  0.5626584888143201 0.21 0  0.5701267910514778 0.21 0  0.5775950932886138 0.21 0  0.5850633955257281 0.21 0  0.5925316977628483 0.21 0  0.6 0.2050000000000054 0  0.6 0.1950000000000217 0  0.5925316977628897 0.19 0  0.5850633955257988 0.19 0  0.5775950932887378 0.19 0  0.5701267910515998 0.19 0  0.5626584888145268 0.19 0  0.5551901865773963 0.19 0  0.547721884340339 0.19 0  0.5402535821032429 0.19 0  0.5327852798661811 0.19 0  0.5253169776290537 0.19 0  0.5178486753919799 0.19 0  0.5103803731549078 0.19 0  0.502912070917822 0.19 0  0.4954437686807294 0.19 0  0.4879754664436223 0.19 0  0.4805071642065402 0.19 0  0.4730388619694271 0.19 0  0.4655705597323621 0.19 0  0.4581022574952563 0.19 0  0.4506339552581777 0.19 0  0.4431656530210671 0.19 0  0.4356973507839815 0.19 0  0.4282290485468779 0.19 0  0.4207607463097617 0.19 0  0.4132924440726327 0.19 0  0.4058241418354857 0.19 0  0.3983558395983636 0.19 0  0.3908875373612097 0.19 0  0.3834192351240934 0.19 0  0.3759509328869369 0.19 0  0.3684826306498175 0.19 0  0.361014328412667 0.19 0  0.3535460261755617 0.19 0  0.3460777239384295 0.19 0  0.3386094217012945 0.19 0  0.3311411194641595 0.19 0  0.3236728172270245 0.19 0  0.3162045149898895 0.19 0  0.3087362127527544 0.19 0  0.3012679105156187 0.19 0  0.2937996082784807 0.19 0  0.2863313060413428 0.19 0  0.2788630038042048 0.19 0  0.2713947015670686 0.19 0  0.2639263993299336 0.19 0  0.2564580970927985 0.19 0  0.2607803159922026 0.2000727136295815 0  0.5887803774232762 0.2001272386983733 0  0.5745072403740523 0.2002044435018727 0  0.5511891430099709 0.2001122610077113 0  0.2751288526855082 0.20000000000002 0  0.5365194309847112 0.1999999999999436 0  0.2894621222999649 0.1998691686390484 0  0.5215828265105155 0.1999999999999228 0  0.3127789816668748 0.1998657885438805 0  0.3274069683451451 0.2000000000000796 0  0.5066462220363641 0.199999999999908 0  0.3650630746574081 0.199866017807523 0  0.476773013087985 0.1999999999998713 0  0.3417402379596385 0.1998691686391011 0  0.3796850840047755 0.200000000000134 0  0.4618364086138087 0.1999999999998546 0  0.4917096175621762 0.1999999999998808 0  0.3946216884789568 0.2000000000001512 0  0.446899804139621 0.1999999999998389 0  0.4089549580935208 0.1998691686391595 0  0.4322718174608562 0.200127451265745 0  0.4201487168029707 0.1999966199048527 0  0.3528922713220932 0.2000185703532356 0  0.5633122436674589 0.1999814296467508 0  0.3006558810093873 0.1999966199048318 0  0.5815926498168407 0.1966545283159175 0  0.2677053789419034 0.1964246479135325 0  0.5290511287476175 0.1970915826863981 0  0.5439877332217911 0.197091582686394 0  0.2825131256993216 0.2035478995978015 0  0.3199386661080599 0.202908417313604 0  0.4842413153250809 0.1970915826863873 0  0.5141145242734466 0.1970915826863843 0  0.3722167817676917 0.2029084173136195 0  0.4693047108508938 0.1970915826863783 0  0.3348752705822316 0.202908417313609 0  0.3871533862418661 0.2029084173136212 0  0.4543681063767183 0.1970915826863795 0  0.4991779197992749 0.1970915826863902 0  0.4020059614928624 0.203547899597858 0  0.4394315019025246 0.1970915826863714 0  0.2550657455369551 0.2034088125358657 0  0.2548908499171161 0.1966940311614271 0  0.5946539510196798 0.2024302972968126 0  0.267698176732111 0.2039977513680092 0  0.4261685417851465 0.196409292431739 0  0.3590076176283495 0.196411355804271 0  0.5571672426447437 0.2036011176410121 0  0.3066757059912147 0.1964092924317024 0  0.594380730180568 0.1966558399668133 0  0.4842413153245942 0.2040749161535287 0  0.4693047108503577 0.2040749161535231 0  0.3871533862424271 0.1959250838464788 0  0.372246743208829 0.1959123236376545 0  0.5141145242731028 0.2040749161535395 0  0.4543681063761134 0.2040749161535186 0  0.4019979587101454 0.1959834479682427 0  0.4394608940728603 0.2040870543693135 0  0.5439623148931173 0.2040856076781014 0  0.5290511287473298 0.2040749161535501 0  0.4991779197988497 0.2040749161535382 0  0.3347912413592433 0.1959225448935183 0  0.3199680582793816 0.1959123018030061 0  0.2825051229162361 0.1959834479681729 0  0.3590471196690275 0.2036304442587945 0  0.5571594006495384 0.1963685282145804 0  0.3067669986803285 0.203627750582736 0  0.4262598344738712 0.2036568242185335 0  0.5814408164431408 0.2041285596160068 0  0.5688286748170428 0.1961819304477386 0  0.4145905603063645 0.2038180695522843 0  0.3473758401724931 0.2038180695522752 0  0.2950977245128307 0.2038180695522663 0  0.5688286748170693 0.203818069552238 0  0.2950977245127906 0.1961819304477774 0  0.3473758401723931 0.1961819304478349 0  0.4145905603061963 0.1961819304479011 0  0.2601812407614425 0.2056861609747042
[...]
<PointData  Vectors="f_40-1"> 
<DataArray  type="Float64"  Name="f_40-1"  NumberOfComponents="3" format="ascii">0.0000000000000000e+00 0.0000000000000000e+00 0.0000000000000000e+00  0.0000000000000000e+00 0.0000000000000000e+00 0.0000000000000000e+00  0.0000000000000000e+00 0.0000000000000000e+00 0.0000000000000000e+00  0.0000000000000000e+00 0.0000000000000000e+00 0.0000000000000000e+00  -8.5223541586804663e-06 -1.3004990940556655e-05 0.0000000000000000e+00  -7.3305057517534220e-06 -1.4373189381010307e-05 0.0000000000000000e+00  0.0000000000000000e+00 0.0000000000000000e+00 0.0000000000000000e+00  0.0000000000000000e+00 0.0000000000000000e+00 0.0000000000000000e+00  0.0000000000000000e+00 0.0000000000000000e+00 0.0000000000000000e+00  0.0000000000000000e+00 0.0000000000000000e+00 0.0000000000000000e+00  -8.0004474978168086e-06 -1.3689507120265086e-05 0.0000000000000000e+00  0.0000000000000000e+00 0.0000000000000000e+00 0.0000000000000000e+00  0.0000000000000000e+00 0.0000000000000000e+00 0.0000000000000000e+00  0.0000000000000000e+00 0.0000000000000000e+00 0.0000000000000000e+00  0.0000000000000000e+00 0.0000000000000000e+00 0.0000000000000000e+00  0.0000000000000000e+00 0.0000000000000000e+00 0.0000000000000000e+00  0.0000000000000000e+00 0.0000000000000000e+00 0.0000000000000000e+00  0.0000000000000000e+00 0.0000000000000000e+00 0.0000000000000000e+00  0.0000000000000000e+00 0.0000000000000000e+00 0.0000000000000000e+00  0.0000000000000000e+00 0.0000000000000000e+00 0.0000000000000000e+00  0.0000000000000000e+00 0.0000000000000000e+00 0.0000000000000000e+00  0.0000000000000000e+00 0.0000000000000000e+00 0.0000000000000000e+00  0.0000000000000000e+00 0.0000000000000000e+00 0.0000000000000000e+00  0.0000000000000000e+00 0.0000000000000000e+00 0.0000000000000000e+00  0.0000000000000000e+00 0.0000000000000000e+00 0.0000000000000000e+00  0.0000000000000000e+00 0.0000000000000000e+00 0.0000000000000000e+00  0.0000000000000000e+00 0.0000000000000000e+00 0.0000000000000000e+00  0.0000000000000000e+00 0.0000000000000000e+00 0.0000000000000000e+00  0.0000000000000000e+00 0.0000000000000000e+00 0.0000000000000000e+00  0.0000000000000000e+00 0.0000000000000000e+00 0.0000000000000000e+00  0.0000000000000000e+00 0.0000000000000000e+00 0.0000000000000000e+00  0.0000000000000000e+00 0.0000000000000000e+00 0.0000000000000000e+00  0.0000000000000000e+00 0.0000000000000000e+00 0.0000000000000000e+00  0.0000000000000000e+00 0.0000000000000000e+00 0.0000000000000000e+00  0.0000000000000000e+00 0.0000000000000000e+00 0.0000000000000000e+00  0.0000000000000000e+00 0.0000000000000000e+00 0.0000000000000000e+00  0.0000000000000000e+00 0.0000000000000000e+00 0.0000000000000000e+00  0.0000000000000000e+00 0.0000000000000000e+00 0.0000000000000000e+00  0.0000000000000000e+00 0.0000000000000000e+00 0.0000000000000000e+00  0.0000000000000000e+00 0.0000000000000000e+00 0.0000000000000000e+00  0.0000000000000000e+00 0.0000000000000000e+00 0.0000000000000000e+00  0.0000000000000000e+00 0.0000000000000000e+00 0.0000000000000000e+00  0.0000000000000000e+00 0.0000000000000000e+00 0.0000000000000000e+00  0.0000000000000000e+00 0.0000000000000000e+00 0.0000000000000000e+00  0.0000000000000000e+00 0.0000000000000000e+00 0.0000000000000000e+00  0.0000000000000000e+00 0.0000000000000000e+00 0.0000000000000000e+00  0.0000000000000000e+00 0.0000000000000000e+00 0.0000000000000000e+00  0.0000000000000000e+00 0.0000000000000000e+00 0.0000000000000000e+00  0.0000000000000000e+00 0.0000000000000000e+00 0.0000000000000000e+00  0.0000000000000000e+00 0.0000000000000000e+00 0.0000000000000000e+00  0.0000000000000000e+00 0.0000000000000000e+00 0.0000000000000000e+00  0.0000000000000000e+00 0.0000000000000000e+00 0.0000000000000000e+00  0.0000000000000000e+00 0.0000000000000000e+00 0.0000000000000000e+00  0.0000000000000000e+00 0.0000000000000000e+00 0.0000000000000000e+00  0.0000000000000000e+00 0.0000000000000000e+00 0.0000000000000000e+00  0.0000000000000000e+00 0.0000000000000000e+00 0.0000000000000000e+00  0.0000000000000000e+00 0.0000000000000000e+00 0.0000000000000000e+00  0.0000000000000000e+00 0.0000000000000000e+00 0.0000000000000000e+00  0.0000000000000000e+00 0.0000000000000000e+00 0.0000000000000000e+00  0.0000000000000000e+00 0.0000000000000000e+00 0.0000000000000000e+00  0.0000000000000000e+00 0.0000000000000000e+00 0.0000000000000000e+00  0.0000000000000000e+00 0.0000000000000000e+00 0.0000000000000000e+00  0.0000000000000000e+00 0.0000000000000000e+00 0.0000000000000000e+00  0.0000000000000000e+00 0.0000000000000000e+00 0.0000000000000000e+00  0.0000000000000000e+00 0.0000000000000000e+00 0.0000000000000000e+00  0.0000000000000000e+00 0.0000000000000000e+00 0.0000000000000000e+00  0.0000000000000000e+00 0.0000000000000000e+00 0.0000000000000000e+00  0.0000000000000000e+00 0.0000000000000000e+00 0.0000000000000000e+00  0.0000000000000000e+00 0.0000000000000000e+00 0.0000000000000000e+00  0.0000000000000000e+00 0.0000000000000000e+00 0.0000000000000000e+00  0.0000000000000000e+00 0.0000000000000000e+00 0.0000000000000000e+00  0.0000000000000000e+00 0.0000000000000000e+00 0.0000000000000000e+00  0.0000000000000000e+00 0.0000000000000000e+00 0.0000000000000000e+00  0.0000000000000000e+00 0.0000000000000000e+00 0.0000000000000000e+00  0.0000000000000000e+00 0.0000000000000000e+00 0.0000000000000000e+00  0.0000000000000000e+00 0.0000000000000000e+00 0.0000000000000000e+00  0.0000000000000000e+00 0.0000000000000000e+00 0.0000000000000000e+00  0.0000000000000000e+00 0.0000000000000000e+00 0.0000000000000000e+00  0.0000000000000000e+00 0.0000000000000000e+00 0.0000000000000000e+00  0.0000000000000000e+00 0.0000000000000000e+00 0.0000000000000000e+00  0.0000000000000000e+00 0.0000000000000000e+00 0.0000000000000000e+00  0.0000000000000000e+00 0.0000000000000000e+00 0.0000000000000000e+00  0.0000000000000000e+00 0.0000000000000000e+00 0.0000000000000000e+00  0.0000000000000000e+00 0.0000000000000000e+00 0.0000000000000000e+00  0.0000000000000000e+00 0.0000000000000000e+00 0.0000000000000000e+00  0.0000000000000000e+00 0.0000000000000000e+00 0.0000000000000000e+00  0.0000000000000000e+00 0.0000000000000000e+00 0.0000000000000000e+00  0.0000000000000000e+00 0.0000000000000000e+00 0.0000000000000000e+00  0.0000000000000000e+00 0.0000000000000000e+00 0.0000000000000000e+00  0.0000000000000000e+00 0.0000000000000000e+00 0.0000000000000000e+00  0.0000000000000000e+00 0.0000000000000000e+00 0.0000000000000000e+00  0.0000000000000000e+00 0.0000000000000000e+00 0.0000000000000000e+00  0.0000000000000000e+00 0.0000000000000000e+00 0.0000000000000000e+00  0.0000000000000000e+00 0.0000000000000000e+00 0.0000000000000000e+00  0.0000000000000000e+00 0.0000000000000000e+00 0.0000000000000000e+00  0.0000000000000000e+00 0.0000000000000000e+00 0.0000000000000000e+00  0.0000000000000000e+00 0.0000000000000000e+00 0.0000000000000000e+00  0.0000000000000000e+00 0.0000000000000000e+00 0.0000000000000000e+00  0.0000000000000000e+00 0.0000000000000000e+00 0.0000000000000000e+00  0.0000000000000000e+00 0.0000000000000000e+00 0.0000000000000000e+00  0.0000000000000000e+00 0.0000000000000000e+00 0.0000000000000000e+00  0.0000000000000000e+00 0.0000000000000000e+00 0.0000000000000000e+00  0.0000000000000000e+00 0.0000000000000000e+00 0.0000000000000000e+00  0.0000000000000000e+00 0.0000000000000000e+00 0.0000000000000000e+00  0.0000000000000000e+00 0.0000000000000000e+00 0.0000000000000000e+00  0.0000000000000000e+00 0.0000000000000000e+00 0.0000000000000000e+00  0.0000000000000000e+00 0.0000000000000000e+00 0.0000000000000000e+00  0.0000000000000000e+00 0.0000000000000000e+00 0.0000000000000000e+00  0.0000000000000000e+00 0.0000000000000000e+00 0.0000000000000000e+00  0.0000000000000000e+00 0.0000000000000000e+00 0.0000000000000000e+00  0.0000000000000000e+00 0.0000000000000000e+00 0.0000000000000000e+00  0.0000000000000000e+00 0.0000000000000000e+00 0.0000000000000000e+00  0.0000000000000000e+00 0.0000000000000000e+00 0.0000000000000000e+00  0.0000000000000000e+00 0.0000000000000000e+00 0.0000000000000000e+00  0.0000000000000000e+00 0.0000000000000000e+00 0.0000000000000000e+00  0.0000000000000000e+00 0.0000000000000000e+00 0.0000000000000000e+00  0.0000000000000000e+00 0.0000000000000000e+00 0.0000000000000000e+00  0.0000000000000000e+00 0.0000000000000000e+00 0.0000000000000000e+00  0.0000000000000000e+00 0.0000000000000000e+00 0.0000000000000000e+00  0.0000000000000000e+00 0.0000000000000000e+00 0.0000000000000000e+00  0.0000000000000000e+00 0.0000000000000000e+00 0.0000000000000000e+00  0.0000000000000000e+00 0.0000000000000000e+00 0.0000000000000000e+00  0.0000000000000000e+00 0.0000000000000000e+00 0.0000000000000000e+00  0.0000000000000000e+00 0.0000000000000000e+00 0.0000000000000000e+00  0.0000000000000000e+00 0.0000000000000000e+00 0.0000000000000000e+00  0.0000000000000000e+00 0.0000000000000000e+00 0.0000000000000000e+00  0.0000000000000000e+00 0.0000000000000000e+00 0.0000000000000000e+00  0.0000000000000000e+00 0.0000000000000000e+00 0.0000000000000000e+00  0.0000000000000000e+00 0.0000000000000000e+00 0.0000000000000000e+00  0.0000000000000000e+00 0.0000000000000000e+00 0.0000000000000000e+00  0.0000000000000000e+00 0.0000000000000000e+00 0.0000000000000000e+00  0.0000000000000000e+00 0.0000000000000000e+00 0.0000000000000000e+00  0.0000000000000000e+00 0.0000000000000000e+00 0.0000000000000000e+00  0.0000000000000000e+00 0.0000000000000000e+00 0.0000000000000000e+00  0.0000000000000000e+00 0.0000000000000000e+00 0.0000000000000000e+00  0.0000000000000000e+00 0.0000000000000000e+00 0.0000000000000000e+00  0.0000000000000000e+00 0.0000000000000000e+00 0.0000000000000000e+00  0.0000000000000000e+00 0.0000000000000000e+00 0.0000000000000000e+00  0.0000000000000000e+00 0.0000000000000000e+00 0.0000000000000000e+00  0.0000000000000000e+00 0.0000000000000000e+00 0.0000000000000000e+00  0.0000000000000000e+00 0.0000000000000000e+00 0.0000000000000000e+00  0.0000000000000000e+00 0.0000000000000000e+00 0.0000000000000000e+00  0.0000000000000000e+00 0.0000000000000000e+00 0.0000000000000000e+00  -7.1598508548527638e-08 -1.1353818740759863e-06 0.0000000000000000e+00  -1.1007446585170227e-07 -1.2415090665791539e-06 0.0000000000000000e+00  -9.5226107176321554e-08 -1.3000913932490153e-06 0.0000000000000000e+00  -5.2893290818352043e-08 -1.3398021013639696e-06 0.0000000000000000e+00  -7.7358779297393348e-09 -1.3946385489766309e-06 0.0000000000000000e+00  3.0662868801343678e-08 -1.4771138717219798e-06 0.0000000000000000e+00  5.8309077096464517e-08 -1.5718526541195042e-06 0.0000000000000000e+00  7.4620276963902501e-08 -1.6853502472351792e-06 0.0000000000000000e+00  8.7880082173474475e-08 -1.8137771223137831e-06 0.0000000000000000e+00  8.5025913279948861e-08 -1.9551928672504088e-06 0.0000000000000000e+00  7.7991691102612171e-08 -2.1164253106097984e-06 0.0000000000000000e+00  5.5503348202917836e-08 -2.2877795533075244e-06 0.0000000000000000e+00  2.5969640642710811e-08 -2.4757274944786201e-06 0.0000000000000000e+00  -1.5520111160139885e-08 -2.6767515930460773e-06 0.0000000000000000e+00  -6.9352726496950879e-08 -2.8911138452334760e-06 0.0000000000000000e+00  -1.2766531680942559e-07 -3.1202751376785415e-06 0.0000000000000000e+00  -2.0213471286373685e-07 -3.3567446442080903e-06 0.0000000000000000e+00  -2.8306136538606901e-07 -3.6122485263484494e-06 0.0000000000000000e+00  -3.7880468779539818e-07 -3.8722080338495509e-06 0.0000000000000000e+00  -4.8097741228189346e-07 -4.1498660678748865e-06 0.0000000000000000e+00  -5.9707153554219463e-07 -4.4318599052433615e-06 0.0000000000000000e+00  -7.2300519518702943e-07 -4.7280775462805493e-06 0.0000000000000000e+00  -8.5907581804454410e-07 -5.0331428121494818e-06 0.0000000000000000e+00  -1.0077032266809696e-06 -5.3466177940056215e-06 0.0000000000000000e+00  -1.1622718055170947e-06 -5.6718107254960575e-06 0.0000000000000000e+00  -1.3307570173967672e-06 -6.0001905728066632e-06 0.0000000000000000e+00  -1.5100852884722488e-06 -6.3448511463322915e-06 0.0000000000000000e+00  -1.7000255223149136e-06 -6.6897596586900386e-06 0.0000000000000000e+00  -1.9008114509213310e-06 -7.0487568900521894e-06 0.0000000000000000e+00  -2.1123172388736587e-06 -7.4093282776909039e-06 0.0000000000000000e+00  -2.3340402336652607e-06 -7.7821101090860210e-06 0.0000000000000000e+00  -2.5675643313987536e-06 -8.1556715813234715e-06 0.0000000000000000e+00  -2.8102459730261073e-06 -8.5416301569551612e-06 0.0000000000000000e+00  -3.0651390041751466e-06 -8.9257177679470427e-06 0.0000000000000000e+00  -3.3313080690993397e-06 -9.3229377618564132e-06 0.0000000000000000e+00  -3.6080701258305909e-06 -9.7184771967076783e-06 0.0000000000000000e+00  -3.8951949531588545e-06 -1.0124807662439990e-05 0.0000000000000000e+00  -4.1934906761396793e-06 -1.0529279570546870e-05 0.0000000000000000e+00  -4.5028631490020843e-06 -1.0943330182065835e-05 0.0000000000000000e+00  -4.8242071546315247e-06 -1.1355194222924336e-05 0.0000000000000000e+00  -5.1572806146188625e-06 -1.1773689874949756e-05 0.0000000000000000e+00  -5.4999122020991084e-06 -1.2192019541668383e-05 0.0000000000000000e+00  -5.8559091315195356e-06 -1.2614307933209118e-05 0.0000000000000000e+00  -6.2181918204701664e-06 -1.3037033306761467e-05 0.0000000000000000e+00  -6.5931386896276435e-06 -1.3458156759934381e-05 0.0000000000000000e+00  -6.9706399765693560e-06 -1.3891238745949945e-05 0.0000000000000000e+00  -7.6917894000922379e-06 -1.4029325401915280e-05 0.0000000000000000e+00  -8.2826989070973502e-06 -1.3349856865430911e-05 0.0000000000000000e+00  -8.1558588167457928e-06 -1.2601375257246912e-05 0.0000000000000000e+00  -7.7733778505952743e-06 -1.2148305240513966e-05 0.0000000000000000e+00  -7.3931877354105576e-06 -1.1690167704540745e-05 0.0000000000000000e+00  -7.0245030088414300e-06 -1.1237303438223539e-05 0.0000000000000000e+00  -6.6626070453994739e-06 -1.0786540751890595e-05 0.0000000000000000e+00  -6.3140260433146911e-06 -1.0338639227358774e-05 0.0000000000000000e+00  -5.9727570137891844e-06 -9.8940678836866942e-06 0.0000000000000000e+00  -5.6440306101539825e-06 -9.4501960067302956e-06 0.0000000000000000e+00  -5.3238483016044490e-06 -9.0143079286692968e-06 0.0000000000000000e+00  -5.0151857908155091e-06 -8.5768605060972119e-06 0.0000000000000000e+00  -4.7151748368809413e-06 -8.1488520695971206e-06 0.0000000000000000e+00  -4.4268112836095267e-06 -7.7204938660409231e-06 0.0000000000000000e+00  -4.1465775584487762e-06 -7.3024332943058259e-06 0.0000000000000000e+00  -3.8779725459822700e-06 -6.8845681288823793e-06 0.0000000000000000e+00  -3.6172224856765367e-06 -6.4778291164546909e-06 0.0000000000000000e+00  -3.3683305513161715e-06 -6.0719738532866880e-06 0.0000000000000000e+00  -3.1271306653038272e-06 -5.6775338711067439e-06 0.0000000000000000e+00  -2.8982868972716457e-06 -5.2848088233371802e-06 0.0000000000000000e+00  -2.6767413184941572e-06 -4.9048588275429202e-06 0.0000000000000000e+00  -2.4673930380314874e-06 -4.5273458796702444e-06 0.0000000000000000e+00  -2.2649184792415309e-06 -4.1630395808026194e-06 0.0000000000000000e+00  -2.0749900251957478e-06 -3.8021456644834115e-06 0.0000000000000000e+00  -1.8933684117773687e-06 -3.4529365670024570e-06 0.0000000000000000e+00  -1.7215695998707178e-06 -3.1116038663631398e-06 0.0000000000000000e+00  -1.5619856365856547e-06 -2.7807242760792538e-06 0.0000000000000000e+00  -1.4062987902969177e-06 -2.4597686175855477e-06 0.0000000000000000e+00  -1.2638618727839585e-06 -2.1461222853270254e-06 0.0000000000000000e+00  -1.1293873573745378e-06 -1.8493295088301407e-06 0.0000000000000000e+00  -1.0059439502639617e-06 -1.5565156023475451e-06 0.0000000000000000e+00  -8.9107194461802648e-07 -1.2824228583581470e-06 0.0000000000000000e+00  -7.8682008630554304e-07 -1.0131209390409129e-06 0.0000000000000000e+00  -6.9086478434790171e-07 -7.6287582483745184e-07 0.0000000000000000e+00  -6.0436159634017289e-07 -5.2060478617623795e-07 0.0000000000000000e+00  -5.2933679741359510e-07 -2.9573469817617455e-07 0.0000000000000000e+00  -4.5766452887053123e-07 -8.1575976959141617e-08 0.0000000000000000e+00  -3.9889493279300579e-07 1.1788981924423708e-07 0.0000000000000000e+00  -3.4789450559302832e-07 2.9829970026660382e-07 0.0000000000000000e+00  -3.0734272225500448e-07 4.6814700974121955e-07 0.0000000000000000e+00  -2.7403246014829641e-07 6.1791578437099580e-07 0.0000000000000000e+00  -2.5053939641056364e-07 7.5477349345032321e-07 0.0000000000000000e+00  -2.3801466810595534e-07 8.7260981803291353e-07 0.0000000000000000e+00  -2.2694161015513394e-07 9.7524181885741764e-07 0.0000000000000000e+00  -2.2959731868258124e-07 1.0693960018027584e-06 0.0000000000000000e+00  -2.2175082717375146e-07 1.1424148352698323e-06 0.0000000000000000e+00  -1.9564449862214947e-07 1.1621748422374937e-06 0.0000000000000000e+00  -1.1483135152775453e-07 1.0979175916772171e-06 0.0000000000000000e+00  -3.4174503743890452e-07 -2.3405924804327531e-08 0.0000000000000000e+00  -7.3896600660033038e-06 -1.3030271762305707e-05 0.0000000000000000e+00  -6.6471268853798742e-06 -1.2194418344880263e-05 0.0000000000000000e+00  -5.5528968593241328e-06 -1.0830817752679963e-05 0.0000000000000000e+00  -1.5940226302111919e-07 -9.4240648188141089e-08 0.0000000000000000e+00  -4.9223115231171852e-06 -9.9813430974106606e-06 0.0000000000000000e+00  -1.1492153562304326e-07 -2.1936429796849739e-07 0.0000000000000000e+00  -4.3144043754860445e-06 -9.1387903203635466e-06 0.0000000000000000e+00  -1.1164504308900718e-07 -5.8124560695346241e-07 0.0000000000000000e+00  -1.5153726633545176e-07 -9.0228795591671269e-07 0.0000000000000000e+00  -3.7484799886532301e-06 -8.3140862944771118e-06 0.0000000000000000e+00  -4.3032063020742769e-07 -1.9327740090759149e-06 0.0000000000000000e+00  -2.7414687467325203e-06 -6.7300108112447776e-06 0.0000000000000000e+00  -2.2948725427670048e-07 -1.2430571186146599e-06 0.0000000000000000e+00  -6.0137818907874489e-07 -2.4429328514244903e-06 0.0000000000000000e+00  -2.2998725465408279e-06 -5.9764484677520634e-06 0.0000000000000000e+00  -3.2242196938641364e-06 -7.5101175404677231e-06 0.0000000000000000e+00  -8.1875819256784958e-07 -2.9956533894612384e-06 0.0000000000000000e+00  -1.8993633416205280e-06 -5.2526917387438381e-06 0.0000000000000000e+00  -1.0697953337574330e-06 -3.5540591543584688e-06 0.0000000000000000e+00  -1.5399619475943120e-06 -4.5872264681650865e-06 0.0000000000000000e+00  -1.2867754134367270e-06 -4.0409423352390933e-06 0.0000000000000000e+00  -3.1255609206526103e-07 -1.5749904122094377e-06 0.0000000000000000e+00  -6.1227756948244174e-06 -1.1525004348889840e-05 0.0000000000000000e+00  -1.0416320143658206e-07 -3.9098454129085564e-07 0.0000000000000000e+00  -7.2155659089487747e-06 -1.2377544809347682e-05 0.0000000000000000e+00  -2.4034369147717478e-07 4.0845936041079002e-07 0.0000000000000000e+00  -4.7768394246293984e-06 -9.3357600254724460e-06 0.0000000000000000e+00  -5.4085153047150140e-06 -1.0193633188715793e-05 0.0000000000000000e+00  -9.7238649832774205e-08 -5.8376851362138332e-07 0.0000000000000000e+00  -6.5476301046066340e-08 -1.0698238934895521e-06 0.0000000000000000e+00  -3.1293833146103337e-06 -6.8711905607313147e-06 0.0000000000000000e+00  -4.1865600076736649e-06 -8.4938191242106921e-06 0.0000000000000000e+00  -4.0938481718611874e-07 -2.4887586932688362e-06 0.0000000000000000e+00  -2.6619845756969727e-06 -6.0961315961672956e-06 0.0000000000000000e+00  -1.1481706522036297e-07 -1.4049512705039350e-06 0.0000000000000000e+00  -5.9836668456575386e-07 -3.0114337527012943e-06 0.0000000000000000e+00  -2.2352849910922833e-06 -5.3494041108475266e-06 0.0000000000000000e+00  -3.6375500801105648e-06 -7.6712544172845877e-06 0.0000000000000000e+00  -8.0015950794337527e-07 -3.6394499612996876e-06 0.0000000000000000e+00  -1.8487778848253292e-06 -4.6340132712104517e-06 0.0000000000000000e+00  -2.9268505367424930e-07 -2.7177098313399195e-07 0.0000000000000000e+00  -2.9344154067455786e-07 2.3923756428698235e-07 0.0000000000000000e+00  -7.5686557192244528e-06 -1.35