<?xml version="1.0"?>
<VTKFile type="UnstructuredGrid"  version="0.1"  >
<UnstructuredGrid>
<Piece  NumberOfPoints="1419" NumberOfCells="2698">
<Points>
<DataArray  type="Float64"  NumberOfComponents="3"  format="ascii">0 0 0  0 0.41 0  2.5 0 0  2.5 0.41 0  0.6 0.19 0  0.6 0.21 0  0.25 0.2 0  0.15 0.2 0  0.2489897948556636 0.21 0  0.2489897948556636 0.19 0  0.6 0.2 0  0 0.3807142857143437 0  0 0.3514285714286952 0  0 0.3221428571430699 0  0 0.29285714285744 0  0 0.2635714285718054 0  0 0.2342857142861561 0  0 0.2050000000005308 0  0 0.175714285714732 0  0 0.1464285714289574 0  0 0.1171428571431897 0  0 0.08785714285737878 0  0 0.05857142857161107 0  0 0.02928571428580012 0  0.03015443760436003 0 0  0.06140001986583606 0 0  0.09377624077125973 0 0  0.1273239957535082 0 0  0.1620856860351972 0 0  0.1981052433264291 0 0  0.235428184091502 0 0  0.2741016576309132 0 0  0.3141745521465447 0 0  0.3556974926295285 0 0  0.3987229542472677 0 0  0.4433053055141081 0 0  0.4895008759286886 0 0  0.5373680609405097 0 0  0.5869673343216626 0 0  0.6383613676634521 0 0  0.6916151138468254 0 0  0.7467958595648856 0 0  0.8039733463919316 0 0  0.8632198139502143 0 0  0.9246101326867038 0 0  0.9882218810934433 0 0  1.054135445558498 0 0  1.122434100542598 0 0  1.193204177141305 0 0  1.266535089879536 0 0  1.342519516046404 0 0  1.421253448503939 0 0  1.502836389106271 0 0  1.587371439758838 0 0  1.674965418777374 0 0  1.765729001825544 0 0  1.859776908880082 0 0  1.957227977487062 0 0  2.058205329869943 0 0  2.162836591189951 0 0  2.271253957290865 0 0  2.383594446803425 0 0  2.5 0.1024999999997612 0  2.5 0.2049999999994743 0  2.5 0.3074999999997183 0  2.383594446803656 0.41 0  2.271253957291315 0.41 0  2.162836591190598 0.41 0  2.058205329870775 0.41 0  1.957227977488067 0.41 0  1.859776908881246 0.41 0  1.765729001826854 0.41 0  1.674965418778818 0.41 0  1.58737143976041 0.41 0  1.502836389107956 0.41 0  1.421253448505726 0.41 0  1.342519516048286 0.41 0  1.266535089881505 0.41 0  1.193204177143353 0.41 0  1.122434100544716 0.41 0  1.05413544556068 0.41 0  0.9882218810956305 0.41 0  0.9246101326886647 0.41 0  0.8632198139519631 0.41 0  0.8039733463934788 0.41 0  0.7467958595662458 0.41 0  0.6916151138480078 0.41 0  0.6383613676644679 0.41 0  0.5869673343225223 0.41 0  0.5373680609412221 0.41 0  0.4895008759292634 0.41 0  0.4433053055145528 0.41 0  0.3987229542475914 0.41 0  0.3556974926297398 0.41 0  0.3141745521466497 0.41 0  0.2741016576310038 0.41 0  0.2354281840915826 0.41 0  0.1981052433265003 0.41 0  0.1620856860352591 0.41 0  0.1273239957535623 0.41 0  0.09377624077128965 0.41 0  0.06140001986584975 0.41 0  0.03015443760436654 0.41 0  0.2497468076502589 0.2050254481002335 0  0.2497468076502614 0.1949745518997913 0  0.2469965252529372 0.1829317073451959 0  0.2439893735792749 0.1762316384219906 0  0.2400332147834255 0.1700443375285386 0  0.2352133972704371 0.1645032867342007 0  0.2296339016332438 0.1597280261969788 0  0.2234150974217223 0.1558215752574715 0  0.2166911463437691 0.1528682099456123 0  0.2096071079204251 0.1509316448471593 0  0.2023158100364996 0.1500536585536553 0  0.194974551899914 0.1502531923497262 0  0.1877417105387872 0.1515259415822739 0  0.1807733240461124 0.153844448527136 0  0.1742197252835808 0.15715869474974 0  0.1682222986673531 0.1613971801805478 0  0.162910430003803 0.1664684656256651 0  0.1583987151779087 0.1722631454351573 0  0.1547844879126891 0.178656207771761 0  0.1521457199348551 0.1855097315605723 0  0.1505393388476355 0.1926758619366523 0  0.1505393388476328 0.2073241380633295 0  0.1521457199348437 0.2144902684393899 0  0.1547844879126531 0.221343792228163 0  0.1583987151778488 0.2277368545647528 0  0.1629104300036858 0.2335315343742052 0  0.1682222986671726 0.2386028198193036 0  0.1742197252833576 0.2428413052501257 0  0.1807733240458683 0.2461555514727623 0  0.1877417105384929 0.2484740584176516 0  0.1949745518995776 0.2497468076502398 0  0.202315810036185 0.2499463414463592 0  0.2096071079201568 0.2490683551528932 0  0.2166911463435495 0.2471317900544655 0  0.2234150974215506 0.2441784247426195 0  0.2296339016331197 0.2402719738031125 0  0.2352133972703547 0.2354967132658811 0  0.2400332147833751 0.2299556624715287 0  0.2439893735792577 0.2237683615780412 0  0.246996525252926 0.2170682926548348 0  0.25645809709277 0.21 0  0.2639263993298655 0.21 0  0.271394701566961 0.21 0  0.2788630038040554 0.21 0  0.2863313060411479 0.21 0  0.2937996082782405 0.21 0  0.301267910515333 0.21 0  0.3087362127524279 0.21 0  0.3162045149895234 0.21 0  0.3236728172265972 0.21 0  0.3311411194636928 0.21 0  0.3386094217007701 0.21 0  0.3460777239378666 0.21 0  0.3535460261749672 0.21 0  0.3610143284120516 0.21 0  0.3684826306491596 0.21 0  0.3759509328862226 0.21 0  0.383419235123329 0.21 0  0.3908875373604028 0.21 0  0.3983558395975142 0.21 0  0.4058241418345938 0.21 0  0.4132924440716992 0.21 0  0.4207607463087888 0.21 0  0.4282290485459029 0.21 0  0.4356973507830418 0.21 0  0.4431656530201649 0.21 0  0.4506339552573136 0.21 0  0.4581022574944306 0.21 0  0.4655705597315852 0.21 0  0.4730388619686996 0.21 0  0.480507164205851 0.21 0  0.4879754664429498 0.21 0  0.4954437686800938 0.21 0  0.502912070917267 0.21 0  0.5103803731544119 0.21 0  0.5178486753915261 0.21 0  0.5253169776286404 0.21 0  0.5327852798657868 0.21 0  0.5402535821029386 0.21 0  0.54772188434007 0.21 0  0.5551901865771842 0.21 0  0.5626584888143201 0.21 0  0.5701267910514778 0.21 0  0.5775950932886138 0.21 0  0.5850633955257281 0.21 0  0.5925316977628483 0.21 0  0.6 0.2050000000000054 0  0.6 0.1950000000000217 0  0.5925316977628897 0.19 0  0.5850633955257988 0.19 0  0.5775950932887378 0.19 0  0.5701267910515998 0.19 0  0.5626584888145268 0.19 0  0.5551901865773963 0.19 0  0.547721884340339 0.19 0  0.5402535821032429 0.19 0  0.5327852798661811 0.19 0  0.5253169776290537 0.19 0  0.5178486753919799 0.19 0  0.5103803731549078 0.19 0  0.502912070917822 0.19 0  0.4954437686807294 0.19 0  0.4879754664436223 0.19 0  0.4805071642065402 0.19 0  0.4730388619694271 0.19 0  0.4655705597323621 0.19 0  0.4581022574952563 0.19 0  0.4506339552581777 0.19 0  0.4431656530210671 0.19 0  0.4356973507839815 0.19 0  0.4282290485468779 0.19 0  0.4207607463097617 0.19 0  0.4132924440726327 0.19 0  0.4058241418354857 0.19 0  0.3983558395983636 0.19 0  0.3908875373612097 0.19 0  0.3834192351240934 0.19 0  0.3759509328869369 0.19 0  0.3684826306498175 0.19 0  0.361014328412667 0.19 0  0.3535460261755617 0.19 0  0.3460777239384295 0.19 0  0.3386094217012945 0.19 0  0.3311411194641595 0.19 0  0.3236728172270245 0.19 0  0.3162045149898895 0.19 0  0.3087362127527544 0.19 0  0.3012679105156187 0.19 0  0.2937996082784807 0.19 0  0.2863313060413428 0.19 0  0.2788630038042048 0.19 0  0.2713947015670686 0.19 0  0.2639263993299336 0.19 0  0.2564580970927985 0.19 0  0.2607803159922026 0.2000727136295815 0  0.5887803774232762 0.2001272386983733 0  0.5745072403740523 0.2002044435018727 0  0.5511891430099709 0.2001122610077113 0  0.2751288526855082 0.20000000000002 0  0.5365194309847112 0.1999999999999436 0  0.2894621222999649 0.1998691686390484 0  0.5215828265105155 0.1999999999999228 0  0.3127789816668748 0.1998657885438805 0  0.3274069683451451 0.2000000000000796 0  0.5066462220363641 0.199999999999908 0  0.3650630746574081 0.199866017807523 0  0.476773013087985 0.1999999999998713 0  0.3417402379596385 0.1998691686391011 0  0.3796850840047755 0.200000000000134 0  0.4618364086138087 0.1999999999998546 0  0.4917096175621762 0.1999999999998808 0  0.3946216884789568 0.2000000000001512 0  0.446899804139621 0.1999999999998389 0  0.4089549580935208 0.1998691686391595 0  0.4322718174608562 0.200127451265745 0  0.4201487168029707 0.1999966199048527 0  0.3528922713220932 0.2000185703532356 0  0.5633122436674589 0.1999814296467508 0  0.3006558810093873 0.1999966199048318 0  0.5815926498168407 0.1966545283159175 0  0.2677053789419034 0.1964246479135325 0  0.5290511287476175 0.1970915826863981 0  0.5439877332217911 0.197091582686394 0  0.2825131256993216 0.2035478995978015 0  0.3199386661080599 0.202908417313604 0  0.4842413153250809 0.1970915826863873 0  0.5141145242734466 0.1970915826863843 0  0.3722167817676917 0.2029084173136195 0  0.4693047108508938 0.1970915826863783 0  0.3348752705822316 0.202908417313609 0  0.3871533862418661 0.2029084173136212 0  0.4543681063767183 0.1970915826863795 0  0.4991779197992749 0.1970915826863902 0  0.4020059614928624 0.203547899597858 0  0.4394315019025246 0.1970915826863714 0  0.2550657455369551 0.2034088125358657 0  0.2548908499171161 0.1966940311614271 0  0.5946539510196798 0.2024302972968126 0  0.267698176732111 0.2039977513680092 0  0.4261685417851465 0.196409292431739 0  0.3590076176283495 0.196411355804271 0  0.5571672426447437 0.2036011176410121 0  0.3066757059912147 0.1964092924317024 0  0.594380730180568 0.1966558399668133 0  0.4842413153245942 0.2040749161535287 0  0.4693047108503577 0.2040749161535231 0  0.3871533862424271 0.1959250838464788 0  0.372246743208829 0.1959123236376545 0  0.5141145242731028 0.2040749161535395 0  0.4543681063761134 0.2040749161535186 0  0.4019979587101454 0.1959834479682427 0  0.4394608940728603 0.2040870543693135 0  0.5439623148931173 0.2040856076781014 0  0.5290511287473298 0.2040749161535501 0  0.4991779197988497 0.2040749161535382 0  0.3347912413592433 0.1959225448935183 0  0.3199680582793816 0.1959123018030061 0  0.2825051229162361 0.1959834479681729 0  0.3590471196690275 0.2036304442587945 0  0.5571594006495384 0.1963685282145804 0  0.3067669986803285 0.203627750582736 0  0.4262598344738712 0.2036568242185335 0  0.5814408164431408 0.2041285596160068 0  0.5688286748170428 0.1961819304477386 0  0.4145905603063645 0.2038180695522843 0  0.3473758401724931 0.2038180695522752 0  0.2950977245128307 0.2038180695522663 0  0.5688286748170693 0.203818069552238 0  0.2950977245127906 0.1961819304477774 0  0.3473758401723931 0.1961819304478349 0  0.4145905603061963 0.1961819304479011 0  0.2601812407614425 0.2056861609747042
[...]
<PointData  Vectors="f_40-1"> 
<DataArray  type="Float64"  Name="f_40-1"  NumberOfComponents="3" format="ascii">0.0000000000000000e+00 0.0000000000000000e+00 0.0000000000000000e+00  0.0000000000000000e+00 0.0000000000000000e+00 0.0000000000000000e+00  0.0000000000000000e+00 0.0000000000000000e+00 0.0000000000000000e+00  0.0000000000000000e+00 0.0000000000000000e+00 0.0000000000000000e+00  -8.8884242148635885e-06 -1.6858292074781373e-05 0.0000000000000000e+00  -7.3942896247315850e-06 -1.8354766009702853e-05 0.0000000000000000e+00  0.0000000000000000e+00 0.0000000000000000e+00 0.0000000000000000e+00  0.0000000000000000e+00 0.0000000000000000e+00 0.0000000000000000e+00  0.0000000000000000e+00 0.0000000000000000e+00 0.0000000000000000e+00  0.0000000000000000e+00 0.0000000000000000e+00 0.0000000000000000e+00  -8.2265282241817892e-06 -1.7607055275114109e-05 0.0000000000000000e+00  0.0000000000000000e+00 0.0000000000000000e+00 0.0000000000000000e+00  0.0000000000000000e+00 0.0000000000000000e+00 0.0000000000000000e+00  0.0000000000000000e+00 0.0000000000000000e+00 0.0000000000000000e+00  0.0000000000000000e+00 0.0000000000000000e+00 0.0000000000000000e+00  0.0000000000000000e+00 0.0000000000000000e+00 0.0000000000000000e+00  0.0000000000000000e+00 0.0000000000000000e+00 0.0000000000000000e+00  0.0000000000000000e+00 0.0000000000000000e+00 0.0000000000000000e+00  0.0000000000000000e+00 0.0000000000000000e+00 0.0000000000000000e+00  0.0000000000000000e+00 0.0000000000000000e+00 0.0000000000000000e+00  0.0000000000000000e+00 0.0000000000000000e+00 0.0000000000000000e+00  0.0000000000000000e+00 0.0000000000000000e+00 0.0000000000000000e+00  0.0000000000000000e+00 0.0000000000000000e+00 0.0000000000000000e+00  0.0000000000000000e+00 0.0000000000000000e+00 0.0000000000000000e+00  0.0000000000000000e+00 0.0000000000000000e+00 0.0000000000000000e+00  0.0000000000000000e+00 0.0000000000000000e+00 0.0000000000000000e+00  0.0000000000000000e+00 0.0000000000000000e+00 0.0000000000000000e+00  0.0000000000000000e+00 0.0000000000000000e+00 0.0000000000000000e+00  0.0000000000000000e+00 0.0000000000000000e+00 0.0000000000000000e+00  0.0000000000000000e+00 0.0000000000000000e+00 0.0000000000000000e+00  0.0000000000000000e+00 0.0000000000000000e+00 0.0000000000000000e+00  0.0000000000000000e+00 0.0000000000000000e+00 0.0000000000000000e+00  0.0000000000000000e+00 0.0000000000000000e+00 0.0000000000000000e+00  0.0000000000000000e+00 0.0000000000000000e+00 0.0000000000000000e+00  0.0000000000000000e+00 0.0000000000000000e+00 0.0000000000000000e+00  0.0000000000000000e+00 0.0000000000000000e+00 0.0000000000000000e+00  0.0000000000000000e+00 0.0000000000000000e+00 0.0000000000000000e+00  0.0000000000000000e+00 0.0000000000000000e+00 0.0000000000000000e+00  0.0000000000000000e+00 0.0000000000000000e+00 0.0000000000000000e+00  0.0000000000000000e+00 0.0000000000000000e+00 0.0000000000000000e+00  0.0000000000000000e+00 0.0000000000000000e+00 0.0000000000000000e+00  0.0000000000000000e+00 0.0000000000000000e+00 0.0000000000000000e+00  0.0000000000000000e+00 0.0000000000000000e+00 0.0000000000000000e+00  0.0000000000000000e+00 0.0000000000000000e+00 0.0000000000000000e+00  0.0000000000000000e+00 0.0000000000000000e+00 0.0000000000000000e+00  0.0000000000000000e+00 0.0000000000000000e+00 0.0000000000000000e+00  0.0000000000000000e+00 0.0000000000000000e+00 0.0000000000000000e+00  0.0000000000000000e+00 0.0000000000000000e+00 0.0000000000000000e+00  0.0000000000000000e+00 0.0000000000000000e+00 0.0000000000000000e+00  0.0000000000000000e+00 0.0000000000000000e+00 0.0000000000000000e+00  0.0000000000000000e+00 0.0000000000000000e+00 0.0000000000000000e+00  0.0000000000000000e+00 0.0000000000000000e+00 0.0000000000000000e+00  0.0000000000000000e+00 0.0000000000000000e+00 0.0000000000000000e+00  0.0000000000000000e+00 0.0000000000000000e+00 0.0000000000000000e+00  0.0000000000000000e+00 0.0000000000000000e+00 0.0000000000000000e+00  0.0000000000000000e+00 0.0000000000000000e+00 0.0000000000000000e+00  0.0000000000000000e+00 0.0000000000000000e+00 0.0000000000000000e+00  0.0000000000000000e+00 0.0000000000000000e+00 0.0000000000000000e+00  0.0000000000000000e+00 0.0000000000000000e+00 0.0000000000000000e+00  0.0000000000000000e+00 0.0000000000000000e+00 0.0000000000000000e+00  0.0000000000000000e+00 0.0000000000000000e+00 0.0000000000000000e+00  0.0000000000000000e+00 0.0000000000000000e+00 0.0000000000000000e+00  0.0000000000000000e+00 0.0000000000000000e+00 0.0000000000000000e+00  0.0000000000000000e+00 0.0000000000000000e+00 0.0000000000000000e+00  0.0000000000000000e+00 0.0000000000000000e+00 0.0000000000000000e+00  0.0000000000000000e+00 0.0000000000000000e+00 0.0000000000000000e+00  0.0000000000000000e+00 0.0000000000000000e+00 0.0000000000000000e+00  0.0000000000000000e+00 0.0000000000000000e+00 0.0000000000000000e+00  0.0000000000000000e+00 0.0000000000000000e+00 0.0000000000000000e+00  0.0000000000000000e+00 0.0000000000000000e+00 0.0000000000000000e+00  0.0000000000000000e+00 0.0000000000000000e+00 0.0000000000000000e+00  0.0000000000000000e+00 0.0000000000000000e+00 0.0000000000000000e+00  0.0000000000000000e+00 0.0000000000000000e+00 0.0000000000000000e+00  0.0000000000000000e+00 0.0000000000000000e+00 0.0000000000000000e+00  0.0000000000000000e+00 0.0000000000000000e+00 0.0000000000000000e+00  0.0000000000000000e+00 0.0000000000000000e+00 0.0000000000000000e+00  0.0000000000000000e+00 0.0000000000000000e+00 0.0000000000000000e+00  0.0000000000000000e+00 0.0000000000000000e+00 0.0000000000000000e+00  0.0000000000000000e+00 0.0000000000000000e+00 0.0000000000000000e+00  0.0000000000000000e+00 0.0000000000000000e+00 0.0000000000000000e+00  0.0000000000000000e+00 0.0000000000000000e+00 0.0000000000000000e+00  0.0000000000000000e+00 0.0000000000000000e+00 0.0000000000000000e+00  0.0000000000000000e+00 0.0000000000000000e+00 0.0000000000000000e+00  0.0000000000000000e+00 0.0000000000000000e+00 0.0000000000000000e+00  0.0000000000000000e+00 0.0000000000000000e+00 0.0000000000000000e+00  0.0000000000000000e+00 0.0000000000000000e+00 0.0000000000000000e+00  0.0000000000000000e+00 0.0000000000000000e+00 0.0000000000000000e+00  0.0000000000000000e+00 0.0000000000000000e+00 0.0000000000000000e+00  0.0000000000000000e+00 0.0000000000000000e+00 0.0000000000000000e+00  0.0000000000000000e+00 0.0000000000000000e+00 0.0000000000000000e+00  0.0000000000000000e+00 0.0000000000000000e+00 0.0000000000000000e+00  0.0000000000000000e+00 0.0000000000000000e+00 0.0000000000000000e+00  0.0000000000000000e+00 0.0000000000000000e+00 0.0000000000000000e+00  0.0000000000000000e+00 0.0000000000000000e+00 0.0000000000000000e+00  0.0000000000000000e+00 0.0000000000000000e+00 0.0000000000000000e+00  0.0000000000000000e+00 0.0000000000000000e+00 0.0000000000000000e+00  0.0000000000000000e+00 0.0000000000000000e+00 0.0000000000000000e+00  0.0000000000000000e+00 0.0000000000000000e+00 0.0000000000000000e+00  0.0000000000000000e+00 0.0000000000000000e+00 0.0000000000000000e+00  0.0000000000000000e+00 0.0000000000000000e+00 0.0000000000000000e+00  0.0000000000000000e+00 0.0000000000000000e+00 0.0000000000000000e+00  0.0000000000000000e+00 0.0000000000000000e+00 0.0000000000000000e+00  0.0000000000000000e+00 0.0000000000000000e+00 0.0000000000000000e+00  0.0000000000000000e+00 0.0000000000000000e+00 0.0000000000000000e+00  0.0000000000000000e+00 0.0000000000000000e+00 0.0000000000000000e+00  0.0000000000000000e+00 0.0000000000000000e+00 0.0000000000000000e+00  0.0000000000000000e+00 0.0000000000000000e+00 0.0000000000000000e+00  0.0000000000000000e+00 0.0000000000000000e+00 0.0000000000000000e+00  0.0000000000000000e+00 0.0000000000000000e+00 0.0000000000000000e+00  0.0000000000000000e+00 0.0000000000000000e+00 0.0000000000000000e+00  0.0000000000000000e+00 0.0000000000000000e+00 0.0000000000000000e+00  0.0000000000000000e+00 0.0000000000000000e+00 0.0000000000000000e+00  0.0000000000000000e+00 0.0000000000000000e+00 0.0000000000000000e+00  0.0000000000000000e+00 0.0000000000000000e+00 0.0000000000000000e+00  0.0000000000000000e+00 0.0000000000000000e+00 0.0000000000000000e+00  0.0000000000000000e+00 0.0000000000000000e+00 0.0000000000000000e+00  0.0000000000000000e+00 0.0000000000000000e+00 0.0000000000000000e+00  0.0000000000000000e+00 0.0000000000000000e+00 0.0000000000000000e+00  0.0000000000000000e+00 0.0000000000000000e+00 0.0000000000000000e+00  0.0000000000000000e+00 0.0000000000000000e+00 0.0000000000000000e+00  0.0000000000000000e+00 0.0000000000000000e+00 0.0000000000000000e+00  0.0000000000000000e+00 0.0000000000000000e+00 0.0000000000000000e+00  0.0000000000000000e+00 0.0000000000000000e+00 0.0000000000000000e+00  0.0000000000000000e+00 0.0000000000000000e+00 0.0000000000000000e+00  0.0000000000000000e+00 0.0000000000000000e+00 0.0000000000000000e+00  0.0000000000000000e+00 0.0000000000000000e+00 0.0000000000000000e+00  0.0000000000000000e+00 0.0000000000000000e+00 0.0000000000000000e+00  0.0000000000000000e+00 0.0000000000000000e+00 0.0000000000000000e+00  0.0000000000000000e+00 0.0000000000000000e+00 0.0000000000000000e+00  0.0000000000000000e+00 0.0000000000000000e+00 0.0000000000000000e+00  0.0000000000000000e+00 0.0000000000000000e+00 0.0000000000000000e+00  0.0000000000000000e+00 0.0000000000000000e+00 0.0000000000000000e+00  0.0000000000000000e+00 0.0000000000000000e+00 0.0000000000000000e+00  0.0000000000000000e+00 0.0000000000000000e+00 0.0000000000000000e+00  0.0000000000000000e+00 0.0000000000000000e+00 0.0000000000000000e+00  0.0000000000000000e+00 0.0000000000000000e+00 0.0000000000000000e+00  0.0000000000000000e+00 0.0000000000000000e+00 0.0000000000000000e+00  0.0000000000000000e+00 0.0000000000000000e+00 0.0000000000000000e+00  0.0000000000000000e+00 0.0000000000000000e+00 0.0000000000000000e+00  0.0000000000000000e+00 0.0000000000000000e+00 0.0000000000000000e+00  0.0000000000000000e+00 0.0000000000000000e+00 0.0000000000000000e+00  0.0000000000000000e+00 0.0000000000000000e+00 0.0000000000000000e+00  0.0000000000000000e+00 0.0000000000000000e+00 0.0000000000000000e+00  -5.6965027159377904e-08 -1.2560490594108702e-06 0.0000000000000000e+00  -7.5897853912423499e-08 -1.3805658818170638e-06 0.0000000000000000e+00  -3.6676737882375513e-08 -1.4572215392855917e-06 0.0000000000000000e+00  3.3193982395347831e-08 -1.5180663285722391e-06 0.0000000000000000e+00  1.0482040529081650e-07 -1.5994475825124843e-06 0.0000000000000000e+00  1.6946879849921867e-07 -1.7157008104530109e-06 0.0000000000000000e+00  2.2083445361926526e-07 -1.8485914721410426e-06 0.0000000000000000e+00  2.5927063534394762e-07 -2.0062409222622799e-06 0.0000000000000000e+00  2.9476075688091116e-07 -2.1834310258857198e-06 0.0000000000000000e+00  3.1091035158114885e-07 -2.3779212708821569e-06 0.0000000000000000e+00  3.2299006049555495e-07 -2.5974186080334862e-06 0.0000000000000000e+00  3.1657167891085474e-07 -2.8305523037283064e-06 0.0000000000000000e+00  3.0263870234728575e-07 -3.0846293119155856e-06 0.0000000000000000e+00  2.7448061344494371e-07 -3.3550859741402983e-06 0.0000000000000000e+00  2.3232484154360758e-07 -3.6425921739158065e-06 0.0000000000000000e+00  1.8533040242998231e-07 -3.9482092815409244e-06 0.0000000000000000e+00  1.1945936528786024e-07 -4.2634693431277370e-06 0.0000000000000000e+00  4.6601125807546129e-08 -4.6015280585762270e-06 0.0000000000000000e+00  -4.3527094521654657e-08 -4.9456739779924176e-06 0.0000000000000000e+00  -1.4069247189206290e-07 -5.3107928028037953e-06 0.0000000000000000e+00  -2.5392338662352259e-07 -5.6816578622147423e-06 0.0000000000000000e+00  -3.7815882480860609e-07 -6.0694233071036800e-06 0.0000000000000000e+00  -5.1411692897205361e-07 -6.4676877310170055e-06 0.0000000000000000e+00  -6.6421265511069671e-07 -6.8761468341624994e-06 0.0000000000000000e+00  -8.2098528758627878e-07 -7.2981967188339319e-06 0.0000000000000000e+00  -9.9360398642555736e-07 -7.7243305959321310e-06 0.0000000000000000e+00  -1.1784550435669622e-06 -8.1691534859537974e-06 0.0000000000000000e+00  -1.3753577986089860e-06 -8.6145235503174734e-06 0.0000000000000000e+00  -1.5844874226209541e-06 -9.0760266546401489e-06 0.0000000000000000e+00  -1.8057665117938949e-06 -9.5394098492151668e-06 0.0000000000000000e+00  -2.0385713297273539e-06 -1.0016714997129425e-05 0.0000000000000000e+00  -2.2846869875113545e-06 -1.0494899270055819e-05 0.0000000000000000e+00  -2.5411599819225230e-06 -1.0987093908943720e-05 0.0000000000000000e+00  -2.8113913408781697e-06 -1.1477196748587973e-05 0.0000000000000000e+00  -3.0942994819336686e-06 -1.1982062771976988e-05 0.0000000000000000e+00  -3.3891522045584407e-06 -1.2484950248810497e-05 0.0000000000000000e+00  -3.6956713032335950e-06 -1.2999936321020932e-05 0.0000000000000000e+00  -4.0147635626524447e-06 -1.3512722889582357e-05 0.0000000000000000e+00  -4.3463076213898238e-06 -1.4036255877640161e-05 0.0000000000000000e+00  -4.6913069662765651e-06 -1.4557209256221051e-05 0.0000000000000000e+00  -5.0495153598263332e-06 -1.5085563514800561e-05 0.0000000000000000e+00  -5.4184716901659281e-06 -1.5613661355120107e-05 0.0000000000000000e+00  -5.8023950129777757e-06 -1.6146143534355355e-05 0.0000000000000000e+00  -6.1934010817598790e-06 -1.6679064332583732e-05 0.0000000000000000e+00  -6.5986745381181863e-06 -1.7210054086596756e-05 0.0000000000000000e+00  -7.0066698997147471e-06 -1.7754597214281097e-05 0.0000000000000000e+00  -7.8405666944231087e-06 -1.7978558160513620e-05 0.0000000000000000e+00  -8.5819701490286214e-06 -1.7235739700227214e-05 0.0000000000000000e+00  -8.4933508931274627e-06 -1.6347839099302991e-05 0.0000000000000000e+00  -8.0797505525475487e-06 -1.5781000574242812e-05 0.0000000000000000e+00  -7.6686248799791937e-06 -1.5208365627374000e-05 0.0000000000000000e+00  -7.2705181702261313e-06 -1.4641740003049791e-05 0.0000000000000000e+00  -6.8800571128303996e-06 -1.4077452706811517e-05 0.0000000000000000e+00  -6.5045454528487654e-06 -1.3516325256183526e-05 0.0000000000000000e+00  -6.1372997507303396e-06 -1.2958926218355783e-05 0.0000000000000000e+00  -5.7841592272448612e-06 -1.2402173167354714e-05 0.0000000000000000e+00  -5.4406581432021391e-06 -1.1854414297138996e-05 0.0000000000000000e+00  -5.1100826529672428e-06 -1.1304765255849754e-05 0.0000000000000000e+00  -4.7892286520399647e-06 -1.0765729331055088e-05 0.0000000000000000e+00  -4.4814286583382943e-06 -1.0226154374951539e-05 0.0000000000000000e+00  -4.1827538665638844e-06 -9.6981767430645022e-06 0.0000000000000000e+00  -3.8971079084796500e-06 -9.1703439878619887e-06 0.0000000000000000e+00  -3.6202415766774249e-06 -8.6550914475556277e-06 0.0000000000000000e+00  -3.3566712223422585e-06 -8.1408232196528681e-06 0.0000000000000000e+00  -3.1016385946161336e-06 -7.6395241464539220e-06 0.0000000000000000e+00  -2.8604653234250209e-06 -7.1402037691012614e-06 0.0000000000000000e+00  -2.6273561377650622e-06 -6.6554688698236740e-06 0.0000000000000000e+00  -2.4079556090896045e-06 -6.1736750622402256e-06 0.0000000000000000e+00  -2.1960741435329340e-06 -5.7070813032034586e-06 0.0000000000000000e+00  -1.9983303969883749e-06 -5.2446576450544714e-06 0.0000000000000000e+00  -1.8096541209574903e-06 -4.7958727404334885e-06 0.0000000000000000e+00  -1.6320613432086448e-06 -4.3563686670206137e-06 0.0000000000000000e+00  -1.4680341700293618e-06 -3.9293589155376188e-06 0.0000000000000000e+00  -1.3081190445311079e-06 -3.5140468219824948e-06 0.0000000000000000e+00  -1.1630828759547058e-06 -3.1078605891505982e-06 0.0000000000000000e+00  -1.0267490410892465e-06 -2.7214660326517505e-06 0.0000000000000000e+00  -9.0274662770079832e-07 -2.3406593149961153e-06 0.0000000000000000e+00  -7.8807680052459401e-07 -1.9819650827451514e-06 0.0000000000000000e+00  -6.8529870785496445e-07 -1.6299634449567595e-06 0.0000000000000000e+00  -5.9133627005206936e-07 -1.3009848442503313e-06 0.0000000000000000e+00  -5.0820625240693885e-07 -9.8234086903737705e-07 0.0000000000000000e+00  -4.3772937497058736e-07 -6.8534719022811815e-07 0.0000000000000000e+00  -3.7036333863080225e-07 -4.0195694201491101e-07 0.0000000000000000e+00  -3.1756339587879226e-07 -1.3746165642177438e-07 0.0000000000000000e+00  -2.7301716655463260e-07 1.0335193481486120e-07 0.0000000000000000e+00  -2.4022622747003049e-07 3.2976265914438203e-07 0.0000000000000000e+00  -2.1474877902143134e-07 5.3054525361670667e-07 0.0000000000000000e+00  -2.0077128061929620e-07 7.1432838113604505e-07 0.0000000000000000e+00  -1.9885786791242960e-07 8.7296459595044058e-07 0.0000000000000000e+00  -1.9751305673636904e-07 1.0117579917441625e-06 0.0000000000000000e+00  -2.1184915557484329e-07 1.1368138274356944e-06 0.0000000000000000e+00  -2.1373949489786509e-07 1.2341361721639571e-06 0.0000000000000000e+00  -1.9612116692054723e-07 1.2682004268051481e-06 0.0000000000000000e+00  -1.1683605892495973e-07 1.2048603848055747e-06 0.0000000000000000e+00  -3.5138079755133549e-07 -3.1094635322638728e-08 0.0000000000000000e+00  -7.5628638620005968e-06 -1.6779150416083787e-05 0.0000000000000000e+00  -6.7583417572760861e-06 -1.5729277653055327e-05 0.0000000000000000e+00  -5.5798517041437303e-06 -1.4016471427742495e-05 0.0000000000000000e+00  -1.1812135691206111e-07 -1.3353778676579326e-07 0.0000000000000000e+00  -4.9039301031586486e-06 -1.2948143330609123e-05 0.0000000000000000e+00  -3.7441421619709206e-08 -3.1201979402588295e-07 0.0000000000000000e+00  -4.2532003533659124e-06 -1.1884995597155209e-05 0.0000000000000000e+00  1.6701131009408793e-08 -8.0701652559269614e-07 0.0000000000000000e+00  4.1773328749243235e-09 -1.2374564051765218e-06 0.0000000000000000e+00  -3.6496569465981606e-06 -1.0841626417684317e-05 0.0000000000000000e+00  -2.2839303175732748e-07 -2.6157516818970011e-06 0.0000000000000000e+00  -2.5828357229878372e-06 -8.8281512406902672e-06 0.0000000000000000e+00  -5.3079709552495199e-08 -1.6984485464927432e-06 0.0000000000000000e+00  -3.8813062521829713e-07 -3.2857595505614884e-06 0.0000000000000000e+00  -2.1189714447013358e-06 -7.8650900787784395e-06 0.0000000000000000e+00  -3.0929290449218924e-06 -9.8214298374112779e-06 0.0000000000000000e+00  -6.0008696174414831e-07 -4.0108611192716224e-06 0.0000000000000000e+00  -1.7012659191957799e-06 -6.9363616507460393e-06 0.0000000000000000e+00  -8.5210792942712942e-07 -4.7421365943387203e-06 0.0000000000000000e+00  -1.3280855060409864e-06 -6.0765373864489775e-06 0.0000000000000000e+00  -1.0708426652055207e-06 -5.3718470081395692e-06 0.0000000000000000e+00  -1.2148577449457405e-07 -2.1371976988604639e-06 0.0000000000000000e+00  -6.1950855086465611e-06 -1.4890826581051408e-05 0.0000000000000000e+00  -7.0926629624821204e-10 -5.4355376037994568e-07 0.0000000000000000e+00  -7.4093750693588360e-06 -1.5997521445148484e-05 0.0000000000000000e+00  -2.2976063175556260e-07 4.3459758858288262e-07 0.0000000000000000e+00  -4.7792782479719971e-06 -1.2170971489559599e-05 0.0000000000000000e+00  -5.4566707286233844e-06 -1.3251116185845544e-05 0.0000000000000000e+00  -2.3286905320919226e-08 -6.9242342902307582e-07 0.0000000000000000e+00  9.8429983025031723e-08 -1.3814971039726998e-06 0.0000000000000000e+00  -3.0251986728490227e-06 -9.0517570432438638e-06 0.0000000000000000e+00  -4.1483989949994391e-06 -1.1108441154164104e-05 0.0000000000000000e+00  -1.6936747708927552e-07 -3.2799346672553925e-06 0.0000000000000000e+00  -2.5322519353300656e-06 -8.0643857562788973e-06 0.0000000000000000e+00  7.7208257429104262e-08 -1.8346169245511347e-06 0.0000000000000000e+00  -3.4845900217752468e-07 -3.9690225184365508e-06 0.0000000000000000e+00  -2.0849450029704437e-06 -7.1094445900358213e-06 0.0000000000000000e+00  -3.5638732989147543e-06 -1.0067459701582843e-05 0.0000000000000000e+00  -5.3770645947101351e-07 -4.7787007698601732e-06 0.0000000000000000e+00  -1.6826968672148880e-06 -6.1908246848263038e-06 0.0000000000000000e+00  -3.0940207509696676e-07 -3.0079764646042819e-07 0.0000000000000000e+00  -3.1267022032575475e-07 2.6276849340659345e-07 0.0000000000000000e+00  -7.7337345559799462e-06 -1.737912110907