<?xml version="1.0"?>
<VTKFile type="UnstructuredGrid"  version="0.1"  >
<UnstructuredGrid>
<Piece  NumberOfPoints="1419" NumberOfCells="2698">
<Points>
<DataArray  type="Float64"  NumberOfComponents="3"  format="ascii">0 0 0  0 0.41 0  2.5 0 0  2.5 0.41 0  0.6 0.19 0  0.6 0.21 0  0.25 0.2 0  0.15 0.2 0  0.2489897948556636 0.21 0  0.2489897948556636 0.19 0  0.6 0.2 0  0 0.3807142857143437 0  0 0.3514285714286952 0  0 0.3221428571430699 0  0 0.29285714285744 0  0 0.2635714285718054 0  0 0.2342857142861561 0  0 0.2050000000005308 0  0 0.175714285714732 0  0 0.1464285714289574 0  0 0.1171428571431897 0  0 0.08785714285737878 0  0 0.05857142857161107 0  0 0.02928571428580012 0  0.03015443760436003 0 0  0.06140001986583606 0 0  0.09377624077125973 0 0  0.1273239957535082 0 0  0.1620856860351972 0 0  0.1981052433264291 0 0  0.235428184091502 0 0  0.2741016576309132 0 0  0.3141745521465447 0 0  0.3556974926295285 0 0  0.3987229542472677 0 0  0.4433053055141081 0 0  0.4895008759286886 0 0  0.5373680609405097 0 0  0.5869673343216626 0 0  0.6383613676634521 0 0  0.6916151138468254 0 0  0.7467958595648856 0 0  0.8039733463919316 0 0  0.8632198139502143 0 0  0.9246101326867038 0 0  0.9882218810934433 0 0  1.054135445558498 0 0  1.122434100542598 0 0  1.193204177141305 0 0  1.266535089879536 0 0  1.342519516046404 0 0  1.421253448503939 0 0  1.502836389106271 0 0  1.587371439758838 0 0  1.674965418777374 0 0  1.765729001825544 0 0  1.859776908880082 0 0  1.957227977487062 0 0  2.058205329869943 0 0  2.162836591189951 0 0  2.271253957290865 0 0  2.383594446803425 0 0  2.5 0.1024999999997612 0  2.5 0.2049999999994743 0  2.5 0.3074999999997183 0  2.383594446803656 0.41 0  2.271253957291315 0.41 0  2.162836591190598 0.41 0  2.058205329870775 0.41 0  1.957227977488067 0.41 0  1.859776908881246 0.41 0  1.765729001826854 0.41 0  1.674965418778818 0.41 0  1.58737143976041 0.41 0  1.502836389107956 0.41 0  1.421253448505726 0.41 0  1.342519516048286 0.41 0  1.266535089881505 0.41 0  1.193204177143353 0.41 0  1.122434100544716 0.41 0  1.05413544556068 0.41 0  0.9882218810956305 0.41 0  0.9246101326886647 0.41 0  0.8632198139519631 0.41 0  0.8039733463934788 0.41 0  0.7467958595662458 0.41 0  0.6916151138480078 0.41 0  0.6383613676644679 0.41 0  0.5869673343225223 0.41 0  0.5373680609412221 0.41 0  0.4895008759292634 0.41 0  0.4433053055145528 0.41 0  0.3987229542475914 0.41 0  0.3556974926297398 0.41 0  0.3141745521466497 0.41 0  0.2741016576310038 0.41 0  0.2354281840915826 0.41 0  0.1981052433265003 0.41 0  0.1620856860352591 0.41 0  0.1273239957535623 0.41 0  0.09377624077128965 0.41 0  0.06140001986584975 0.41 0  0.03015443760436654 0.41 0  0.2497468076502589 0.2050254481002335 0  0.2497468076502614 0.1949745518997913 0  0.2469965252529372 0.1829317073451959 0  0.2439893735792749 0.1762316384219906 0  0.2400332147834255 0.1700443375285386 0  0.2352133972704371 0.1645032867342007 0  0.2296339016332438 0.1597280261969788 0  0.2234150974217223 0.1558215752574715 0  0.2166911463437691 0.1528682099456123 0  0.2096071079204251 0.1509316448471593 0  0.2023158100364996 0.1500536585536553 0  0.194974551899914 0.1502531923497262 0  0.1877417105387872 0.1515259415822739 0  0.1807733240461124 0.153844448527136 0  0.1742197252835808 0.15715869474974 0  0.1682222986673531 0.1613971801805478 0  0.162910430003803 0.1664684656256651 0  0.1583987151779087 0.1722631454351573 0  0.1547844879126891 0.178656207771761 0  0.1521457199348551 0.1855097315605723 0  0.1505393388476355 0.1926758619366523 0  0.1505393388476328 0.2073241380633295 0  0.1521457199348437 0.2144902684393899 0  0.1547844879126531 0.221343792228163 0  0.1583987151778488 0.2277368545647528 0  0.1629104300036858 0.2335315343742052 0  0.1682222986671726 0.2386028198193036 0  0.1742197252833576 0.2428413052501257 0  0.1807733240458683 0.2461555514727623 0  0.1877417105384929 0.2484740584176516 0  0.1949745518995776 0.2497468076502398 0  0.202315810036185 0.2499463414463592 0  0.2096071079201568 0.2490683551528932 0  0.2166911463435495 0.2471317900544655 0  0.2234150974215506 0.2441784247426195 0  0.2296339016331197 0.2402719738031125 0  0.2352133972703547 0.2354967132658811 0  0.2400332147833751 0.2299556624715287 0  0.2439893735792577 0.2237683615780412 0  0.246996525252926 0.2170682926548348 0  0.25645809709277 0.21 0  0.2639263993298655 0.21 0  0.271394701566961 0.21 0  0.2788630038040554 0.21 0  0.2863313060411479 0.21 0  0.2937996082782405 0.21 0  0.301267910515333 0.21 0  0.3087362127524279 0.21 0  0.3162045149895234 0.21 0  0.3236728172265972 0.21 0  0.3311411194636928 0.21 0  0.3386094217007701 0.21 0  0.3460777239378666 0.21 0  0.3535460261749672 0.21 0  0.3610143284120516 0.21 0  0.3684826306491596 0.21 0  0.3759509328862226 0.21 0  0.383419235123329 0.21 0  0.3908875373604028 0.21 0  0.3983558395975142 0.21 0  0.4058241418345938 0.21 0  0.4132924440716992 0.21 0  0.4207607463087888 0.21 0  0.4282290485459029 0.21 0  0.4356973507830418 0.21 0  0.4431656530201649 0.21 0  0.4506339552573136 0.21 0  0.4581022574944306 0.21 0  0.4655705597315852 0.21 0  0.4730388619686996 0.21 0  0.480507164205851 0.21 0  0.4879754664429498 0.21 0  0.4954437686800938 0.21 0  0.502912070917267 0.21 0  0.5103803731544119 0.21 0  0.5178486753915261 0.21 0  0.5253169776286404 0.21 0  0.5327852798657868 0.21 0  0.5402535821029386 0.21 0  0.54772188434007 0.21 0  0.5551901865771842 0.21 0  0.5626584888143201 0.21 0  0.5701267910514778 0.21 0  0.5775950932886138 0.21 0  0.5850633955257281 0.21 0  0.5925316977628483 0.21 0  0.6 0.2050000000000054 0  0.6 0.1950000000000217 0  0.5925316977628897 0.19 0  0.5850633955257988 0.19 0  0.5775950932887378 0.19 0  0.5701267910515998 0.19 0  0.5626584888145268 0.19 0  0.5551901865773963 0.19 0  0.547721884340339 0.19 0  0.5402535821032429 0.19 0  0.5327852798661811 0.19 0  0.5253169776290537 0.19 0  0.5178486753919799 0.19 0  0.5103803731549078 0.19 0  0.502912070917822 0.19 0  0.4954437686807294 0.19 0  0.4879754664436223 0.19 0  0.4805071642065402 0.19 0  0.4730388619694271 0.19 0  0.4655705597323621 0.19 0  0.4581022574952563 0.19 0  0.4506339552581777 0.19 0  0.4431656530210671 0.19 0  0.4356973507839815 0.19 0  0.4282290485468779 0.19 0  0.4207607463097617 0.19 0  0.4132924440726327 0.19 0  0.4058241418354857 0.19 0  0.3983558395983636 0.19 0  0.3908875373612097 0.19 0  0.3834192351240934 0.19 0  0.3759509328869369 0.19 0  0.3684826306498175 0.19 0  0.361014328412667 0.19 0  0.3535460261755617 0.19 0  0.3460777239384295 0.19 0  0.3386094217012945 0.19 0  0.3311411194641595 0.19 0  0.3236728172270245 0.19 0  0.3162045149898895 0.19 0  0.3087362127527544 0.19 0  0.3012679105156187 0.19 0  0.2937996082784807 0.19 0  0.2863313060413428 0.19 0  0.2788630038042048 0.19 0  0.2713947015670686 0.19 0  0.2639263993299336 0.19 0  0.2564580970927985 0.19 0  0.2607803159922026 0.2000727136295815 0  0.5887803774232762 0.2001272386983733 0  0.5745072403740523 0.2002044435018727 0  0.5511891430099709 0.2001122610077113 0  0.2751288526855082 0.20000000000002 0  0.5365194309847112 0.1999999999999436 0  0.2894621222999649 0.1998691686390484 0  0.5215828265105155 0.1999999999999228 0  0.3127789816668748 0.1998657885438805 0  0.3274069683451451 0.2000000000000796 0  0.5066462220363641 0.199999999999908 0  0.3650630746574081 0.199866017807523 0  0.476773013087985 0.1999999999998713 0  0.3417402379596385 0.1998691686391011 0  0.3796850840047755 0.200000000000134 0  0.4618364086138087 0.1999999999998546 0  0.4917096175621762 0.1999999999998808 0  0.3946216884789568 0.2000000000001512 0  0.446899804139621 0.1999999999998389 0  0.4089549580935208 0.1998691686391595 0  0.4322718174608562 0.200127451265745 0  0.4201487168029707 0.1999966199048527 0  0.3528922713220932 0.2000185703532356 0  0.5633122436674589 0.1999814296467508 0  0.3006558810093873 0.1999966199048318 0  0.5815926498168407 0.1966545283159175 0  0.2677053789419034 0.1964246479135325 0  0.5290511287476175 0.1970915826863981 0  0.5439877332217911 0.197091582686394 0  0.2825131256993216 0.2035478995978015 0  0.3199386661080599 0.202908417313604 0  0.4842413153250809 0.1970915826863873 0  0.5141145242734466 0.1970915826863843 0  0.3722167817676917 0.2029084173136195 0  0.4693047108508938 0.1970915826863783 0  0.3348752705822316 0.202908417313609 0  0.3871533862418661 0.2029084173136212 0  0.4543681063767183 0.1970915826863795 0  0.4991779197992749 0.1970915826863902 0  0.4020059614928624 0.203547899597858 0  0.4394315019025246 0.1970915826863714 0  0.2550657455369551 0.2034088125358657 0  0.2548908499171161 0.1966940311614271 0  0.5946539510196798 0.2024302972968126 0  0.267698176732111 0.2039977513680092 0  0.4261685417851465 0.196409292431739 0  0.3590076176283495 0.196411355804271 0  0.5571672426447437 0.2036011176410121 0  0.3066757059912147 0.1964092924317024 0  0.594380730180568 0.1966558399668133 0  0.4842413153245942 0.2040749161535287 0  0.4693047108503577 0.2040749161535231 0  0.3871533862424271 0.1959250838464788 0  0.372246743208829 0.1959123236376545 0  0.5141145242731028 0.2040749161535395 0  0.4543681063761134 0.2040749161535186 0  0.4019979587101454 0.1959834479682427 0  0.4394608940728603 0.2040870543693135 0  0.5439623148931173 0.2040856076781014 0  0.5290511287473298 0.2040749161535501 0  0.4991779197988497 0.2040749161535382 0  0.3347912413592433 0.1959225448935183 0  0.3199680582793816 0.1959123018030061 0  0.2825051229162361 0.1959834479681729 0  0.3590471196690275 0.2036304442587945 0  0.5571594006495384 0.1963685282145804 0  0.3067669986803285 0.203627750582736 0  0.4262598344738712 0.2036568242185335 0  0.5814408164431408 0.2041285596160068 0  0.5688286748170428 0.1961819304477386 0  0.4145905603063645 0.2038180695522843 0  0.3473758401724931 0.2038180695522752 0  0.2950977245128307 0.2038180695522663 0  0.5688286748170693 0.203818069552238 0  0.2950977245127906 0.1961819304477774 0  0.3473758401723931 0.1961819304478349 0  0.4145905603061963 0.1961819304479011 0  0.2601812407614425 0.2056861609747042
[...]
<PointData  Vectors="f_40-1"> 
<DataArray  type="Float64"  Name="f_40-1"  NumberOfComponents="3" format="ascii">0.0000000000000000e+00 0.0000000000000000e+00 0.0000000000000000e+00  0.0000000000000000e+00 0.0000000000000000e+00 0.0000000000000000e+00  0.0000000000000000e+00 0.0000000000000000e+00 0.0000000000000000e+00  0.0000000000000000e+00 0.0000000000000000e+00 0.0000000000000000e+00  -9.1368926242947108e-06 -2.0144882565001457e-05 0.0000000000000000e+00  -7.3825621713230596e-06 -2.1734213585826203e-05 0.0000000000000000e+00  0.0000000000000000e+00 0.0000000000000000e+00 0.0000000000000000e+00  0.0000000000000000e+00 0.0000000000000000e+00 0.0000000000000000e+00  0.0000000000000000e+00 0.0000000000000000e+00 0.0000000000000000e+00  0.0000000000000000e+00 0.0000000000000000e+00 0.0000000000000000e+00  -8.3532765657150582e-06 -2.0940150845667296e-05 0.0000000000000000e+00  0.0000000000000000e+00 0.0000000000000000e+00 0.0000000000000000e+00  0.0000000000000000e+00 0.0000000000000000e+00 0.0000000000000000e+00  0.0000000000000000e+00 0.0000000000000000e+00 0.0000000000000000e+00  0.0000000000000000e+00 0.0000000000000000e+00 0.0000000000000000e+00  0.0000000000000000e+00 0.0000000000000000e+00 0.0000000000000000e+00  0.0000000000000000e+00 0.0000000000000000e+00 0.0000000000000000e+00  0.0000000000000000e+00 0.0000000000000000e+00 0.0000000000000000e+00  0.0000000000000000e+00 0.0000000000000000e+00 0.0000000000000000e+00  0.0000000000000000e+00 0.0000000000000000e+00 0.0000000000000000e+00  0.0000000000000000e+00 0.0000000000000000e+00 0.0000000000000000e+00  0.0000000000000000e+00 0.0000000000000000e+00 0.0000000000000000e+00  0.0000000000000000e+00 0.0000000000000000e+00 0.0000000000000000e+00  0.0000000000000000e+00 0.0000000000000000e+00 0.0000000000000000e+00  0.0000000000000000e+00 0.0000000000000000e+00 0.0000000000000000e+00  0.0000000000000000e+00 0.0000000000000000e+00 0.0000000000000000e+00  0.0000000000000000e+00 0.0000000000000000e+00 0.0000000000000000e+00  0.0000000000000000e+00 0.0000000000000000e+00 0.0000000000000000e+00  0.0000000000000000e+00 0.0000000000000000e+00 0.0000000000000000e+00  0.0000000000000000e+00 0.0000000000000000e+00 0.0000000000000000e+00  0.0000000000000000e+00 0.0000000000000000e+00 0.0000000000000000e+00  0.0000000000000000e+00 0.0000000000000000e+00 0.0000000000000000e+00  0.0000000000000000e+00 0.0000000000000000e+00 0.0000000000000000e+00  0.0000000000000000e+00 0.0000000000000000e+00 0.0000000000000000e+00  0.0000000000000000e+00 0.0000000000000000e+00 0.0000000000000000e+00  0.0000000000000000e+00 0.0000000000000000e+00 0.0000000000000000e+00  0.0000000000000000e+00 0.0000000000000000e+00 0.0000000000000000e+00  0.0000000000000000e+00 0.0000000000000000e+00 0.0000000000000000e+00  0.0000000000000000e+00 0.0000000000000000e+00 0.0000000000000000e+00  0.0000000000000000e+00 0.0000000000000000e+00 0.0000000000000000e+00  0.0000000000000000e+00 0.0000000000000000e+00 0.0000000000000000e+00  0.0000000000000000e+00 0.0000000000000000e+00 0.0000000000000000e+00  0.0000000000000000e+00 0.0000000000000000e+00 0.0000000000000000e+00  0.0000000000000000e+00 0.0000000000000000e+00 0.0000000000000000e+00  0.0000000000000000e+00 0.0000000000000000e+00 0.0000000000000000e+00  0.0000000000000000e+00 0.0000000000000000e+00 0.0000000000000000e+00  0.0000000000000000e+00 0.0000000000000000e+00 0.0000000000000000e+00  0.0000000000000000e+00 0.0000000000000000e+00 0.0000000000000000e+00  0.0000000000000000e+00 0.0000000000000000e+00 0.0000000000000000e+00  0.0000000000000000e+00 0.0000000000000000e+00 0.0000000000000000e+00  0.0000000000000000e+00 0.0000000000000000e+00 0.0000000000000000e+00  0.0000000000000000e+00 0.0000000000000000e+00 0.0000000000000000e+00  0.0000000000000000e+00 0.0000000000000000e+00 0.0000000000000000e+00  0.0000000000000000e+00 0.0000000000000000e+00 0.0000000000000000e+00  0.0000000000000000e+00 0.0000000000000000e+00 0.0000000000000000e+00  0.0000000000000000e+00 0.0000000000000000e+00 0.0000000000000000e+00  0.0000000000000000e+00 0.0000000000000000e+00 0.0000000000000000e+00  0.0000000000000000e+00 0.0000000000000000e+00 0.0000000000000000e+00  0.0000000000000000e+00 0.0000000000000000e+00 0.0000000000000000e+00  0.0000000000000000e+00 0.0000000000000000e+00 0.0000000000000000e+00  0.0000000000000000e+00 0.0000000000000000e+00 0.0000000000000000e+00  0.0000000000000000e+00 0.0000000000000000e+00 0.0000000000000000e+00  0.0000000000000000e+00 0.0000000000000000e+00 0.0000000000000000e+00  0.0000000000000000e+00 0.0000000000000000e+00 0.0000000000000000e+00  0.0000000000000000e+00 0.0000000000000000e+00 0.0000000000000000e+00  0.0000000000000000e+00 0.0000000000000000e+00 0.0000000000000000e+00  0.0000000000000000e+00 0.0000000000000000e+00 0.0000000000000000e+00  0.0000000000000000e+00 0.0000000000000000e+00 0.0000000000000000e+00  0.0000000000000000e+00 0.0000000000000000e+00 0.0000000000000000e+00  0.0000000000000000e+00 0.0000000000000000e+00 0.0000000000000000e+00  0.0000000000000000e+00 0.0000000000000000e+00 0.0000000000000000e+00  0.0000000000000000e+00 0.0000000000000000e+00 0.0000000000000000e+00  0.0000000000000000e+00 0.0000000000000000e+00 0.0000000000000000e+00  0.0000000000000000e+00 0.0000000000000000e+00 0.0000000000000000e+00  0.0000000000000000e+00 0.0000000000000000e+00 0.0000000000000000e+00  0.0000000000000000e+00 0.0000000000000000e+00 0.0000000000000000e+00  0.0000000000000000e+00 0.0000000000000000e+00 0.0000000000000000e+00  0.0000000000000000e+00 0.0000000000000000e+00 0.0000000000000000e+00  0.0000000000000000e+00 0.0000000000000000e+00 0.0000000000000000e+00  0.0000000000000000e+00 0.0000000000000000e+00 0.0000000000000000e+00  0.0000000000000000e+00 0.0000000000000000e+00 0.0000000000000000e+00  0.0000000000000000e+00 0.0000000000000000e+00 0.0000000000000000e+00  0.0000000000000000e+00 0.0000000000000000e+00 0.0000000000000000e+00  0.0000000000000000e+00 0.0000000000000000e+00 0.0000000000000000e+00  0.0000000000000000e+00 0.0000000000000000e+00 0.0000000000000000e+00  0.0000000000000000e+00 0.0000000000000000e+00 0.0000000000000000e+00  0.0000000000000000e+00 0.0000000000000000e+00 0.0000000000000000e+00  0.0000000000000000e+00 0.0000000000000000e+00 0.0000000000000000e+00  0.0000000000000000e+00 0.0000000000000000e+00 0.0000000000000000e+00  0.0000000000000000e+00 0.0000000000000000e+00 0.0000000000000000e+00  0.0000000000000000e+00 0.0000000000000000e+00 0.0000000000000000e+00  0.0000000000000000e+00 0.0000000000000000e+00 0.0000000000000000e+00  0.0000000000000000e+00 0.0000000000000000e+00 0.0000000000000000e+00  0.0000000000000000e+00 0.0000000000000000e+00 0.0000000000000000e+00  0.0000000000000000e+00 0.0000000000000000e+00 0.0000000000000000e+00  0.0000000000000000e+00 0.0000000000000000e+00 0.0000000000000000e+00  0.0000000000000000e+00 0.0000000000000000e+00 0.0000000000000000e+00  0.0000000000000000e+00 0.0000000000000000e+00 0.0000000000000000e+00  0.0000000000000000e+00 0.0000000000000000e+00 0.0000000000000000e+00  0.0000000000000000e+00 0.0000000000000000e+00 0.0000000000000000e+00  0.0000000000000000e+00 0.0000000000000000e+00 0.0000000000000000e+00  0.0000000000000000e+00 0.0000000000000000e+00 0.0000000000000000e+00  0.0000000000000000e+00 0.0000000000000000e+00 0.0000000000000000e+00  0.0000000000000000e+00 0.0000000000000000e+00 0.0000000000000000e+00  0.0000000000000000e+00 0.0000000000000000e+00 0.0000000000000000e+00  0.0000000000000000e+00 0.0000000000000000e+00 0.0000000000000000e+00  0.0000000000000000e+00 0.0000000000000000e+00 0.0000000000000000e+00  0.0000000000000000e+00 0.0000000000000000e+00 0.0000000000000000e+00  0.0000000000000000e+00 0.0000000000000000e+00 0.0000000000000000e+00  0.0000000000000000e+00 0.0000000000000000e+00 0.0000000000000000e+00  0.0000000000000000e+00 0.0000000000000000e+00 0.0000000000000000e+00  0.0000000000000000e+00 0.0000000000000000e+00 0.0000000000000000e+00  0.0000000000000000e+00 0.0000000000000000e+00 0.0000000000000000e+00  0.0000000000000000e+00 0.0000000000000000e+00 0.0000000000000000e+00  0.0000000000000000e+00 0.0000000000000000e+00 0.0000000000000000e+00  0.0000000000000000e+00 0.0000000000000000e+00 0.0000000000000000e+00  0.0000000000000000e+00 0.0000000000000000e+00 0.0000000000000000e+00  0.0000000000000000e+00 0.0000000000000000e+00 0.0000000000000000e+00  0.0000000000000000e+00 0.0000000000000000e+00 0.0000000000000000e+00  0.0000000000000000e+00 0.0000000000000000e+00 0.0000000000000000e+00  0.0000000000000000e+00 0.0000000000000000e+00 0.0000000000000000e+00  0.0000000000000000e+00 0.0000000000000000e+00 0.0000000000000000e+00  0.0000000000000000e+00 0.0000000000000000e+00 0.0000000000000000e+00  0.0000000000000000e+00 0.0000000000000000e+00 0.0000000000000000e+00  0.0000000000000000e+00 0.0000000000000000e+00 0.0000000000000000e+00  0.0000000000000000e+00 0.0000000000000000e+00 0.0000000000000000e+00  0.0000000000000000e+00 0.0000000000000000e+00 0.0000000000000000e+00  0.0000000000000000e+00 0.0000000000000000e+00 0.0000000000000000e+00  0.0000000000000000e+00 0.0000000000000000e+00 0.0000000000000000e+00  0.0000000000000000e+00 0.0000000000000000e+00 0.0000000000000000e+00  0.0000000000000000e+00 0.0000000000000000e+00 0.0000000000000000e+00  0.0000000000000000e+00 0.0000000000000000e+00 0.0000000000000000e+00  0.0000000000000000e+00 0.0000000000000000e+00 0.0000000000000000e+00  0.0000000000000000e+00 0.0000000000000000e+00 0.0000000000000000e+00  0.0000000000000000e+00 0.0000000000000000e+00 0.0000000000000000e+00  0.0000000000000000e+00 0.0000000000000000e+00 0.0000000000000000e+00  0.0000000000000000e+00 0.0000000000000000e+00 0.0000000000000000e+00  0.0000000000000000e+00 0.0000000000000000e+00 0.0000000000000000e+00  0.0000000000000000e+00 0.0000000000000000e+00 0.0000000000000000e+00  0.0000000000000000e+00 0.0000000000000000e+00 0.0000000000000000e+00  0.0000000000000000e+00 0.0000000000000000e+00 0.0000000000000000e+00  0.0000000000000000e+00 0.0000000000000000e+00 0.0000000000000000e+00  0.0000000000000000e+00 0.0000000000000000e+00 0.0000000000000000e+00  -4.4538374574005480e-08 -1.3449143638587651e-06 0.0000000000000000e+00  -4.7270233219843190e-08 -1.4836767305944430e-06 0.0000000000000000e+00  1.1661889558152175e-08 -1.5749064733843105e-06 0.0000000000000000e+00  1.0366555216161345e-07 -1.6531559224344304e-06 0.0000000000000000e+00  1.9651743329330350e-07 -1.7564322059467555e-06 0.0000000000000000e+00  2.8235650962136917e-07 -1.9004721666642357e-06 0.0000000000000000e+00  3.5289635605031059e-07 -2.0648117070126093e-06 0.0000000000000000e+00  4.0932103118006745e-07 -2.2589318154111201e-06 0.0000000000000000e+00  4.6299371110011321e-07 -2.4764672014370142e-06 0.0000000000000000e+00  4.9475556568128805e-07 -2.7149872263191530e-06 0.0000000000000000e+00  5.2268244773975501e-07 -2.9828669536744751e-06 0.0000000000000000e+00  5.2966585174036639e-07 -3.2674624212517475e-06 0.0000000000000000e+00  5.2891021077574645e-07 -3.5767100472455634e-06 0.0000000000000000e+00  5.1210205867313262e-07 -3.9051861750258530e-06 0.0000000000000000e+00  4.8006006026994954e-07 -4.2539732287706993e-06 0.0000000000000000e+00  4.4300476706780855e-07 -4.6237240568460651e-06 0.0000000000000000e+00  3.8489383265630953e-07 -5.0052700863727744e-06 0.0000000000000000e+00  3.1952128995247347e-07 -5.4128311954259354e-06 0.0000000000000000e+00  2.3489462070764080e-07 -5.8280778082060417e-06 0.0000000000000000e+00  1.4288152028821032e-07 -6.2671036938722612e-06 0.0000000000000000e+00  3.3090808463213387e-08 -6.7132973270503907e-06 0.0000000000000000e+00  -8.8506176475638595e-08 -7.1787540695368833e-06 0.0000000000000000e+00  -2.2311350772633087e-07 -7.6562182281664650e-06 0.0000000000000000e+00  -3.7304347954197110e-07 -8.1455809680411624e-06 0.0000000000000000e+00  -5.3014727299403464e-07 -8.6501830690447040e-06 0.0000000000000000e+00  -7.0461204724060148e-07 -9.1598576597146764e-06 0.0000000000000000e+00  -8.9233545715451130e-07 -9.6902895053793002e-06 0.0000000000000000e+00  -1.0932309280151728e-06 -1.0221740850109593e-05 0.0000000000000000e+00  -1.3073793170176310e-06 -1.0771101267003715e-05 0.0000000000000000e+00  -1.5347871672097678e-06 -1.1322779292097386e-05 0.0000000000000000e+00  -1.7746987049560445e-06 -1.1889874267849848e-05 0.0000000000000000e+00  -2.0290847370965416e-06 -1.2458094742582176e-05 0.0000000000000000e+00  -2.2947310083869264e-06 -1.3041707498937182e-05 0.0000000000000000e+00  -2.5753248873412631e-06 -1.3623207265040100e-05 0.0000000000000000e+00  -2.8696460953056477e-06 -1.4220830019341730e-05 0.0000000000000000e+00  -3.1769531869625115e-06 -1.4816354685777054e-05 0.0000000000000000e+00  -3.4969096015199934e-06 -1.5425061447739582e-05 0.0000000000000000e+00  -3.8305126225720245e-06 -1.6031384480239573e-05 0.0000000000000000e+00  -4.1776025591924130e-06 -1.6649403184986932e-05 0.0000000000000000e+00  -4.5392768501384708e-06 -1.7264590411438268e-05 0.0000000000000000e+00  -4.9152746423205853e-06 -1.7887802902188698e-05 0.0000000000000000e+00  -5.3029287416939153e-06 -1.8510710038180992e-05 0.0000000000000000e+00  -5.7067534453463574e-06 -1.9138342510516096e-05 0.0000000000000000e+00  -6.1182626450771785e-06 -1.9766422275144759e-05 0.0000000000000000e+00  -6.5452550548818431e-06 -2.0392318638581731e-05 0.0000000000000000e+00  -6.9751124353362262e-06 -2.1032947021443210e-05 0.0000000000000000e+00  -7.9009571892333778e-06 -2.1334580158581799e-05 0.0000000000000000e+00  -8.7719792310281611e-06 -2.0545925091537944e-05 0.0000000000000000e+00  -8.7213746416039369e-06 -1.9541711168475961e-05 0.0000000000000000e+00  -8.2854376083031467e-06 -1.8877030879932067e-05 0.0000000000000000e+00  -7.8521239355851785e-06 -1.8206013999840514e-05 0.0000000000000000e+00  -7.4329575566136284e-06 -1.7541573651176085e-05 0.0000000000000000e+00  -7.0220730823671334e-06 -1.6879658444948635e-05 0.0000000000000000e+00  -6.6273442191419208e-06 -1.6221150094080430e-05 0.0000000000000000e+00  -6.2415724881999123e-06 -1.5566695942065173e-05 0.0000000000000000e+00  -5.8710696300977245e-06 -1.4912887073267734e-05 0.0000000000000000e+00  -5.5109864041654624e-06 -1.4268883262042138e-05 0.0000000000000000e+00  -5.1648813231870600e-06 -1.3622810620729705e-05 0.0000000000000000e+00  -4.8292424540719880e-06 -1.2988307684594854e-05 0.0000000000000000e+00  -4.5077186264470670e-06 -1.2353221034570282e-05 0.0000000000000000e+00  -4.1959976203394412e-06 -1.1730816134061494e-05 0.0000000000000000e+00  -3.8983706522760045e-06 -1.1108653374805458e-05 0.0000000000000000e+00  -3.6101350899379934e-06 -1.0500305710611636e-05 0.0000000000000000e+00  -3.3363006788621172e-06 -9.8931882836243450e-06 0.0000000000000000e+00  -3.0715419746651349e-06 -9.3003836048368069e-06 0.0000000000000000e+00  -2.8218095952168074e-06 -8.7099573057860128e-06 0.0000000000000000e+00  -2.5806109626560724e-06 -8.1356884012387393e-06 0.0000000000000000e+00  -2.3543065273853942e-06 -7.5649783229307515e-06 0.0000000000000000e+00  -2.1358868571242367e-06 -7.0112132581466082e-06 0.0000000000000000e+00  -1.9328632371163833e-06 -6.4624591481152981e-06 0.0000000000000000e+00  -1.7393570417660940e-06 -5.9290946820640074e-06 0.0000000000000000e+00  -1.5579358328300350e-06 -5.4063308666528178e-06 0.0000000000000000e+00  -1.3910695462779532e-06 -4.8979548348924049e-06 0.0000000000000000e+00  -1.2283811565319704e-06 -4.4028648054894554e-06 0.0000000000000000e+00  -1.0818281066607383e-06 -3.9186402992175094e-06 0.0000000000000000e+00  -9.4446942718494877e-07 -3.4567415271737661e-06 0.0000000000000000e+00  -8.2043494749309064e-07 -3.0020144446947725e-06 0.0000000000000000e+00  -7.0624772941936425e-07 -2.5723046599846296e-06 0.0000000000000000e+00  -6.0492587762438619e-07 -2.1510950305660954e-06 0.0000000000000000e+00  -5.1271558110573349e-07 -1.7563212029657091e-06 0.0000000000000000e+00  -4.3245527760974886e-07 -1.3739933095445470e-06 0.0000000000000000e+00  -3.6571630951862925e-07 -1.0169883323456904e-06 0.0000000000000000e+00  -3.0179639486285882e-07 -6.7609639463171688e-07 0.0000000000000000e+00  -2.5374686457749823e-07 -3.5773041874971553e-07 0.0000000000000000e+00  -2.1426103197910632e-07 -6.6947516827341062e-08 0.0000000000000000e+00  -1.8754986543783908e-07 2.0611678274377356e-07 0.0000000000000000e+00  -1.6811760538961397e-07 4.4888869299522455e-07 0.0000000000000000e+00  -1.6155011661133569e-07 6.7121769738856054e-07 0.0000000000000000e+00  -1.6787040501154384e-07 8.6326964958196052e-07 0.0000000000000000e+00  -1.7398697608067732e-07 1.0316254732321287e-06 0.0000000000000000e+00  -1.9731934155649889e-07 1.1817795646200595e-06 0.0000000000000000e+00  -2.0669551609044012e-07 1.2987802022055464e-06 0.0000000000000000e+00  -1.9574752727908110e-07 1.3446327890361271e-06 0.0000000000000000e+00  -1.1791002523506895e-07 1.2827136632120828e-06 0.0000000000000000e+00  -3.5675385670243063e-07 -3.7191020546235538e-08 0.0000000000000000e+00  -7.6512348344441168e-06 -1.9966936172581684e-05 0.0000000000000000e+00  -6.8020490894082749e-06 -1.8732628732423305e-05 0.0000000000000000e+00  -5.5636952853647344e-06 -1.6718941547190076e-05 0.0000000000000000e+00  -8.4015012447231972e-08 -1.6539883685240700e-07 0.0000000000000000e+00  -4.8559314574859797e-06 -1.5462109420846050e-05 0.0000000000000000e+00  2.5334553940496258e-08 -3.8764665533295314e-07 0.0000000000000000e+00  -4.1750670600230617e-06 -1.4208920658848854e-05 0.0000000000000000e+00  1.2018770908922700e-07 -9.9212241210786222e-07 0.0000000000000000e+00  1.2988967732386376e-07 -1.5128841808745706e-06 0.0000000000000000e+00  -3.5452628789817158e-06 -1.2977305374958876e-05 0.0000000000000000e+00  -6.3908418392395583e-08 -3.1811280098873604e-06 0.0000000000000000e+00  -2.4374017246375931e-06 -1.0594884513133486e-05 0.0000000000000000e+00  8.9661039295481058e-08 -2.0738534459975284e-06 0.0000000000000000e+00  -2.1336490083166773e-07 -3.9850940767899034e-06 0.0000000000000000e+00  -1.9586998935714740e-06 -9.4523297060466360e-06 0.0000000000000000e+00  -2.9661082325818973e-06 -1.1771176616961835e-05 0.0000000000000000e+00  -4.1953043928062668e-07 -4.8553815704624808e-06 0.0000000000000000e+00  -1.5299330667687858e-06 -8.3484113734196735e-06 0.0000000000000000e+00  -6.7077328831421966e-07 -5.7329342694126824e-06 0.0000000000000000e+00  -1.1480166145229259e-06 -7.3227839045498045e-06 0.0000000000000000e+00  -8.8935158784691388e-07 -6.4836080067666483e-06 0.0000000000000000e+00  3.3613634881984612e-08 -2.6014630998006355e-06 0.0000000000000000e+00  -6.2115201532933498e-06 -1.7748698251652838e-05 0.0000000000000000e+00  8.2822163390242843e-08 -6.6823457850036002e-07 0.0000000000000000e+00  -7.5199966989026344e-06 -1.9077141437590851e-05 0.0000000000000000e+00  -2.1992486305166399e-07 4.5221739633859998e-07 0.0000000000000000e+00  -4.7526608056344576e-06 -1.4574403386483755e-05 0.0000000000000000e+00  -5.4623914293907809e-06 -1.5845965175156294e-05 0.0000000000000000e+00  3.7045184373099581e-08 -7.7732001384248832e-07 0.0000000000000000e+00  2.3110222816197642e-07 -1.6342961649705719e-06 0.0000000000000000e+00  -2.9241413934779796e-06 -1.0892316396960272e-05 0.0000000000000000e+00  -4.0932289042907007e-06 -1.3322005653825358e-05 0.0000000000000000e+00  2.7416106997041992e-08 -3.9326047584007278e-06 0.0000000000000000e+00  -2.4137624909005681e-06 -9.7229534350035580e-06 0.0000000000000000e+00  2.3296674073539801e-07 -2.1852658118503396e-06 0.0000000000000000e+00  -1.4225635019736381e-07 -4.7616635775342863e-06 0.0000000000000000e+00  -1.9526737591408850e-06 -8.5899302454543638e-06 0.0000000000000000e+00  -3.4839097314185999e-06 -1.2093200837759025e-05 0.0000000000000000e+00  -3.1936167221797885e-07 -5.7240035694321879e-06 0.0000000000000000e+00  -1.5402438326533657e-06 -7.4979443526899572e-06 0.0000000000000000e+00  -3.2072493671948666e-07 -3.2214392736540763e-07 0.0000000000000000e+00  -3.2608363366475200e-07 2.7995410443000424e-07 0.0000000000000000e+00  -7.8113620772858430e-06 -2.0652942155628326e-05 