<?xml version="1.0"?>
<VTKFile type="UnstructuredGrid"  version="0.1"  >
<UnstructuredGrid>
<Piece  NumberOfPoints="1419" NumberOfCells="2698">
<Points>
<DataArray  type="Float64"  NumberOfComponents="3"  format="ascii">0 0 0  0 0.41 0  2.5 0 0  2.5 0.41 0  0.6 0.19 0  0.6 0.21 0  0.25 0.2 0  0.15 0.2 0  0.2489897948556636 0.21 0  0.2489897948556636 0.19 0  0.6 0.2 0  0 0.3807142857143437 0  0 0.3514285714286952 0  0 0.3221428571430699 0  0 0.29285714285744 0  0 0.2635714285718054 0  0 0.2342857142861561 0  0 0.2050000000005308 0  0 0.175714285714732 0  0 0.1464285714289574 0  0 0.1171428571431897 0  0 0.08785714285737878 0  0 0.05857142857161107 0  0 0.02928571428580012 0  0.03015443760436003 0 0  0.06140001986583606 0 0  0.09377624077125973 0 0  0.1273239957535082 0 0  0.1620856860351972 0 0  0.1981052433264291 0 0  0.235428184091502 0 0  0.2741016576309132 0 0  0.3141745521465447 0 0  0.3556974926295285 0 0  0.3987229542472677 0 0  0.4433053055141081 0 0  0.4895008759286886 0 0  0.5373680609405097 0 0  0.5869673343216626 0 0  0.6383613676634521 0 0  0.6916151138468254 0 0  0.7467958595648856 0 0  0.8039733463919316 0 0  0.8632198139502143 0 0  0.9246101326867038 0 0  0.9882218810934433 0 0  1.054135445558498 0 0  1.122434100542598 0 0  1.193204177141305 0 0  1.266535089879536 0 0  1.342519516046404 0 0  1.421253448503939 0 0  1.502836389106271 0 0  1.587371439758838 0 0  1.674965418777374 0 0  1.765729001825544 0 0  1.859776908880082 0 0  1.957227977487062 0 0  2.058205329869943 0 0  2.162836591189951 0 0  2.271253957290865 0 0  2.383594446803425 0 0  2.5 0.1024999999997612 0  2.5 0.2049999999994743 0  2.5 0.3074999999997183 0  2.383594446803656 0.41 0  2.271253957291315 0.41 0  2.162836591190598 0.41 0  2.058205329870775 0.41 0  1.957227977488067 0.41 0  1.859776908881246 0.41 0  1.765729001826854 0.41 0  1.674965418778818 0.41 0  1.58737143976041 0.41 0  1.502836389107956 0.41 0  1.421253448505726 0.41 0  1.342519516048286 0.41 0  1.266535089881505 0.41 0  1.193204177143353 0.41 0  1.122434100544716 0.41 0  1.05413544556068 0.41 0  0.9882218810956305 0.41 0  0.9246101326886647 0.41 0  0.8632198139519631 0.41 0  0.8039733463934788 0.41 0  0.7467958595662458 0.41 0  0.6916151138480078 0.41 0  0.6383613676644679 0.41 0  0.5869673343225223 0.41 0  0.5373680609412221 0.41 0  0.4895008759292634 0.41 0  0.4433053055145528 0.41 0  0.3987229542475914 0.41 0  0.3556974926297398 0.41 0  0.3141745521466497 0.41 0  0.2741016576310038 0.41 0  0.2354281840915826 0.41 0  0.1981052433265003 0.41 0  0.1620856860352591 0.41 0  0.1273239957535623 0.41 0  0.09377624077128965 0.41 0  0.06140001986584975 0.41 0  0.03015443760436654 0.41 0  0.2497468076502589 0.2050254481002335 0  0.2497468076502614 0.1949745518997913 0  0.2469965252529372 0.1829317073451959 0  0.2439893735792749 0.1762316384219906 0  0.2400332147834255 0.1700443375285386 0  0.2352133972704371 0.1645032867342007 0  0.2296339016332438 0.1597280261969788 0  0.2234150974217223 0.1558215752574715 0  0.2166911463437691 0.1528682099456123 0  0.2096071079204251 0.1509316448471593 0  0.2023158100364996 0.1500536585536553 0  0.194974551899914 0.1502531923497262 0  0.1877417105387872 0.1515259415822739 0  0.1807733240461124 0.153844448527136 0  0.1742197252835808 0.15715869474974 0  0.1682222986673531 0.1613971801805478 0  0.162910430003803 0.1664684656256651 0  0.1583987151779087 0.1722631454351573 0  0.1547844879126891 0.178656207771761 0  0.1521457199348551 0.1855097315605723 0  0.1505393388476355 0.1926758619366523 0  0.1505393388476328 0.2073241380633295 0  0.1521457199348437 0.2144902684393899 0  0.1547844879126531 0.221343792228163 0  0.1583987151778488 0.2277368545647528 0  0.1629104300036858 0.2335315343742052 0  0.1682222986671726 0.2386028198193036 0  0.1742197252833576 0.2428413052501257 0  0.1807733240458683 0.2461555514727623 0  0.1877417105384929 0.2484740584176516 0  0.1949745518995776 0.2497468076502398 0  0.202315810036185 0.2499463414463592 0  0.2096071079201568 0.2490683551528932 0  0.2166911463435495 0.2471317900544655 0  0.2234150974215506 0.2441784247426195 0  0.2296339016331197 0.2402719738031125 0  0.2352133972703547 0.2354967132658811 0  0.2400332147833751 0.2299556624715287 0  0.2439893735792577 0.2237683615780412 0  0.246996525252926 0.2170682926548348 0  0.25645809709277 0.21 0  0.2639263993298655 0.21 0  0.271394701566961 0.21 0  0.2788630038040554 0.21 0  0.2863313060411479 0.21 0  0.2937996082782405 0.21 0  0.301267910515333 0.21 0  0.3087362127524279 0.21 0  0.3162045149895234 0.21 0  0.3236728172265972 0.21 0  0.3311411194636928 0.21 0  0.3386094217007701 0.21 0  0.3460777239378666 0.21 0  0.3535460261749672 0.21 0  0.3610143284120516 0.21 0  0.3684826306491596 0.21 0  0.3759509328862226 0.21 0  0.383419235123329 0.21 0  0.3908875373604028 0.21 0  0.3983558395975142 0.21 0  0.4058241418345938 0.21 0  0.4132924440716992 0.21 0  0.4207607463087888 0.21 0  0.4282290485459029 0.21 0  0.4356973507830418 0.21 0  0.4431656530201649 0.21 0  0.4506339552573136 0.21 0  0.4581022574944306 0.21 0  0.4655705597315852 0.21 0  0.4730388619686996 0.21 0  0.480507164205851 0.21 0  0.4879754664429498 0.21 0  0.4954437686800938 0.21 0  0.502912070917267 0.21 0  0.5103803731544119 0.21 0  0.5178486753915261 0.21 0  0.5253169776286404 0.21 0  0.5327852798657868 0.21 0  0.5402535821029386 0.21 0  0.54772188434007 0.21 0  0.5551901865771842 0.21 0  0.5626584888143201 0.21 0  0.5701267910514778 0.21 0  0.5775950932886138 0.21 0  0.5850633955257281 0.21 0  0.5925316977628483 0.21 0  0.6 0.2050000000000054 0  0.6 0.1950000000000217 0  0.5925316977628897 0.19 0  0.5850633955257988 0.19 0  0.5775950932887378 0.19 0  0.5701267910515998 0.19 0  0.5626584888145268 0.19 0  0.5551901865773963 0.19 0  0.547721884340339 0.19 0  0.5402535821032429 0.19 0  0.5327852798661811 0.19 0  0.5253169776290537 0.19 0  0.5178486753919799 0.19 0  0.5103803731549078 0.19 0  0.502912070917822 0.19 0  0.4954437686807294 0.19 0  0.4879754664436223 0.19 0  0.4805071642065402 0.19 0  0.4730388619694271 0.19 0  0.4655705597323621 0.19 0  0.4581022574952563 0.19 0  0.4506339552581777 0.19 0  0.4431656530210671 0.19 0  0.4356973507839815 0.19 0  0.4282290485468779 0.19 0  0.4207607463097617 0.19 0  0.4132924440726327 0.19 0  0.4058241418354857 0.19 0  0.3983558395983636 0.19 0  0.3908875373612097 0.19 0  0.3834192351240934 0.19 0  0.3759509328869369 0.19 0  0.3684826306498175 0.19 0  0.361014328412667 0.19 0  0.3535460261755617 0.19 0  0.3460777239384295 0.19 0  0.3386094217012945 0.19 0  0.3311411194641595 0.19 0  0.3236728172270245 0.19 0  0.3162045149898895 0.19 0  0.3087362127527544 0.19 0  0.3012679105156187 0.19 0  0.2937996082784807 0.19 0  0.2863313060413428 0.19 0  0.2788630038042048 0.19 0  0.2713947015670686 0.19 0  0.2639263993299336 0.19 0  0.2564580970927985 0.19 0  0.2607803159922026 0.2000727136295815 0  0.5887803774232762 0.2001272386983733 0  0.5745072403740523 0.2002044435018727 0  0.5511891430099709 0.2001122610077113 0  0.2751288526855082 0.20000000000002 0  0.5365194309847112 0.1999999999999436 0  0.2894621222999649 0.1998691686390484 0  0.5215828265105155 0.1999999999999228 0  0.3127789816668748 0.1998657885438805 0  0.3274069683451451 0.2000000000000796 0  0.5066462220363641 0.199999999999908 0  0.3650630746574081 0.199866017807523 0  0.476773013087985 0.1999999999998713 0  0.3417402379596385 0.1998691686391011 0  0.3796850840047755 0.200000000000134 0  0.4618364086138087 0.1999999999998546 0  0.4917096175621762 0.1999999999998808 0  0.3946216884789568 0.2000000000001512 0  0.446899804139621 0.1999999999998389 0  0.4089549580935208 0.1998691686391595 0  0.4322718174608562 0.200127451265745 0  0.4201487168029707 0.1999966199048527 0  0.3528922713220932 0.2000185703532356 0  0.5633122436674589 0.1999814296467508 0  0.3006558810093873 0.1999966199048318 0  0.5815926498168407 0.1966545283159175 0  0.2677053789419034 0.1964246479135325 0  0.5290511287476175 0.1970915826863981 0  0.5439877332217911 0.197091582686394 0  0.2825131256993216 0.2035478995978015 0  0.3199386661080599 0.202908417313604 0  0.4842413153250809 0.1970915826863873 0  0.5141145242734466 0.1970915826863843 0  0.3722167817676917 0.2029084173136195 0  0.4693047108508938 0.1970915826863783 0  0.3348752705822316 0.202908417313609 0  0.3871533862418661 0.2029084173136212 0  0.4543681063767183 0.1970915826863795 0  0.4991779197992749 0.1970915826863902 0  0.4020059614928624 0.203547899597858 0  0.4394315019025246 0.1970915826863714 0  0.2550657455369551 0.2034088125358657 0  0.2548908499171161 0.1966940311614271 0  0.5946539510196798 0.2024302972968126 0  0.267698176732111 0.2039977513680092 0  0.4261685417851465 0.196409292431739 0  0.3590076176283495 0.196411355804271 0  0.5571672426447437 0.2036011176410121 0  0.3066757059912147 0.1964092924317024 0  0.594380730180568 0.1966558399668133 0  0.4842413153245942 0.2040749161535287 0  0.4693047108503577 0.2040749161535231 0  0.3871533862424271 0.1959250838464788 0  0.372246743208829 0.1959123236376545 0  0.5141145242731028 0.2040749161535395 0  0.4543681063761134 0.2040749161535186 0  0.4019979587101454 0.1959834479682427 0  0.4394608940728603 0.2040870543693135 0  0.5439623148931173 0.2040856076781014 0  0.5290511287473298 0.2040749161535501 0  0.4991779197988497 0.2040749161535382 0  0.3347912413592433 0.1959225448935183 0  0.3199680582793816 0.1959123018030061 0  0.2825051229162361 0.1959834479681729 0  0.3590471196690275 0.2036304442587945 0  0.5571594006495384 0.1963685282145804 0  0.3067669986803285 0.203627750582736 0  0.4262598344738712 0.2036568242185335 0  0.5814408164431408 0.2041285596160068 0  0.5688286748170428 0.1961819304477386 0  0.4145905603063645 0.2038180695522843 0  0.3473758401724931 0.2038180695522752 0  0.2950977245128307 0.2038180695522663 0  0.5688286748170693 0.203818069552238 0  0.2950977245127906 0.1961819304477774 0  0.3473758401723931 0.1961819304478349 0  0.4145905603061963 0.1961819304479011 0  0.2601812407614425 0.2056861609747042
[...]
<PointData  Vectors="f_40-1"> 
<DataArray  type="Float64"  Name="f_40-1"  NumberOfComponents="3" format="ascii">0.0000000000000000e+00 0.0000000000000000e+00 0.0000000000000000e+00  0.0000000000000000e+00 0.0000000000000000e+00 0.0000000000000000e+00  0.0000000000000000e+00 0.0000000000000000e+00 0.0000000000000000e+00  0.0000000000000000e+00 0.0000000000000000e+00 0.0000000000000000e+00  -9.2731030640110736e-06 -2.2427115435108680e-05 0.0000000000000000e+00  -7.3368313082955292e-06 -2.4074409048459787e-05 0.0000000000000000e+00  0.0000000000000000e+00 0.0000000000000000e+00 0.0000000000000000e+00  0.0000000000000000e+00 0.0000000000000000e+00 0.0000000000000000e+00  0.0000000000000000e+00 0.0000000000000000e+00 0.0000000000000000e+00  0.0000000000000000e+00 0.0000000000000000e+00 0.0000000000000000e+00  -8.4038726248954052e-06 -2.3251408099815980e-05 0.0000000000000000e+00  0.0000000000000000e+00 0.0000000000000000e+00 0.0000000000000000e+00  0.0000000000000000e+00 0.0000000000000000e+00 0.0000000000000000e+00  0.0000000000000000e+00 0.0000000000000000e+00 0.0000000000000000e+00  0.0000000000000000e+00 0.0000000000000000e+00 0.0000000000000000e+00  0.0000000000000000e+00 0.0000000000000000e+00 0.0000000000000000e+00  0.0000000000000000e+00 0.0000000000000000e+00 0.0000000000000000e+00  0.0000000000000000e+00 0.0000000000000000e+00 0.0000000000000000e+00  0.0000000000000000e+00 0.0000000000000000e+00 0.0000000000000000e+00  0.0000000000000000e+00 0.0000000000000000e+00 0.0000000000000000e+00  0.0000000000000000e+00 0.0000000000000000e+00 0.0000000000000000e+00  0.0000000000000000e+00 0.0000000000000000e+00 0.0000000000000000e+00  0.0000000000000000e+00 0.0000000000000000e+00 0.0000000000000000e+00  0.0000000000000000e+00 0.0000000000000000e+00 0.0000000000000000e+00  0.0000000000000000e+00 0.0000000000000000e+00 0.0000000000000000e+00  0.0000000000000000e+00 0.0000000000000000e+00 0.0000000000000000e+00  0.0000000000000000e+00 0.0000000000000000e+00 0.0000000000000000e+00  0.0000000000000000e+00 0.0000000000000000e+00 0.0000000000000000e+00  0.0000000000000000e+00 0.0000000000000000e+00 0.0000000000000000e+00  0.0000000000000000e+00 0.0000000000000000e+00 0.0000000000000000e+00  0.0000000000000000e+00 0.0000000000000000e+00 0.0000000000000000e+00  0.0000000000000000e+00 0.0000000000000000e+00 0.0000000000000000e+00  0.0000000000000000e+00 0.0000000000000000e+00 0.0000000000000000e+00  0.0000000000000000e+00 0.0000000000000000e+00 0.0000000000000000e+00  0.0000000000000000e+00 0.0000000000000000e+00 0.0000000000000000e+00  0.0000000000000000e+00 0.0000000000000000e+00 0.0000000000000000e+00  0.0000000000000000e+00 0.0000000000000000e+00 0.0000000000000000e+00  0.0000000000000000e+00 0.0000000000000000e+00 0.0000000000000000e+00  0.0000000000000000e+00 0.0000000000000000e+00 0.0000000000000000e+00  0.0000000000000000e+00 0.0000000000000000e+00 0.0000000000000000e+00  0.0000000000000000e+00 0.0000000000000000e+00 0.0000000000000000e+00  0.0000000000000000e+00 0.0000000000000000e+00 0.0000000000000000e+00  0.0000000000000000e+00 0.0000000000000000e+00 0.0000000000000000e+00  0.0000000000000000e+00 0.0000000000000000e+00 0.0000000000000000e+00  0.0000000000000000e+00 0.0000000000000000e+00 0.0000000000000000e+00  0.0000000000000000e+00 0.0000000000000000e+00 0.0000000000000000e+00  0.0000000000000000e+00 0.0000000000000000e+00 0.0000000000000000e+00  0.0000000000000000e+00 0.0000000000000000e+00 0.0000000000000000e+00  0.0000000000000000e+00 0.0000000000000000e+00 0.0000000000000000e+00  0.0000000000000000e+00 0.0000000000000000e+00 0.0000000000000000e+00  0.0000000000000000e+00 0.0000000000000000e+00 0.0000000000000000e+00  0.0000000000000000e+00 0.0000000000000000e+00 0.0000000000000000e+00  0.0000000000000000e+00 0.0000000000000000e+00 0.0000000000000000e+00  0.0000000000000000e+00 0.0000000000000000e+00 0.0000000000000000e+00  0.0000000000000000e+00 0.0000000000000000e+00 0.0000000000000000e+00  0.0000000000000000e+00 0.0000000000000000e+00 0.0000000000000000e+00  0.0000000000000000e+00 0.0000000000000000e+00 0.0000000000000000e+00  0.0000000000000000e+00 0.0000000000000000e+00 0.0000000000000000e+00  0.0000000000000000e+00 0.0000000000000000e+00 0.0000000000000000e+00  0.0000000000000000e+00 0.0000000000000000e+00 0.0000000000000000e+00  0.0000000000000000e+00 0.0000000000000000e+00 0.0000000000000000e+00  0.0000000000000000e+00 0.0000000000000000e+00 0.0000000000000000e+00  0.0000000000000000e+00 0.0000000000000000e+00 0.0000000000000000e+00  0.0000000000000000e+00 0.0000000000000000e+00 0.0000000000000000e+00  0.0000000000000000e+00 0.0000000000000000e+00 0.0000000000000000e+00  0.0000000000000000e+00 0.0000000000000000e+00 0.0000000000000000e+00  0.0000000000000000e+00 0.0000000000000000e+00 0.0000000000000000e+00  0.0000000000000000e+00 0.0000000000000000e+00 0.0000000000000000e+00  0.0000000000000000e+00 0.0000000000000000e+00 0.0000000000000000e+00  0.0000000000000000e+00 0.0000000000000000e+00 0.0000000000000000e+00  0.0000000000000000e+00 0.0000000000000000e+00 0.0000000000000000e+00  0.0000000000000000e+00 0.0000000000000000e+00 0.0000000000000000e+00  0.0000000000000000e+00 0.0000000000000000e+00 0.0000000000000000e+00  0.0000000000000000e+00 0.0000000000000000e+00 0.0000000000000000e+00  0.0000000000000000e+00 0.0000000000000000e+00 0.0000000000000000e+00  0.0000000000000000e+00 0.0000000000000000e+00 0.0000000000000000e+00  0.0000000000000000e+00 0.0000000000000000e+00 0.0000000000000000e+00  0.0000000000000000e+00 0.0000000000000000e+00 0.0000000000000000e+00  0.0000000000000000e+00 0.0000000000000000e+00 0.0000000000000000e+00  0.0000000000000000e+00 0.0000000000000000e+00 0.0000000000000000e+00  0.0000000000000000e+00 0.0000000000000000e+00 0.0000000000000000e+00  0.0000000000000000e+00 0.0000000000000000e+00 0.0000000000000000e+00  0.0000000000000000e+00 0.0000000000000000e+00 0.0000000000000000e+00  0.0000000000000000e+00 0.0000000000000000e+00 0.0000000000000000e+00  0.0000000000000000e+00 0.0000000000000000e+00 0.0000000000000000e+00  0.0000000000000000e+00 0.0000000000000000e+00 0.0000000000000000e+00  0.0000000000000000e+00 0.0000000000000000e+00 0.0000000000000000e+00  0.0000000000000000e+00 0.0000000000000000e+00 0.0000000000000000e+00  0.0000000000000000e+00 0.0000000000000000e+00 0.0000000000000000e+00  0.0000000000000000e+00 0.0000000000000000e+00 0.0000000000000000e+00  0.0000000000000000e+00 0.0000000000000000e+00 0.0000000000000000e+00  0.0000000000000000e+00 0.0000000000000000e+00 0.0000000000000000e+00  0.0000000000000000e+00 0.0000000000000000e+00 0.0000000000000000e+00  0.0000000000000000e+00 0.0000000000000000e+00 0.0000000000000000e+00  0.0000000000000000e+00 0.0000000000000000e+00 0.0000000000000000e+00  0.0000000000000000e+00 0.0000000000000000e+00 0.0000000000000000e+00  0.0000000000000000e+00 0.0000000000000000e+00 0.0000000000000000e+00  0.0000000000000000e+00 0.0000000000000000e+00 0.0000000000000000e+00  0.0000000000000000e+00 0.0000000000000000e+00 0.0000000000000000e+00  0.0000000000000000e+00 0.0000000000000000e+00 0.0000000000000000e+00  0.0000000000000000e+00 0.0000000000000000e+00 0.0000000000000000e+00  0.0000000000000000e+00 0.0000000000000000e+00 0.0000000000000000e+00  0.0000000000000000e+00 0.0000000000000000e+00 0.0000000000000000e+00  0.0000000000000000e+00 0.0000000000000000e+00 0.0000000000000000e+00  0.0000000000000000e+00 0.0000000000000000e+00 0.0000000000000000e+00  0.0000000000000000e+00 0.0000000000000000e+00 0.0000000000000000e+00  0.0000000000000000e+00 0.0000000000000000e+00 0.0000000000000000e+00  0.0000000000000000e+00 0.0000000000000000e+00 0.0000000000000000e+00  0.0000000000000000e+00 0.0000000000000000e+00 0.0000000000000000e+00  0.0000000000000000e+00 0.0000000000000000e+00 0.0000000000000000e+00  0.0000000000000000e+00 0.0000000000000000e+00 0.0000000000000000e+00  0.0000000000000000e+00 0.0000000000000000e+00 0.0000000000000000e+00  0.0000000000000000e+00 0.0000000000000000e+00 0.0000000000000000e+00  0.0000000000000000e+00 0.0000000000000000e+00 0.0000000000000000e+00  0.0000000000000000e+00 0.0000000000000000e+00 0.0000000000000000e+00  0.0000000000000000e+00 0.0000000000000000e+00 0.0000000000000000e+00  0.0000000000000000e+00 0.0000000000000000e+00 0.0000000000000000e+00  0.0000000000000000e+00 0.0000000000000000e+00 0.0000000000000000e+00  0.0000000000000000e+00 0.0000000000000000e+00 0.0000000000000000e+00  0.0000000000000000e+00 0.0000000000000000e+00 0.0000000000000000e+00  0.0000000000000000e+00 0.0000000000000000e+00 0.0000000000000000e+00  0.0000000000000000e+00 0.0000000000000000e+00 0.0000000000000000e+00  0.0000000000000000e+00 0.0000000000000000e+00 0.0000000000000000e+00  0.0000000000000000e+00 0.0000000000000000e+00 0.0000000000000000e+00  0.0000000000000000e+00 0.0000000000000000e+00 0.0000000000000000e+00  0.0000000000000000e+00 0.0000000000000000e+00 0.0000000000000000e+00  0.0000000000000000e+00 0.0000000000000000e+00 0.0000000000000000e+00  0.0000000000000000e+00 0.0000000000000000e+00 0.0000000000000000e+00  0.0000000000000000e+00 0.0000000000000000e+00 0.0000000000000000e+00  0.0000000000000000e+00 0.0000000000000000e+00 0.0000000000000000e+00  0.0000000000000000e+00 0.0000000000000000e+00 0.0000000000000000e+00  0.0000000000000000e+00 0.0000000000000000e+00 0.0000000000000000e+00  0.0000000000000000e+00 0.0000000000000000e+00 0.0000000000000000e+00  0.0000000000000000e+00 0.0000000000000000e+00 0.0000000000000000e+00  0.0000000000000000e+00 0.0000000000000000e+00 0.0000000000000000e+00  0.0000000000000000e+00 0.0000000000000000e+00 0.0000000000000000e+00  0.0000000000000000e+00 0.0000000000000000e+00 0.0000000000000000e+00  0.0000000000000000e+00 0.0000000000000000e+00 0.0000000000000000e+00  0.0000000000000000e+00 0.0000000000000000e+00 0.0000000000000000e+00  0.0000000000000000e+00 0.0000000000000000e+00 0.0000000000000000e+00  0.0000000000000000e+00 0.0000000000000000e+00 0.0000000000000000e+00  0.0000000000000000e+00 0.0000000000000000e+00 0.0000000000000000e+00  0.0000000000000000e+00 0.0000000000000000e+00 0.0000000000000000e+00  -3.5642335402529949e-08 -1.4013798798686660e-06 0.0000000000000000e+00  -2.7001907961583290e-08 -1.5494786817625704e-06 0.0000000000000000e+00  4.5522842879267302e-08 -1.6504788330693166e-06 0.0000000000000000e+00  1.5269685077155113e-07 -1.7405292056977007e-06 0.0000000000000000e+00  2.6009694976680755e-07 -1.8586631098207533e-06 0.0000000000000000e+00  3.6051634133404842e-07 -2.0215289633158359e-06 0.0000000000000000e+00  4.4429524188439194e-07 -2.2071976781503404e-06 0.0000000000000000e+00  5.1320279025716415e-07 -2.4260808561868766e-06 0.0000000000000000e+00  5.7953127496512593e-07 -2.6710351520660169e-06 0.0000000000000000e+00  6.2223848323212196e-07 -2.9395248846584881e-06 0.0000000000000000e+00  6.6132671668407477e-07 -3.2403582988351784e-06 0.0000000000000000e+00  6.7783456427704956e-07 -3.5600718687417082e-06 0.0000000000000000e+00  6.8651541098492071e-07 -3.9070086371750621e-06 0.0000000000000000e+00  6.7791728370415523e-07 -4.2751645581667983e-06 0.0000000000000000e+00  6.5329328208660821e-07 -4.6659362649147675e-06 0.0000000000000000e+00  6.2358737239840331e-07 -5.0796695616692711e-06 0.0000000000000000e+00  5.7136353060034317e-07 -5.5067632530387729e-06 0.0000000000000000e+00  5.1175794234081093e-07 -5.9621198795272084e-06 0.0000000000000000e+00  4.3155549312317383e-07 -6.4263650130488671e-06 0.0000000000000000e+00  3.4379049776040603e-07 -6.9163587089433017e-06 0.0000000000000000e+00  2.3709588965170682e-07 -7.4146077028498590e-06 0.0000000000000000e+00  1.1811029090659581e-07 -7.9338089129664107e-06 0.0000000000000000e+00  -1.4763857833400877e-08 -8.4661187321810049e-06 0.0000000000000000e+00  -1.6372949377276855e-07 -9.0115989985595011e-06 0.0000000000000000e+00  -3.2016598558278782e-07 -9.5734979477091243e-06 0.0000000000000000e+00  -4.9497744940678859e-07 -1.0141255932109823e-05 0.0000000000000000e+00  -6.8370681032627566e-07 -1.0731230331864028e-05 0.0000000000000000e+00  -8.8635524085529686e-07 -1.1322644157783408e-05 0.0000000000000000e+00  -1.1029199163804829e-06 -1.1933227628645942e-05 0.0000000000000000e+00  -1.3334831941842560e-06 -1.2546506662859066e-05 0.0000000000000000e+00  -1.5771858073157836e-06 -1.3176265253181640e-05 0.0000000000000000e+00  -1.8361345504467701e-06 -1.3807386459630175e-05 0.0000000000000000e+00  -2.1069325636730339e-06 -1.4454870508503676e-05 0.0000000000000000e+00  -2.3934657655804863e-06 -1.5100290482248740e-05 0.0000000000000000e+00  -2.6944114771053379e-06 -1.5762774835528983e-05 0.0000000000000000e+00  -3.0090328418682019e-06 -1.6423130784532904e-05 0.0000000000000000e+00  -3.3369461095585044e-06 -1.7097415703395754e-05 0.0000000000000000e+00  -3.6792141462802850e-06 -1.7769228980065742e-05 0.0000000000000000e+00  -4.0356454191775437e-06 -1.8453384078915242e-05 0.0000000000000000e+00  -4.4074036093665757e-06 -1.9134565302243798e-05 0.0000000000000000e+00  -4.7942124983941880e-06 -1.9824198624080147e-05 0.0000000000000000e+00  -5.1932768206085772e-06 -2.0513504664472912e-05 0.0000000000000000e+00  -5.6092993415083670e-06 -2.1207768667794873e-05 0.0000000000000000e+00  -6.0334017335063300e-06 -2.1902491885424679e-05 0.0000000000000000e+00  -6.4737857062828237e-06 -2.2594868538495184e-05 0.0000000000000000e+00  -6.9171490598519953e-06 -2.3302725669991882e-05 0.0000000000000000e+00  -7.9052309915401008e-06 -2.3660146629877738e-05 0.0000000000000000e+00  -8.8669182471266369e-06 -2.2842885102423109e-05 0.0000000000000000e+00  -8.8449541884343308e-06 -2.1758792131896559e-05 0.0000000000000000e+00  -8.3951991651556338e-06 -2.1025720604892837e-05 0.0000000000000000e+00  -7.9481818346092652e-06 -2.0285971133956695e-05 0.0000000000000000e+00  -7.5160429617522720e-06 -1.9553172313233995e-05 0.0000000000000000e+00  -7.0926001542495800e-06 -1.8823025138842254e-05 0.0000000000000000e+00  -6.6860917228169240e-06 -1.8096457269721871e-05 0.0000000000000000e+00  -6.2889811391792996e-06 -1.7374167610059848e-05 0.0000000000000000e+00  -5.9078943849718566e-06 -1.6652543008068536e-05 0.0000000000000000e+00  -5.5377185016979395e-06 -1.5941271755138275e-05 0.0000000000000000e+00  -5.1822065581664000e-06 -1.5227847732488245e-05 0.0000000000000000e+00  -4.8376222610772539e-06 -1.4526645317954710e-05 0.0000000000000000e+00  -4.5078472264774914e-06 -1.3824875117966333e-05 0.0000000000000000e+00  -4.1882871409675477e-06 -1.3136536896062728e-05 0.0000000000000000e+00  -3.8835210858171872e-06 -1.2448565080796351e-05 0.0000000000000000e+00  -3.5885092552505725e-06 -1.1775270492827650e-05 0.0000000000000000e+00  -3.3086291875250212e-06 -1.1103442425377653e-05 0.0000000000000000e+00  -3.0381327674196897e-06 -1.0446875231569787e-05 0.0000000000000000e+00  -2.7834387929790786e-06 -9.7930387073109390e-06 0.0000000000000000e+00  -2.5375369757561771e-06 -9.1564734406344663e-06 0.0000000000000000e+00  -2.3073223726124152e-06 -8.5239787512839667e-06 0.0000000000000000e+00  -2.0851764532118489e-06 -7.9096720309620509e-06 0.0000000000000000e+00  -1.8792727191238226e-06 -7.3010484426786252e-06 0.0000000000000000e+00  -1.6831238734831318e-06 -6.7090788563007638e-06 0.0000000000000000e+00  -1.4997361166766103e-06 -6.1286889799267407e-06 0.0000000000000000e+00  -1.3315358760664715e-06 -5.5640805863034651e-06 0.0000000000000000e+00  -1.1675144889752359e-06 -5.0139055557391467e-06 0.0000000000000000e+00  -1.0204594533691941e-06 -4.4758954052013270e-06 0.0000000000000000e+00  -8.8289132916968520e-07 -3.9619997941322001e-06 0.0000000000000000e+00  -7.5930092758530533e-07 -3.4564704679632823e-06 0.0000000000000000e+00  -6.4586973161044630e-07 -2.9779975210228448e-06 0.0000000000000000e+00  -5.4594548598601641e-07 -2.5093611444999114e-06 0.0000000000000000e+00  -4.5528842894703314e-07 -2.0695540899963884e-06 0.0000000000000000e+00  -3.7734203990661955e-07 -1.6437013225457899e-06 0.0000000000000000e+00  -3.1347679412578560e-07 -1.2457446756579302e-06 0.0000000000000000e+00  -2.5220078462317525e-07 -8.6566079552978926e-07 0.0000000000000000e+00  -2.0766394219884964e-07 -5.1063938222710410e-07 0.0000000000000000e+00  -1.7187252194692842e-07 -1.8588929391220296e-07 0.0000000000000000e+00  -1.4953119080504716e-07 1.1883331891317709e-07 0.0000000000000000e+00  -1.3441416166703932e-07 3.9006198597867731e-07 0.0000000000000000e+00  -1.3308250540025621e-07 6.3848398807699704e-07 0.0000000000000000e+00  -1.4517019392533686e-07 8.5311830991558784e-07 0.0000000000000000e+00  -1.5651472357489290e-07 1.0414318346247424e-06 0.0000000000000000e+00  -1.8608793735240327e-07 1.2084688431886674e-06 0.0000000000000000e+00  -2.0071101010445964e-07 1.3386851995522030e-06 0.0000000000000000e+00  -1.9453118977990202e-07 1.3925309831590904e-06 0.0000000000000000e+00  -1.1809492463159343e-07 1.3318154045522628e-06 0.0000000000000000e+00  -3.5893768151443335e-07 -4.1241763148140716e-08 0.0000000000000000e+00  -7.6778750522897474e-06 -2.2176537490080383e-05 0.0000000000000000e+00  -6.8010059851157163e-06 -2.0813188091419619e-05 0.0000000000000000e+00  -5.5260711651369693e-06 -1.8589028340599860e-05 0.0000000000000000e+00  -5.9621416108144682e-08 -1.8682107435218082e-07 0.0000000000000000e+00  -4.7991084690760988e-06 -1.7200372798669875e-05 0.0000000000000000e+00  6.9454389213468849e-08 -4.3867116080864819e-07 0.0000000000000000e+00  -4.1001068871812414e-06 -1.5814280437832358e-05 0.0000000000000000e+00  1.9263266360418180e-07 -1.1173031321748515e-06 0.0000000000000000e+00  2.1801074685034639e-07 -1.6993862708273595e-06 0.0000000000000000e+00  -3.4546777544079312e-06 -1.4451077801891495e-05 0.0000000000000000e+00  5.2581398497939919e-08 -3.5656657564905095e-06 0.0000000000000000e+00  -2.3230070019717691e-06 -1.1811076807152211e-05 0.0000000000000000e+00  1.9002285092623454e-07 -2.3285169236744774e-06 0.0000000000000000e+00  -8.8865469031643804e-08 -4.4614925356400267e-06 0.0000000000000000e+00  -1.8360792977575158e-06 -1.0543438531572272e-05 0.0000000000000000e+00  -2.8623832824689247e-06 -1.3115075336260902e-05 0.0000000000000000e+00  -2.8993472949470208e-07 -5.4316891305964842e-06 0.0000000000000000e+00  -1.4015297534848460e-06 -9.3176377445253519e-06 0.0000000000000000e+00  -5.3943252264598734e-07 -6.4102358561798781e-06 0.0000000000000000e+00  -1.0152369051736210e-06 -8.1768308442343197e-06 0.0000000000000000e+00  -7.5682806191111971e-07 -7.2445251528215301e-06 0.0000000000000000e+00  1.4299826581274837e-07 -2.9167524663318162e-06 0.0000000000000000e+00  -6.1939814671407711e-06 -1.9727552738625377e-05 0.0000000000000000e+00  1.4133689736402706e-07 -7.5240564648273480e-07 0.0000000000000000e+00  -7.5640292907040810e-06 -2.1212206522269846e-05 0.0000000000000000e+00  -2.1198176378538564e-07 4.6275441557721649e-07 0.0000000000000000e+00  -4.7122804683897669e-06 -1.6236450006891815e-05 0.0000000000000000e+00  -5.4415994160294269e-06 -1.7641860802253350e-05 0.0000000000000000e+00  7.9332920891386002e-08 -8.3322862214011554e-07 0.0000000000000000e+00  3.2365427993174998e-07 -1.8042766927064924e-06 0.0000000000000000e+00  -2.8395726102666581e-06 -1.2161183493904615e-05 0.0000000000000000e+00  -4.0357063367149935e-06 -1.4851334646177848e-05 0.0000000000000000e+00  1.6652376837651458e-07 -4.3757666214434874e-06 0.0000000000000000e+00  -2.3192209411158777e-06 -1.0864943729756966e-05 0.0000000000000000e+00  3.4188469491934375e-07 -2.4218457474918423e-06 0.0000000000000000e+00  4.4158795669795076e-09 -5.3010350102041810e-06 0.0000000000000000e+00  -1.8505090492842281e-06 -9.6079543221813153e-06 0.0000000000000000e+00  -3.4116715754022790e-06 -1.3491320233323220e-05 0.0000000000000000e+00  -1.6308420863089554e-07 -6.3683462773117180e-06 0.0000000000000000e+00  -1.4327729324459280e-06 -8.3955044574878146e-06 0.0000000000000000e+00  -3.2726474513310730e-07 -3.3570043365803131e-07 0.0000000000000000e+00  -3.3405730902274463e-07 2.9081909836716466e-07 0.0000000000000000e+00  -7.8289757737294970e-06 -2.2921973130301509e-05 0.0