<?xml version="1.0"?>
<VTKFile type="UnstructuredGrid"  version="0.1"  >
<UnstructuredGrid>
<Piece  NumberOfPoints="1419" NumberOfCells="2698">
<Points>
<DataArray  type="Float64"  NumberOfComponents="3"  format="ascii">0 0 0  0 0.41 0  2.5 0 0  2.5 0.41 0  0.6 0.19 0  0.6 0.21 0  0.25 0.2 0  0.15 0.2 0  0.2489897948556636 0.21 0  0.2489897948556636 0.19 0  0.6 0.2 0  0 0.3807142857143437 0  0 0.3514285714286952 0  0 0.3221428571430699 0  0 0.29285714285744 0  0 0.2635714285718054 0  0 0.2342857142861561 0  0 0.2050000000005308 0  0 0.175714285714732 0  0 0.1464285714289574 0  0 0.1171428571431897 0  0 0.08785714285737878 0  0 0.05857142857161107 0  0 0.02928571428580012 0  0.03015443760436003 0 0  0.06140001986583606 0 0  0.09377624077125973 0 0  0.1273239957535082 0 0  0.1620856860351972 0 0  0.1981052433264291 0 0  0.235428184091502 0 0  0.2741016576309132 0 0  0.3141745521465447 0 0  0.3556974926295285 0 0  0.3987229542472677 0 0  0.4433053055141081 0 0  0.4895008759286886 0 0  0.5373680609405097 0 0  0.5869673343216626 0 0  0.6383613676634521 0 0  0.6916151138468254 0 0  0.7467958595648856 0 0  0.8039733463919316 0 0  0.8632198139502143 0 0  0.9246101326867038 0 0  0.9882218810934433 0 0  1.054135445558498 0 0  1.122434100542598 0 0  1.193204177141305 0 0  1.266535089879536 0 0  1.342519516046404 0 0  1.421253448503939 0 0  1.502836389106271 0 0  1.587371439758838 0 0  1.674965418777374 0 0  1.765729001825544 0 0  1.859776908880082 0 0  1.957227977487062 0 0  2.058205329869943 0 0  2.162836591189951 0 0  2.271253957290865 0 0  2.383594446803425 0 0  2.5 0.1024999999997612 0  2.5 0.2049999999994743 0  2.5 0.3074999999997183 0  2.383594446803656 0.41 0  2.271253957291315 0.41 0  2.162836591190598 0.41 0  2.058205329870775 0.41 0  1.957227977488067 0.41 0  1.859776908881246 0.41 0  1.765729001826854 0.41 0  1.674965418778818 0.41 0  1.58737143976041 0.41 0  1.502836389107956 0.41 0  1.421253448505726 0.41 0  1.342519516048286 0.41 0  1.266535089881505 0.41 0  1.193204177143353 0.41 0  1.122434100544716 0.41 0  1.05413544556068 0.41 0  0.9882218810956305 0.41 0  0.9246101326886647 0.41 0  0.8632198139519631 0.41 0  0.8039733463934788 0.41 0  0.7467958595662458 0.41 0  0.6916151138480078 0.41 0  0.6383613676644679 0.41 0  0.5869673343225223 0.41 0  0.5373680609412221 0.41 0  0.4895008759292634 0.41 0  0.4433053055145528 0.41 0  0.3987229542475914 0.41 0  0.3556974926297398 0.41 0  0.3141745521466497 0.41 0  0.2741016576310038 0.41 0  0.2354281840915826 0.41 0  0.1981052433265003 0.41 0  0.1620856860352591 0.41 0  0.1273239957535623 0.41 0  0.09377624077128965 0.41 0  0.06140001986584975 0.41 0  0.03015443760436654 0.41 0  0.2497468076502589 0.2050254481002335 0  0.2497468076502614 0.1949745518997913 0  0.2469965252529372 0.1829317073451959 0  0.2439893735792749 0.1762316384219906 0  0.2400332147834255 0.1700443375285386 0  0.2352133972704371 0.1645032867342007 0  0.2296339016332438 0.1597280261969788 0  0.2234150974217223 0.1558215752574715 0  0.2166911463437691 0.1528682099456123 0  0.2096071079204251 0.1509316448471593 0  0.2023158100364996 0.1500536585536553 0  0.194974551899914 0.1502531923497262 0  0.1877417105387872 0.1515259415822739 0  0.1807733240461124 0.153844448527136 0  0.1742197252835808 0.15715869474974 0  0.1682222986673531 0.1613971801805478 0  0.162910430003803 0.1664684656256651 0  0.1583987151779087 0.1722631454351573 0  0.1547844879126891 0.178656207771761 0  0.1521457199348551 0.1855097315605723 0  0.1505393388476355 0.1926758619366523 0  0.1505393388476328 0.2073241380633295 0  0.1521457199348437 0.2144902684393899 0  0.1547844879126531 0.221343792228163 0  0.1583987151778488 0.2277368545647528 0  0.1629104300036858 0.2335315343742052 0  0.1682222986671726 0.2386028198193036 0  0.1742197252833576 0.2428413052501257 0  0.1807733240458683 0.2461555514727623 0  0.1877417105384929 0.2484740584176516 0  0.1949745518995776 0.2497468076502398 0  0.202315810036185 0.2499463414463592 0  0.2096071079201568 0.2490683551528932 0  0.2166911463435495 0.2471317900544655 0  0.2234150974215506 0.2441784247426195 0  0.2296339016331197 0.2402719738031125 0  0.2352133972703547 0.2354967132658811 0  0.2400332147833751 0.2299556624715287 0  0.2439893735792577 0.2237683615780412 0  0.246996525252926 0.2170682926548348 0  0.25645809709277 0.21 0  0.2639263993298655 0.21 0  0.271394701566961 0.21 0  0.2788630038040554 0.21 0  0.2863313060411479 0.21 0  0.2937996082782405 0.21 0  0.301267910515333 0.21 0  0.3087362127524279 0.21 0  0.3162045149895234 0.21 0  0.3236728172265972 0.21 0  0.3311411194636928 0.21 0  0.3386094217007701 0.21 0  0.3460777239378666 0.21 0  0.3535460261749672 0.21 0  0.3610143284120516 0.21 0  0.3684826306491596 0.21 0  0.3759509328862226 0.21 0  0.383419235123329 0.21 0  0.3908875373604028 0.21 0  0.3983558395975142 0.21 0  0.4058241418345938 0.21 0  0.4132924440716992 0.21 0  0.4207607463087888 0.21 0  0.4282290485459029 0.21 0  0.4356973507830418 0.21 0  0.4431656530201649 0.21 0  0.4506339552573136 0.21 0  0.4581022574944306 0.21 0  0.4655705597315852 0.21 0  0.4730388619686996 0.21 0  0.480507164205851 0.21 0  0.4879754664429498 0.21 0  0.4954437686800938 0.21 0  0.502912070917267 0.21 0  0.5103803731544119 0.21 0  0.5178486753915261 0.21 0  0.5253169776286404 0.21 0  0.5327852798657868 0.21 0  0.5402535821029386 0.21 0  0.54772188434007 0.21 0  0.5551901865771842 0.21 0  0.5626584888143201 0.21 0  0.5701267910514778 0.21 0  0.5775950932886138 0.21 0  0.5850633955257281 0.21 0  0.5925316977628483 0.21 0  0.6 0.2050000000000054 0  0.6 0.1950000000000217 0  0.5925316977628897 0.19 0  0.5850633955257988 0.19 0  0.5775950932887378 0.19 0  0.5701267910515998 0.19 0  0.5626584888145268 0.19 0  0.5551901865773963 0.19 0  0.547721884340339 0.19 0  0.5402535821032429 0.19 0  0.5327852798661811 0.19 0  0.5253169776290537 0.19 0  0.5178486753919799 0.19 0  0.5103803731549078 0.19 0  0.502912070917822 0.19 0  0.4954437686807294 0.19 0  0.4879754664436223 0.19 0  0.4805071642065402 0.19 0  0.4730388619694271 0.19 0  0.4655705597323621 0.19 0  0.4581022574952563 0.19 0  0.4506339552581777 0.19 0  0.4431656530210671 0.19 0  0.4356973507839815 0.19 0  0.4282290485468779 0.19 0  0.4207607463097617 0.19 0  0.4132924440726327 0.19 0  0.4058241418354857 0.19 0  0.3983558395983636 0.19 0  0.3908875373612097 0.19 0  0.3834192351240934 0.19 0  0.3759509328869369 0.19 0  0.3684826306498175 0.19 0  0.361014328412667 0.19 0  0.3535460261755617 0.19 0  0.3460777239384295 0.19 0  0.3386094217012945 0.19 0  0.3311411194641595 0.19 0  0.3236728172270245 0.19 0  0.3162045149898895 0.19 0  0.3087362127527544 0.19 0  0.3012679105156187 0.19 0  0.2937996082784807 0.19 0  0.2863313060413428 0.19 0  0.2788630038042048 0.19 0  0.2713947015670686 0.19 0  0.2639263993299336 0.19 0  0.2564580970927985 0.19 0  0.2607803159922026 0.2000727136295815 0  0.5887803774232762 0.2001272386983733 0  0.5745072403740523 0.2002044435018727 0  0.5511891430099709 0.2001122610077113 0  0.2751288526855082 0.20000000000002 0  0.5365194309847112 0.1999999999999436 0  0.2894621222999649 0.1998691686390484 0  0.5215828265105155 0.1999999999999228 0  0.3127789816668748 0.1998657885438805 0  0.3274069683451451 0.2000000000000796 0  0.5066462220363641 0.199999999999908 0  0.3650630746574081 0.199866017807523 0  0.476773013087985 0.1999999999998713 0  0.3417402379596385 0.1998691686391011 0  0.3796850840047755 0.200000000000134 0  0.4618364086138087 0.1999999999998546 0  0.4917096175621762 0.1999999999998808 0  0.3946216884789568 0.2000000000001512 0  0.446899804139621 0.1999999999998389 0  0.4089549580935208 0.1998691686391595 0  0.4322718174608562 0.200127451265745 0  0.4201487168029707 0.1999966199048527 0  0.3528922713220932 0.2000185703532356 0  0.5633122436674589 0.1999814296467508 0  0.3006558810093873 0.1999966199048318 0  0.5815926498168407 0.1966545283159175 0  0.2677053789419034 0.1964246479135325 0  0.5290511287476175 0.1970915826863981 0  0.5439877332217911 0.197091582686394 0  0.2825131256993216 0.2035478995978015 0  0.3199386661080599 0.202908417313604 0  0.4842413153250809 0.1970915826863873 0  0.5141145242734466 0.1970915826863843 0  0.3722167817676917 0.2029084173136195 0  0.4693047108508938 0.1970915826863783 0  0.3348752705822316 0.202908417313609 0  0.3871533862418661 0.2029084173136212 0  0.4543681063767183 0.1970915826863795 0  0.4991779197992749 0.1970915826863902 0  0.4020059614928624 0.203547899597858 0  0.4394315019025246 0.1970915826863714 0  0.2550657455369551 0.2034088125358657 0  0.2548908499171161 0.1966940311614271 0  0.5946539510196798 0.2024302972968126 0  0.267698176732111 0.2039977513680092 0  0.4261685417851465 0.196409292431739 0  0.3590076176283495 0.196411355804271 0  0.5571672426447437 0.2036011176410121 0  0.3066757059912147 0.1964092924317024 0  0.594380730180568 0.1966558399668133 0  0.4842413153245942 0.2040749161535287 0  0.4693047108503577 0.2040749161535231 0  0.3871533862424271 0.1959250838464788 0  0.372246743208829 0.1959123236376545 0  0.5141145242731028 0.2040749161535395 0  0.4543681063761134 0.2040749161535186 0  0.4019979587101454 0.1959834479682427 0  0.4394608940728603 0.2040870543693135 0  0.5439623148931173 0.2040856076781014 0  0.5290511287473298 0.2040749161535501 0  0.4991779197988497 0.2040749161535382 0  0.3347912413592433 0.1959225448935183 0  0.3199680582793816 0.1959123018030061 0  0.2825051229162361 0.1959834479681729 0  0.3590471196690275 0.2036304442587945 0  0.5571594006495384 0.1963685282145804 0  0.3067669986803285 0.203627750582736 0  0.4262598344738712 0.2036568242185335 0  0.5814408164431408 0.2041285596160068 0  0.5688286748170428 0.1961819304477386 0  0.4145905603063645 0.2038180695522843 0  0.3473758401724931 0.2038180695522752 0  0.2950977245128307 0.2038180695522663 0  0.5688286748170693 0.203818069552238 0  0.2950977245127906 0.1961819304477774 0  0.3473758401723931 0.1961819304478349 0  0.4145905603061963 0.1961819304479011 0  0.2601812407614425 0.2056861609747042
[...]
<PointData  Vectors="f_40-1"> 
<DataArray  type="Float64"  Name="f_40-1"  NumberOfComponents="3" format="ascii">0.0000000000000000e+00 0.0000000000000000e+00 0.0000000000000000e+00  0.0000000000000000e+00 0.0000000000000000e+00 0.0000000000000000e+00  0.0000000000000000e+00 0.0000000000000000e+00 0.0000000000000000e+00  0.0000000000000000e+00 0.0000000000000000e+00 0.0000000000000000e+00  -9.1993841930725138e-06 -2.1193053527551923e-05 0.0000000000000000e+00  -7.3616055018012317e-06 -2.2809578670842700e-05 0.0000000000000000e+00  0.0000000000000000e+00 0.0000000000000000e+00 0.0000000000000000e+00  0.0000000000000000e+00 0.0000000000000000e+00 0.0000000000000000e+00  0.0000000000000000e+00 0.0000000000000000e+00 0.0000000000000000e+00  0.0000000000000000e+00 0.0000000000000000e+00 0.0000000000000000e+00  -8.3765438248956509e-06 -2.2001939021236295e-05 0.0000000000000000e+00  0.0000000000000000e+00 0.0000000000000000e+00 0.0000000000000000e+00  0.0000000000000000e+00 0.0000000000000000e+00 0.0000000000000000e+00  0.0000000000000000e+00 0.0000000000000000e+00 0.0000000000000000e+00  0.0000000000000000e+00 0.0000000000000000e+00 0.0000000000000000e+00  0.0000000000000000e+00 0.0000000000000000e+00 0.0000000000000000e+00  0.0000000000000000e+00 0.0000000000000000e+00 0.0000000000000000e+00  0.0000000000000000e+00 0.0000000000000000e+00 0.0000000000000000e+00  0.0000000000000000e+00 0.0000000000000000e+00 0.0000000000000000e+00  0.0000000000000000e+00 0.0000000000000000e+00 0.0000000000000000e+00  0.0000000000000000e+00 0.0000000000000000e+00 0.0000000000000000e+00  0.0000000000000000e+00 0.0000000000000000e+00 0.0000000000000000e+00  0.0000000000000000e+00 0.0000000000000000e+00 0.0000000000000000e+00  0.0000000000000000e+00 0.0000000000000000e+00 0.0000000000000000e+00  0.0000000000000000e+00 0.0000000000000000e+00 0.0000000000000000e+00  0.0000000000000000e+00 0.0000000000000000e+00 0.0000000000000000e+00  0.0000000000000000e+00 0.0000000000000000e+00 0.0000000000000000e+00  0.0000000000000000e+00 0.0000000000000000e+00 0.0000000000000000e+00  0.0000000000000000e+00 0.0000000000000000e+00 0.0000000000000000e+00  0.0000000000000000e+00 0.0000000000000000e+00 0.0000000000000000e+00  0.0000000000000000e+00 0.0000000000000000e+00 0.0000000000000000e+00  0.0000000000000000e+00 0.0000000000000000e+00 0.0000000000000000e+00  0.0000000000000000e+00 0.0000000000000000e+00 0.0000000000000000e+00  0.0000000000000000e+00 0.0000000000000000e+00 0.0000000000000000e+00  0.0000000000000000e+00 0.0000000000000000e+00 0.0000000000000000e+00  0.0000000000000000e+00 0.0000000000000000e+00 0.0000000000000000e+00  0.0000000000000000e+00 0.0000000000000000e+00 0.0000000000000000e+00  0.0000000000000000e+00 0.0000000000000000e+00 0.0000000000000000e+00  0.0000000000000000e+00 0.0000000000000000e+00 0.0000000000000000e+00  0.0000000000000000e+00 0.0000000000000000e+00 0.0000000000000000e+00  0.0000000000000000e+00 0.0000000000000000e+00 0.0000000000000000e+00  0.0000000000000000e+00 0.0000000000000000e+00 0.0000000000000000e+00  0.0000000000000000e+00 0.0000000000000000e+00 0.0000000000000000e+00  0.0000000000000000e+00 0.0000000000000000e+00 0.0000000000000000e+00  0.0000000000000000e+00 0.0000000000000000e+00 0.0000000000000000e+00  0.0000000000000000e+00 0.0000000000000000e+00 0.0000000000000000e+00  0.0000000000000000e+00 0.0000000000000000e+00 0.0000000000000000e+00  0.0000000000000000e+00 0.0000000000000000e+00 0.0000000000000000e+00  0.0000000000000000e+00 0.0000000000000000e+00 0.0000000000000000e+00  0.0000000000000000e+00 0.0000000000000000e+00 0.0000000000000000e+00  0.0000000000000000e+00 0.0000000000000000e+00 0.0000000000000000e+00  0.0000000000000000e+00 0.0000000000000000e+00 0.0000000000000000e+00  0.0000000000000000e+00 0.0000000000000000e+00 0.0000000000000000e+00  0.0000000000000000e+00 0.0000000000000000e+00 0.0000000000000000e+00  0.0000000000000000e+00 0.0000000000000000e+00 0.0000000000000000e+00  0.0000000000000000e+00 0.0000000000000000e+00 0.0000000000000000e+00  0.0000000000000000e+00 0.0000000000000000e+00 0.0000000000000000e+00  0.0000000000000000e+00 0.0000000000000000e+00 0.0000000000000000e+00  0.0000000000000000e+00 0.0000000000000000e+00 0.0000000000000000e+00  0.0000000000000000e+00 0.0000000000000000e+00 0.0000000000000000e+00  0.0000000000000000e+00 0.0000000000000000e+00 0.0000000000000000e+00  0.0000000000000000e+00 0.0000000000000000e+00 0.0000000000000000e+00  0.0000000000000000e+00 0.0000000000000000e+00 0.0000000000000000e+00  0.0000000000000000e+00 0.0000000000000000e+00 0.0000000000000000e+00  0.0000000000000000e+00 0.0000000000000000e+00 0.0000000000000000e+00  0.0000000000000000e+00 0.0000000000000000e+00 0.0000000000000000e+00  0.0000000000000000e+00 0.0000000000000000e+00 0.0000000000000000e+00  0.0000000000000000e+00 0.0000000000000000e+00 0.0000000000000000e+00  0.0000000000000000e+00 0.0000000000000000e+00 0.0000000000000000e+00  0.0000000000000000e+00 0.0000000000000000e+00 0.0000000000000000e+00  0.0000000000000000e+00 0.0000000000000000e+00 0.0000000000000000e+00  0.0000000000000000e+00 0.0000000000000000e+00 0.0000000000000000e+00  0.0000000000000000e+00 0.0000000000000000e+00 0.0000000000000000e+00  0.0000000000000000e+00 0.0000000000000000e+00 0.0000000000000000e+00  0.0000000000000000e+00 0.0000000000000000e+00 0.0000000000000000e+00  0.0000000000000000e+00 0.0000000000000000e+00 0.0000000000000000e+00  0.0000000000000000e+00 0.0000000000000000e+00 0.0000000000000000e+00  0.0000000000000000e+00 0.0000000000000000e+00 0.0000000000000000e+00  0.0000000000000000e+00 0.0000000000000000e+00 0.0000000000000000e+00  0.0000000000000000e+00 0.0000000000000000e+00 0.0000000000000000e+00  0.0000000000000000e+00 0.0000000000000000e+00 0.0000000000000000e+00  0.0000000000000000e+00 0.0000000000000000e+00 0.0000000000000000e+00  0.0000000000000000e+00 0.0000000000000000e+00 0.0000000000000000e+00  0.0000000000000000e+00 0.0000000000000000e+00 0.0000000000000000e+00  0.0000000000000000e+00 0.0000000000000000e+00 0.0000000000000000e+00  0.0000000000000000e+00 0.0000000000000000e+00 0.0000000000000000e+00  0.0000000000000000e+00 0.0000000000000000e+00 0.0000000000000000e+00  0.0000000000000000e+00 0.0000000000000000e+00 0.0000000000000000e+00  0.0000000000000000e+00 0.0000000000000000e+00 0.0000000000000000e+00  0.0000000000000000e+00 0.0000000000000000e+00 0.0000000000000000e+00  0.0000000000000000e+00 0.0000000000000000e+00 0.0000000000000000e+00  0.0000000000000000e+00 0.0000000000000000e+00 0.0000000000000000e+00  0.0000000000000000e+00 0.0000000000000000e+00 0.0000000000000000e+00  0.0000000000000000e+00 0.0000000000000000e+00 0.0000000000000000e+00  0.0000000000000000e+00 0.0000000000000000e+00 0.0000000000000000e+00  0.0000000000000000e+00 0.0000000000000000e+00 0.0000000000000000e+00  0.0000000000000000e+00 0.0000000000000000e+00 0.0000000000000000e+00  0.0000000000000000e+00 0.0000000000000000e+00 0.0000000000000000e+00  0.0000000000000000e+00 0.0000000000000000e+00 0.0000000000000000e+00  0.0000000000000000e+00 0.0000000000000000e+00 0.0000000000000000e+00  0.0000000000000000e+00 0.0000000000000000e+00 0.0000000000000000e+00  0.0000000000000000e+00 0.0000000000000000e+00 0.0000000000000000e+00  0.0000000000000000e+00 0.0000000000000000e+00 0.0000000000000000e+00  0.0000000000000000e+00 0.0000000000000000e+00 0.0000000000000000e+00  0.0000000000000000e+00 0.0000000000000000e+00 0.0000000000000000e+00  0.0000000000000000e+00 0.0000000000000000e+00 0.0000000000000000e+00  0.0000000000000000e+00 0.0000000000000000e+00 0.0000000000000000e+00  0.0000000000000000e+00 0.0000000000000000e+00 0.0000000000000000e+00  0.0000000000000000e+00 0.0000000000000000e+00 0.0000000000000000e+00  0.0000000000000000e+00 0.0000000000000000e+00 0.0000000000000000e+00  0.0000000000000000e+00 0.0000000000000000e+00 0.0000000000000000e+00  0.0000000000000000e+00 0.0000000000000000e+00 0.0000000000000000e+00  0.0000000000000000e+00 0.0000000000000000e+00 0.0000000000000000e+00  0.0000000000000000e+00 0.0000000000000000e+00 0.0000000000000000e+00  0.0000000000000000e+00 0.0000000000000000e+00 0.0000000000000000e+00  0.0000000000000000e+00 0.0000000000000000e+00 0.0000000000000000e+00  0.0000000000000000e+00 0.0000000000000000e+00 0.0000000000000000e+00  0.0000000000000000e+00 0.0000000000000000e+00 0.0000000000000000e+00  0.0000000000000000e+00 0.0000000000000000e+00 0.0000000000000000e+00  0.0000000000000000e+00 0.0000000000000000e+00 0.0000000000000000e+00  0.0000000000000000e+00 0.0000000000000000e+00 0.0000000000000000e+00  0.0000000000000000e+00 0.0000000000000000e+00 0.0000000000000000e+00  0.0000000000000000e+00 0.0000000000000000e+00 0.0000000000000000e+00  0.0000000000000000e+00 0.0000000000000000e+00 0.0000000000000000e+00  0.0000000000000000e+00 0.0000000000000000e+00 0.0000000000000000e+00  0.0000000000000000e+00 0.0000000000000000e+00 0.0000000000000000e+00  0.0000000000000000e+00 0.0000000000000000e+00 0.0000000000000000e+00  0.0000000000000000e+00 0.0000000000000000e+00 0.0000000000000000e+00  0.0000000000000000e+00 0.0000000000000000e+00 0.0000000000000000e+00  0.0000000000000000e+00 0.0000000000000000e+00 0.0000000000000000e+00  0.0000000000000000e+00 0.0000000000000000e+00 0.0000000000000000e+00  0.0000000000000000e+00 0.0000000000000000e+00 0.0000000000000000e+00  0.0000000000000000e+00 0.0000000000000000e+00 0.0000000000000000e+00  0.0000000000000000e+00 0.0000000000000000e+00 0.0000000000000000e+00  0.0000000000000000e+00 0.0000000000000000e+00 0.0000000000000000e+00  0.0000000000000000e+00 0.0000000000000000e+00 0.0000000000000000e+00  0.0000000000000000e+00 0.0000000000000000e+00 0.0000000000000000e+00  0.0000000000000000e+00 0.0000000000000000e+00 0.0000000000000000e+00  0.0000000000000000e+00 0.0000000000000000e+00 0.0000000000000000e+00  0.0000000000000000e+00 0.0000000000000000e+00 0.0000000000000000e+00  0.0000000000000000e+00 0.0000000000000000e+00 0.0000000000000000e+00  0.0000000000000000e+00 0.0000000000000000e+00 0.0000000000000000e+00  0.0000000000000000e+00 0.0000000000000000e+00 0.0000000000000000e+00  -4.0386053257359522e-08 -1.3713943131703116e-06 0.0000000000000000e+00  -3.7809269267755268e-08 -1.5145016131606348e-06 0.0000000000000000e+00  2.7475963822800432e-08 -1.6102526220939545e-06 0.0000000000000000e+00  1.2656807171329795e-07 -1.6939485762791463e-06 0.0000000000000000e+00  2.2622230873159327e-07 -1.8040807118012303e-06 0.0000000000000000e+00  3.1887256020596783e-07 -1.9568104604100773e-06 0.0000000000000000e+00  3.9560175434653201e-07 -2.1309926301674599e-06 0.0000000000000000e+00  4.5786147844257806e-07 -2.3365366982935803e-06 0.0000000000000000e+00  5.1744443429126546e-07 -2.5667185238413183e-06 0.0000000000000000e+00  5.5432357740839684e-07 -2.8190565540807332e-06 0.0000000000000000e+00  5.8746123746134855e-07 -3.1021279560139719e-06 0.0000000000000000e+00  5.9889728055151986e-07 -3.4029061170250689e-06 0.0000000000000000e+00  6.0254655429084364e-07 -3.7295174330192303e-06 0.0000000000000000e+00  5.8957536340936851e-07 -4.0762702946329956e-06 0.0000000000000000e+00  5.6099898243925617e-07 -4.4443889264900552e-06 0.0000000000000000e+00  5.2737209571450312e-07 -4.8343876676888039e-06 0.0000000000000000e+00  4.7201184954854578e-07 -5.2368938981315242e-06 0.0000000000000000e+00  4.0932696094966768e-07 -5.6664470806088712e-06 0.0000000000000000e+00  3.2676642009532190e-07 -6.1042296123760168e-06 0.0000000000000000e+00  2.3673090199582004e-07 -6.5666948587398730e-06 0.0000000000000000e+00  1.2838345144516993e-07 -7.0368178615416704e-06 0.0000000000000000e+00  7.9983534430799584e-09 -7.5269757660931428e-06 0.0000000000000000e+00  -1.2580346014816343e-07 -8.0296420970861694e-06 0.0000000000000000e+00  -2.7528867135188350e-07 -8.5447829649469137e-06 0.0000000000000000e+00  -4.3209024440431210e-07 -9.0757018431352909e-06 0.0000000000000000e+00  -6.0672458970520744e-07 -9.6120444867453766e-06 0.0000000000000000e+00  -7.9492763156032253e-07 -1.0169813243941756e-05 0.0000000000000000e+00  -9.9665097784115673e-07 -1.0728784544201702e-05 0.0000000000000000e+00  -1.2119390578605693e-06 -1.1306242039042851e-05 0.0000000000000000e+00  -1.4408312906643439e-06 -1.1886182631984102e-05 0.0000000000000000e+00  -1.6825257713791652e-06 -1.2482026390551581e-05 0.0000000000000000e+00  -1.9390550694548467e-06 -1.3079097296395443e-05 0.0000000000000000e+00  -2.2071209038738785e-06 -1.3692005731757242e-05 0.0000000000000000e+00  -2.4905025069027810e-06 -1.4302816150199094e-05 0.0000000000000000e+00  -2.7879332595933318e-06 -1.4930183333405355e-05 0.0000000000000000e+00  -3.0986721857870853e-06 -1.5555432845182913e-05 0.0000000000000000e+00  -3.4223618567040374e-06 -1.6194208996984400e-05 0.0000000000000000e+00  -3.7600294544885562e-06 -1.6830556194641772e-05 0.0000000000000000e+00  -4.1115014651700860e-06 -1.7478897886802548e-05 0.0000000000000000e+00  -4.4779057349987507e-06 -1.8124339005943415e-05 0.0000000000000000e+00  -4.8589747691933885e-06 -1.8778002986645045e-05 0.0000000000000000e+00  -5.2519806684336449e-06 -1.9431350296294051e-05 0.0000000000000000e+00  -5.6615272871165580e-06 -2.0089530709387115e-05 0.0000000000000000e+00  -6.0789441680325545e-06 -2.0748163825068652e-05 0.0000000000000000e+00  -6.5122184982744421e-06 -2.1404537126784738e-05 0.0000000000000000e+00  -6.9484125618280268e-06 -2.2075992829136555e-05 0.0000000000000000e+00  -7.9029724945093378e-06 -2.2403082366661318e-05 0.0000000000000000e+00  -8.8155756612757512e-06 -2.1601004785521092e-05 0.0000000000000000e+00  -8.7779366220663052e-06 -2.0560025386193754e-05 0.0000000000000000e+00  -8.3355172656311059e-06 -1.9863972252062211e-05 0.0000000000000000e+00  -7.8957763566919159e-06 -1.9161422637763435e-05 0.0000000000000000e+00  -7.4705265583655920e-06 -1.8465623897763856e-05 0.0000000000000000e+00  -7.0537537829504544e-06 -1.7772408990341830e-05 0.0000000000000000e+00  -6.6535036040412410e-06 -1.7082680461748475e-05 0.0000000000000000e+00  -6.2624190357893255e-06 -1.6397109713631679e-05 0.0000000000000000e+00  -5.8869582546685700e-06 -1.5712191420398668e-05 0.0000000000000000e+00  -5.5221501874188604e-06 -1.5037332287885240e-05 0.0000000000000000e+00  -5.1716425043556884e-06 -1.4360361177201888e-05 0.0000000000000000e+00  -4.8318211286130761e-06 -1.3695261206294284e-05 0.0000000000000000e+00  -4.5064405361570368e-06 -1.3029579825465529e-05 0.0000000000000000e+00  -4.1910603584211651e-06 -1.2376926049232097e-05 0.0000000000000000e+00  -3.8901020476477504e-06 -1.1724565394285301e-05 0.0000000000000000e+00  -3.5987102137265642e-06 -1.1086415982117506e-05 0.0000000000000000e+00  -3.3220611463194346e-06 -1.0449598102531533e-05 0.0000000000000000e+00  -3.0546380366159796e-06 -9.8275274610855587e-06 0.0000000000000000e+00  -2.8026033870971481e-06 -9.2079891595380039e-06 0.0000000000000000e+00  -2.5592299391642959e-06 -8.6051183660627684e-06 0.0000000000000000e+00  -2.3311198092477967e-06 -8.0060329723089509e-06 0.0000000000000000e+00  -2.1109875445961625e-06 -7.4244610460904760e-06 0.0000000000000000e+00  -1.9066446281283522e-06 -6.8481999237164024e-06 0.0000000000000000e+00  -1.7119373701836900e-06 -6.2879050046299913e-06 0.0000000000000000e+00  -1.5296290856556519e-06 -5.7386546272374890e-06 0.0000000000000000e+00  -1.3621737574166975e-06 -5.2044252793969794e-06 0.0000000000000000e+00  -1.1989021188127325e-06 -4.6840052357232323e-06 0.0000000000000000e+00  -1.0521532053072111e-06 -4.1750391575795987e-06 0.0000000000000000e+00  -9.1473914058130834e-07 -3.6892186175755570e-06 0.0000000000000000e+00  -7.9095448474591414e-07 -3.2111095176905061e-06 0.0000000000000000e+00  -6.7716622008939905e-07 -2.7589534094769923e-06 0.0000000000000000e+00  -5.7654271098139358e-07 -2.3159037538445330e-06 0.0000000000000000e+00  -4.8510837191978662e-07 -1.9003878684644312e-06 0.0000000000000000e+00  -4.0597597068382805e-07 -1.4980068187341155e-06 0.0000000000000000e+00  -3.4062774141165628e-07 -1.1221286130894549e-06 0.0000000000000000e+00  -2.7799657058358407e-07 -7.6317011155447248e-07 0.0000000000000000e+00  -2.3163956600013970e-07 -4.2790091765455520e-07 0.0000000000000000e+00  -1.9393390503612836e-07 -1.2145150804603228e-07 0.0000000000000000e+00  -1.6931699888762044e-07 1.6622011704276912e-07 0.0000000000000000e+00  -1.5195763528063108e-07 4.2212579825015751e-07 0.0000000000000000e+00  -1.4788881246239152e-07 6.5650091946446589e-07 0.0000000000000000e+00  -1.5695632592760199e-07 8.5898233328123805e-07 0.0000000000000000e+00  -1.6557304320686757e-07 1.0365577521650374e-06 0.0000000000000000e+00  -1.9187591798024924e-07 1.1945177525105866e-06 0.0000000000000000e+00  -2.0376022264926852e-07 1.3176313498163191e-06 0.0000000000000000e+00  -1.9509100883899364e-07 1.3671732680652271e-06 0.0000000000000000e+00  -1.1795694811362883e-07 1.3057833531954733e-06 0.0000000000000000e+00  -3.5776603599585369e-07 -3.9070095200356114e-08 0.0000000000000000e+00  -7.6632789391389794e-06 -2.0982103927248003e-05 0.0000000000000000e+00  -6.8011167665218325e-06 -1.9688618953552117e-05 0.0000000000000000e+00  -5.5456004216890711e-06 -1.7578409446536006e-05 0.0000000000000000e+00  -7.2537152759253684e-08 -1.7530618477428195e-07 0.0000000000000000e+00  -4.8288272901614918e-06 -1.6261121232935839e-05 0.0000000000000000e+00  4.6087351118333524e-08 -4.1122339172199926e-07 0.0000000000000000e+00  -4.1394656278329483e-06 -1.4946981994994318e-05 0.0000000000000000e+00  1.5426335316789619e-07 -1.0499290846876537e-06 0.0000000000000000e+00  1.7133932047784032e-07 -1.5989812720636315e-06 0.0000000000000000e+00  -3.5023457665436648e-06 -1.3655014503788489e-05 0.0000000000000000e+00  -9.0741652817229320e-09 -3.3584705771321439e-06 0.0000000000000000e+00  -2.3833524087572293e-06 -1.1154424621118789e-05 0.0000000000000000e+00  1.3688369437450130e-07 -2.1913668818881030e-06 0.0000000000000000e+00  -1.5475130041976895e-07 -4.2047305322517170e-06 0.0000000000000000e+00  -1.9008143390720737e-06 -9.9544627664558756e-06 0.0000000000000000e+00  -2.9170442274828014e-06 -1.2389310565842756e-05 0.0000000000000000e+00  -3.5849650520202605e-07 -5.1209860956567494e-06 0.0000000000000000e+00  -1.4693595199864405e-06 -8.7945868200975982e-06 0.0000000000000000e+00  -6.0888371971744202e-07 -6.0449760086231189e-06 0.0000000000000000e+00  -1.0854259686354797e-06 -7.7160631529350438e-06 0.0000000000000000e+00  -8.2689374878978152e-07 -6.8340891887017732e-06 0.0000000000000000e+00  8.5084021343040316e-08 -2.7469173464036628e-06 0.0000000000000000e+00  -6.2028304002832202e-06 -1.8658040814924313e-05 0.0000000000000000e+00  1.1034156428651236e-07 -7.0712052903480703e-07 0.0000000000000000e+00  -7.5398713987216672e-06 -2.0058025105123797e-05 0.0000000000000000e+00  -2.1614474233633664e-07 4.5723606213364940e-07 0.0000000000000000e+00  -4.7330044391474218e-06 -1.5338358220380365e-05 0.0000000000000000e+00  -5.4519121037143552e-06 -1.6671307298739088e-05 0.0000000000000000e+00  5.6873271190412960e-08 -8.0330660007725831e-07 0.0000000000000000e+00  2.7452336681028435e-07 -1.7128999737812434e-06 0.0000000000000000e+00  -2.8838187921274194e-06 -1.1475909884680422e-05 0.0000000000000000e+00  -4.0655474999287741e-06 -1.4025087891426967e-05 0.0000000000000000e+00  9.2709228102492912e-08 -4.1370712045398555e-06 0.0000000000000000e+00  -2.3687914241987337e-06 -1.0248320925850440e-05 0.0000000000000000e+00  2.8407247230990399e-07 -2.2945772480727272e-06 0.0000000000000000e+00  -7.3401174717183160e-08 -5.0104044913828460e-06 0.0000000000000000e+00  -1.9041604106400832e-06 -9.0583893255662996e-06 0.0000000000000000e+00  -3.4493461357299661e-06 -1.2736095194989701e-05 0.0000000000000000e+00  -2.4602843590646568e-07 -6.0210527312423416e-06 0.0000000000000000e+00  -1.4892783669677402e-06 -7.9110817226859975e-06 0.0000000000000000e+00  -3.2379388073550180e-07 -3.2850357450381314e-07 0.0000000000000000e+00  -3.2981506477821460e-07 2.8505689630186799e-07 0.0000000000000000e+00  -7.8193896415627967e-06 -2.1695431790447813e-05 0