<?xml version="1.0"?>
<VTKFile type="UnstructuredGrid"  version="0.1"  >
<UnstructuredGrid>
<Piece  NumberOfPoints="1419" NumberOfCells="2698">
<Points>
<DataArray  type="Float64"  NumberOfComponents="3"  format="ascii">0 0 0  0 0.41 0  2.5 0 0  2.5 0.41 0  0.6 0.19 0  0.6 0.21 0  0.25 0.2 0  0.15 0.2 0  0.2489897948556636 0.21 0  0.2489897948556636 0.19 0  0.6 0.2 0  0 0.3807142857143437 0  0 0.3514285714286952 0  0 0.3221428571430699 0  0 0.29285714285744 0  0 0.2635714285718054 0  0 0.2342857142861561 0  0 0.2050000000005308 0  0 0.175714285714732 0  0 0.1464285714289574 0  0 0.1171428571431897 0  0 0.08785714285737878 0  0 0.05857142857161107 0  0 0.02928571428580012 0  0.03015443760436003 0 0  0.06140001986583606 0 0  0.09377624077125973 0 0  0.1273239957535082 0 0  0.1620856860351972 0 0  0.1981052433264291 0 0  0.235428184091502 0 0  0.2741016576309132 0 0  0.3141745521465447 0 0  0.3556974926295285 0 0  0.3987229542472677 0 0  0.4433053055141081 0 0  0.4895008759286886 0 0  0.5373680609405097 0 0  0.5869673343216626 0 0  0.6383613676634521 0 0  0.6916151138468254 0 0  0.7467958595648856 0 0  0.8039733463919316 0 0  0.8632198139502143 0 0  0.9246101326867038 0 0  0.9882218810934433 0 0  1.054135445558498 0 0  1.122434100542598 0 0  1.193204177141305 0 0  1.266535089879536 0 0  1.342519516046404 0 0  1.421253448503939 0 0  1.502836389106271 0 0  1.587371439758838 0 0  1.674965418777374 0 0  1.765729001825544 0 0  1.859776908880082 0 0  1.957227977487062 0 0  2.058205329869943 0 0  2.162836591189951 0 0  2.271253957290865 0 0  2.383594446803425 0 0  2.5 0.1024999999997612 0  2.5 0.2049999999994743 0  2.5 0.3074999999997183 0  2.383594446803656 0.41 0  2.271253957291315 0.41 0  2.162836591190598 0.41 0  2.058205329870775 0.41 0  1.957227977488067 0.41 0  1.859776908881246 0.41 0  1.765729001826854 0.41 0  1.674965418778818 0.41 0  1.58737143976041 0.41 0  1.502836389107956 0.41 0  1.421253448505726 0.41 0  1.342519516048286 0.41 0  1.266535089881505 0.41 0  1.193204177143353 0.41 0  1.122434100544716 0.41 0  1.05413544556068 0.41 0  0.9882218810956305 0.41 0  0.9246101326886647 0.41 0  0.8632198139519631 0.41 0  0.8039733463934788 0.41 0  0.7467958595662458 0.41 0  0.6916151138480078 0.41 0  0.6383613676644679 0.41 0  0.5869673343225223 0.41 0  0.5373680609412221 0.41 0  0.4895008759292634 0.41 0  0.4433053055145528 0.41 0  0.3987229542475914 0.41 0  0.3556974926297398 0.41 0  0.3141745521466497 0.41 0  0.2741016576310038 0.41 0  0.2354281840915826 0.41 0  0.1981052433265003 0.41 0  0.1620856860352591 0.41 0  0.1273239957535623 0.41 0  0.09377624077128965 0.41 0  0.06140001986584975 0.41 0  0.03015443760436654 0.41 0  0.2497468076502589 0.2050254481002335 0  0.2497468076502614 0.1949745518997913 0  0.2469965252529372 0.1829317073451959 0  0.2439893735792749 0.1762316384219906 0  0.2400332147834255 0.1700443375285386 0  0.2352133972704371 0.1645032867342007 0  0.2296339016332438 0.1597280261969788 0  0.2234150974217223 0.1558215752574715 0  0.2166911463437691 0.1528682099456123 0  0.2096071079204251 0.1509316448471593 0  0.2023158100364996 0.1500536585536553 0  0.194974551899914 0.1502531923497262 0  0.1877417105387872 0.1515259415822739 0  0.1807733240461124 0.153844448527136 0  0.1742197252835808 0.15715869474974 0  0.1682222986673531 0.1613971801805478 0  0.162910430003803 0.1664684656256651 0  0.1583987151779087 0.1722631454351573 0  0.1547844879126891 0.178656207771761 0  0.1521457199348551 0.1855097315605723 0  0.1505393388476355 0.1926758619366523 0  0.1505393388476328 0.2073241380633295 0  0.1521457199348437 0.2144902684393899 0  0.1547844879126531 0.221343792228163 0  0.1583987151778488 0.2277368545647528 0  0.1629104300036858 0.2335315343742052 0  0.1682222986671726 0.2386028198193036 0  0.1742197252833576 0.2428413052501257 0  0.1807733240458683 0.2461555514727623 0  0.1877417105384929 0.2484740584176516 0  0.1949745518995776 0.2497468076502398 0  0.202315810036185 0.2499463414463592 0  0.2096071079201568 0.2490683551528932 0  0.2166911463435495 0.2471317900544655 0  0.2234150974215506 0.2441784247426195 0  0.2296339016331197 0.2402719738031125 0  0.2352133972703547 0.2354967132658811 0  0.2400332147833751 0.2299556624715287 0  0.2439893735792577 0.2237683615780412 0  0.246996525252926 0.2170682926548348 0  0.25645809709277 0.21 0  0.2639263993298655 0.21 0  0.271394701566961 0.21 0  0.2788630038040554 0.21 0  0.2863313060411479 0.21 0  0.2937996082782405 0.21 0  0.301267910515333 0.21 0  0.3087362127524279 0.21 0  0.3162045149895234 0.21 0  0.3236728172265972 0.21 0  0.3311411194636928 0.21 0  0.3386094217007701 0.21 0  0.3460777239378666 0.21 0  0.3535460261749672 0.21 0  0.3610143284120516 0.21 0  0.3684826306491596 0.21 0  0.3759509328862226 0.21 0  0.383419235123329 0.21 0  0.3908875373604028 0.21 0  0.3983558395975142 0.21 0  0.4058241418345938 0.21 0  0.4132924440716992 0.21 0  0.4207607463087888 0.21 0  0.4282290485459029 0.21 0  0.4356973507830418 0.21 0  0.4431656530201649 0.21 0  0.4506339552573136 0.21 0  0.4581022574944306 0.21 0  0.4655705597315852 0.21 0  0.4730388619686996 0.21 0  0.480507164205851 0.21 0  0.4879754664429498 0.21 0  0.4954437686800938 0.21 0  0.502912070917267 0.21 0  0.5103803731544119 0.21 0  0.5178486753915261 0.21 0  0.5253169776286404 0.21 0  0.5327852798657868 0.21 0  0.5402535821029386 0.21 0  0.54772188434007 0.21 0  0.5551901865771842 0.21 0  0.5626584888143201 0.21 0  0.5701267910514778 0.21 0  0.5775950932886138 0.21 0  0.5850633955257281 0.21 0  0.5925316977628483 0.21 0  0.6 0.2050000000000054 0  0.6 0.1950000000000217 0  0.5925316977628897 0.19 0  0.5850633955257988 0.19 0  0.5775950932887378 0.19 0  0.5701267910515998 0.19 0  0.5626584888145268 0.19 0  0.5551901865773963 0.19 0  0.547721884340339 0.19 0  0.5402535821032429 0.19 0  0.5327852798661811 0.19 0  0.5253169776290537 0.19 0  0.5178486753919799 0.19 0  0.5103803731549078 0.19 0  0.502912070917822 0.19 0  0.4954437686807294 0.19 0  0.4879754664436223 0.19 0  0.4805071642065402 0.19 0  0.4730388619694271 0.19 0  0.4655705597323621 0.19 0  0.4581022574952563 0.19 0  0.4506339552581777 0.19 0  0.4431656530210671 0.19 0  0.4356973507839815 0.19 0  0.4282290485468779 0.19 0  0.4207607463097617 0.19 0  0.4132924440726327 0.19 0  0.4058241418354857 0.19 0  0.3983558395983636 0.19 0  0.3908875373612097 0.19 0  0.3834192351240934 0.19 0  0.3759509328869369 0.19 0  0.3684826306498175 0.19 0  0.361014328412667 0.19 0  0.3535460261755617 0.19 0  0.3460777239384295 0.19 0  0.3386094217012945 0.19 0  0.3311411194641595 0.19 0  0.3236728172270245 0.19 0  0.3162045149898895 0.19 0  0.3087362127527544 0.19 0  0.3012679105156187 0.19 0  0.2937996082784807 0.19 0  0.2863313060413428 0.19 0  0.2788630038042048 0.19 0  0.2713947015670686 0.19 0  0.2639263993299336 0.19 0  0.2564580970927985 0.19 0  0.2607803159922026 0.2000727136295815 0  0.5887803774232762 0.2001272386983733 0  0.5745072403740523 0.2002044435018727 0  0.5511891430099709 0.2001122610077113 0  0.2751288526855082 0.20000000000002 0  0.5365194309847112 0.1999999999999436 0  0.2894621222999649 0.1998691686390484 0  0.5215828265105155 0.1999999999999228 0  0.3127789816668748 0.1998657885438805 0  0.3274069683451451 0.2000000000000796 0  0.5066462220363641 0.199999999999908 0  0.3650630746574081 0.199866017807523 0  0.476773013087985 0.1999999999998713 0  0.3417402379596385 0.1998691686391011 0  0.3796850840047755 0.200000000000134 0  0.4618364086138087 0.1999999999998546 0  0.4917096175621762 0.1999999999998808 0  0.3946216884789568 0.2000000000001512 0  0.446899804139621 0.1999999999998389 0  0.4089549580935208 0.1998691686391595 0  0.4322718174608562 0.200127451265745 0  0.4201487168029707 0.1999966199048527 0  0.3528922713220932 0.2000185703532356 0  0.5633122436674589 0.1999814296467508 0  0.3006558810093873 0.1999966199048318 0  0.5815926498168407 0.1966545283159175 0  0.2677053789419034 0.1964246479135325 0  0.5290511287476175 0.1970915826863981 0  0.5439877332217911 0.197091582686394 0  0.2825131256993216 0.2035478995978015 0  0.3199386661080599 0.202908417313604 0  0.4842413153250809 0.1970915826863873 0  0.5141145242734466 0.1970915826863843 0  0.3722167817676917 0.2029084173136195 0  0.4693047108508938 0.1970915826863783 0  0.3348752705822316 0.202908417313609 0  0.3871533862418661 0.2029084173136212 0  0.4543681063767183 0.1970915826863795 0  0.4991779197992749 0.1970915826863902 0  0.4020059614928624 0.203547899597858 0  0.4394315019025246 0.1970915826863714 0  0.2550657455369551 0.2034088125358657 0  0.2548908499171161 0.1966940311614271 0  0.5946539510196798 0.2024302972968126 0  0.267698176732111 0.2039977513680092 0  0.4261685417851465 0.196409292431739 0  0.3590076176283495 0.196411355804271 0  0.5571672426447437 0.2036011176410121 0  0.3066757059912147 0.1964092924317024 0  0.594380730180568 0.1966558399668133 0  0.4842413153245942 0.2040749161535287 0  0.4693047108503577 0.2040749161535231 0  0.3871533862424271 0.1959250838464788 0  0.372246743208829 0.1959123236376545 0  0.5141145242731028 0.2040749161535395 0  0.4543681063761134 0.2040749161535186 0  0.4019979587101454 0.1959834479682427 0  0.4394608940728603 0.2040870543693135 0  0.5439623148931173 0.2040856076781014 0  0.5290511287473298 0.2040749161535501 0  0.4991779197988497 0.2040749161535382 0  0.3347912413592433 0.1959225448935183 0  0.3199680582793816 0.1959123018030061 0  0.2825051229162361 0.1959834479681729 0  0.3590471196690275 0.2036304442587945 0  0.5571594006495384 0.1963685282145804 0  0.3067669986803285 0.203627750582736 0  0.4262598344738712 0.2036568242185335 0  0.5814408164431408 0.2041285596160068 0  0.5688286748170428 0.1961819304477386 0  0.4145905603063645 0.2038180695522843 0  0.3473758401724931 0.2038180695522752 0  0.2950977245128307 0.2038180695522663 0  0.5688286748170693 0.203818069552238 0  0.2950977245127906 0.1961819304477774 0  0.3473758401723931 0.1961819304478349 0  0.4145905603061963 0.1961819304479011 0  0.2601812407614425 0.2056861609747042
[...]
<PointData  Vectors="f_40-1"> 
<DataArray  type="Float64"  Name="f_40-1"  NumberOfComponents="3" format="ascii">0.0000000000000000e+00 0.0000000000000000e+00 0.0000000000000000e+00  0.0000000000000000e+00 0.0000000000000000e+00 0.0000000000000000e+00  0.0000000000000000e+00 0.0000000000000000e+00 0.0000000000000000e+00  0.0000000000000000e+00 0.0000000000000000e+00 0.0000000000000000e+00  -9.8006674730675594e-06 -3.3980147194385563e-05 0.0000000000000000e+00  -6.9342381058318932e-06 -3.5867235068620114e-05 0.0000000000000000e+00  0.0000000000000000e+00 0.0000000000000000e+00 0.0000000000000000e+00  0.0000000000000000e+00 0.0000000000000000e+00 0.0000000000000000e+00  0.0000000000000000e+00 0.0000000000000000e+00 0.0000000000000000e+00  0.0000000000000000e+00 0.0000000000000000e+00 0.0000000000000000e+00  -8.4894614640408005e-06 -3.4924483935517391e-05 0.0000000000000000e+00  0.0000000000000000e+00 0.0000000000000000e+00 0.0000000000000000e+00  0.0000000000000000e+00 0.0000000000000000e+00 0.0000000000000000e+00  0.0000000000000000e+00 0.0000000000000000e+00 0.0000000000000000e+00  0.0000000000000000e+00 0.0000000000000000e+00 0.0000000000000000e+00  0.0000000000000000e+00 0.0000000000000000e+00 0.0000000000000000e+00  0.0000000000000000e+00 0.0000000000000000e+00 0.0000000000000000e+00  0.0000000000000000e+00 0.0000000000000000e+00 0.0000000000000000e+00  0.0000000000000000e+00 0.0000000000000000e+00 0.0000000000000000e+00  0.0000000000000000e+00 0.0000000000000000e+00 0.0000000000000000e+00  0.0000000000000000e+00 0.0000000000000000e+00 0.0000000000000000e+00  0.0000000000000000e+00 0.0000000000000000e+00 0.0000000000000000e+00  0.0000000000000000e+00 0.0000000000000000e+00 0.0000000000000000e+00  0.0000000000000000e+00 0.0000000000000000e+00 0.0000000000000000e+00  0.0000000000000000e+00 0.0000000000000000e+00 0.0000000000000000e+00  0.0000000000000000e+00 0.0000000000000000e+00 0.0000000000000000e+00  0.0000000000000000e+00 0.0000000000000000e+00 0.0000000000000000e+00  0.0000000000000000e+00 0.0000000000000000e+00 0.0000000000000000e+00  0.0000000000000000e+00 0.0000000000000000e+00 0.0000000000000000e+00  0.0000000000000000e+00 0.0000000000000000e+00 0.0000000000000000e+00  0.0000000000000000e+00 0.0000000000000000e+00 0.0000000000000000e+00  0.0000000000000000e+00 0.0000000000000000e+00 0.0000000000000000e+00  0.0000000000000000e+00 0.0000000000000000e+00 0.0000000000000000e+00  0.0000000000000000e+00 0.0000000000000000e+00 0.0000000000000000e+00  0.0000000000000000e+00 0.0000000000000000e+00 0.0000000000000000e+00  0.0000000000000000e+00 0.0000000000000000e+00 0.0000000000000000e+00  0.0000000000000000e+00 0.0000000000000000e+00 0.0000000000000000e+00  0.0000000000000000e+00 0.0000000000000000e+00 0.0000000000000000e+00  0.0000000000000000e+00 0.0000000000000000e+00 0.0000000000000000e+00  0.0000000000000000e+00 0.0000000000000000e+00 0.0000000000000000e+00  0.0000000000000000e+00 0.0000000000000000e+00 0.0000000000000000e+00  0.0000000000000000e+00 0.0000000000000000e+00 0.0000000000000000e+00  0.0000000000000000e+00 0.0000000000000000e+00 0.0000000000000000e+00  0.0000000000000000e+00 0.0000000000000000e+00 0.0000000000000000e+00  0.0000000000000000e+00 0.0000000000000000e+00 0.0000000000000000e+00  0.0000000000000000e+00 0.0000000000000000e+00 0.0000000000000000e+00  0.0000000000000000e+00 0.0000000000000000e+00 0.0000000000000000e+00  0.0000000000000000e+00 0.0000000000000000e+00 0.0000000000000000e+00  0.0000000000000000e+00 0.0000000000000000e+00 0.0000000000000000e+00  0.0000000000000000e+00 0.0000000000000000e+00 0.0000000000000000e+00  0.0000000000000000e+00 0.0000000000000000e+00 0.0000000000000000e+00  0.0000000000000000e+00 0.0000000000000000e+00 0.0000000000000000e+00  0.0000000000000000e+00 0.0000000000000000e+00 0.0000000000000000e+00  0.0000000000000000e+00 0.0000000000000000e+00 0.0000000000000000e+00  0.0000000000000000e+00 0.0000000000000000e+00 0.0000000000000000e+00  0.0000000000000000e+00 0.0000000000000000e+00 0.0000000000000000e+00  0.0000000000000000e+00 0.0000000000000000e+00 0.0000000000000000e+00  0.0000000000000000e+00 0.0000000000000000e+00 0.0000000000000000e+00  0.0000000000000000e+00 0.0000000000000000e+00 0.0000000000000000e+00  0.0000000000000000e+00 0.0000000000000000e+00 0.0000000000000000e+00  0.0000000000000000e+00 0.0000000000000000e+00 0.0000000000000000e+00  0.0000000000000000e+00 0.0000000000000000e+00 0.0000000000000000e+00  0.0000000000000000e+00 0.0000000000000000e+00 0.0000000000000000e+00  0.0000000000000000e+00 0.0000000000000000e+00 0.0000000000000000e+00  0.0000000000000000e+00 0.0000000000000000e+00 0.0000000000000000e+00  0.0000000000000000e+00 0.0000000000000000e+00 0.0000000000000000e+00  0.0000000000000000e+00 0.0000000000000000e+00 0.0000000000000000e+00  0.0000000000000000e+00 0.0000000000000000e+00 0.0000000000000000e+00  0.0000000000000000e+00 0.0000000000000000e+00 0.0000000000000000e+00  0.0000000000000000e+00 0.0000000000000000e+00 0.0000000000000000e+00  0.0000000000000000e+00 0.0000000000000000e+00 0.0000000000000000e+00  0.0000000000000000e+00 0.0000000000000000e+00 0.0000000000000000e+00  0.0000000000000000e+00 0.0000000000000000e+00 0.0000000000000000e+00  0.0000000000000000e+00 0.0000000000000000e+00 0.0000000000000000e+00  0.0000000000000000e+00 0.0000000000000000e+00 0.0000000000000000e+00  0.0000000000000000e+00 0.0000000000000000e+00 0.0000000000000000e+00  0.0000000000000000e+00 0.0000000000000000e+00 0.0000000000000000e+00  0.0000000000000000e+00 0.0000000000000000e+00 0.0000000000000000e+00  0.0000000000000000e+00 0.0000000000000000e+00 0.0000000000000000e+00  0.0000000000000000e+00 0.0000000000000000e+00 0.0000000000000000e+00  0.0000000000000000e+00 0.0000000000000000e+00 0.0000000000000000e+00  0.0000000000000000e+00 0.0000000000000000e+00 0.0000000000000000e+00  0.0000000000000000e+00 0.0000000000000000e+00 0.0000000000000000e+00  0.0000000000000000e+00 0.0000000000000000e+00 0.0000000000000000e+00  0.0000000000000000e+00 0.0000000000000000e+00 0.0000000000000000e+00  0.0000000000000000e+00 0.0000000000000000e+00 0.0000000000000000e+00  0.0000000000000000e+00 0.0000000000000000e+00 0.0000000000000000e+00  0.0000000000000000e+00 0.0000000000000000e+00 0.0000000000000000e+00  0.0000000000000000e+00 0.0000000000000000e+00 0.0000000000000000e+00  0.0000000000000000e+00 0.0000000000000000e+00 0.0000000000000000e+00  0.0000000000000000e+00 0.0000000000000000e+00 0.0000000000000000e+00  0.0000000000000000e+00 0.0000000000000000e+00 0.0000000000000000e+00  0.0000000000000000e+00 0.0000000000000000e+00 0.0000000000000000e+00  0.0000000000000000e+00 0.0000000000000000e+00 0.0000000000000000e+00  0.0000000000000000e+00 0.0000000000000000e+00 0.0000000000000000e+00  0.0000000000000000e+00 0.0000000000000000e+00 0.0000000000000000e+00  0.0000000000000000e+00 0.0000000000000000e+00 0.0000000000000000e+00  0.0000000000000000e+00 0.0000000000000000e+00 0.0000000000000000e+00  0.0000000000000000e+00 0.0000000000000000e+00 0.0000000000000000e+00  0.0000000000000000e+00 0.0000000000000000e+00 0.0000000000000000e+00  0.0000000000000000e+00 0.0000000000000000e+00 0.0000000000000000e+00  0.0000000000000000e+00 0.0000000000000000e+00 0.0000000000000000e+00  0.0000000000000000e+00 0.0000000000000000e+00 0.0000000000000000e+00  0.0000000000000000e+00 0.0000000000000000e+00 0.0000000000000000e+00  0.0000000000000000e+00 0.0000000000000000e+00 0.0000000000000000e+00  0.0000000000000000e+00 0.0000000000000000e+00 0.0000000000000000e+00  0.0000000000000000e+00 0.0000000000000000e+00 0.0000000000000000e+00  0.0000000000000000e+00 0.0000000000000000e+00 0.0000000000000000e+00  0.0000000000000000e+00 0.0000000000000000e+00 0.0000000000000000e+00  0.0000000000000000e+00 0.0000000000000000e+00 0.0000000000000000e+00  0.0000000000000000e+00 0.0000000000000000e+00 0.0000000000000000e+00  0.0000000000000000e+00 0.0000000000000000e+00 0.0000000000000000e+00  0.0000000000000000e+00 0.0000000000000000e+00 0.0000000000000000e+00  0.0000000000000000e+00 0.0000000000000000e+00 0.0000000000000000e+00  0.0000000000000000e+00 0.0000000000000000e+00 0.0000000000000000e+00  0.0000000000000000e+00 0.0000000000000000e+00 0.0000000000000000e+00  0.0000000000000000e+00 0.0000000000000000e+00 0.0000000000000000e+00  0.0000000000000000e+00 0.0000000000000000e+00 0.0000000000000000e+00  0.0000000000000000e+00 0.0000000000000000e+00 0.0000000000000000e+00  0.0000000000000000e+00 0.0000000000000000e+00 0.0000000000000000e+00  0.0000000000000000e+00 0.0000000000000000e+00 0.0000000000000000e+00  0.0000000000000000e+00 0.0000000000000000e+00 0.0000000000000000e+00  0.0000000000000000e+00 0.0000000000000000e+00 0.0000000000000000e+00  0.0000000000000000e+00 0.0000000000000000e+00 0.0000000000000000e+00  0.0000000000000000e+00 0.0000000000000000e+00 0.0000000000000000e+00  0.0000000000000000e+00 0.0000000000000000e+00 0.0000000000000000e+00  0.0000000000000000e+00 0.0000000000000000e+00 0.0000000000000000e+00  0.0000000000000000e+00 0.0000000000000000e+00 0.0000000000000000e+00  0.0000000000000000e+00 0.0000000000000000e+00 0.0000000000000000e+00  0.0000000000000000e+00 0.0000000000000000e+00 0.0000000000000000e+00  0.0000000000000000e+00 0.0000000000000000e+00 0.0000000000000000e+00  0.0000000000000000e+00 0.0000000000000000e+00 0.0000000000000000e+00  0.0000000000000000e+00 0.0000000000000000e+00 0.0000000000000000e+00  0.0000000000000000e+00 0.0000000000000000e+00 0.0000000000000000e+00  0.0000000000000000e+00 0.0000000000000000e+00 0.0000000000000000e+00  0.0000000000000000e+00 0.0000000000000000e+00 0.0000000000000000e+00  0.0000000000000000e+00 0.0000000000000000e+00 0.0000000000000000e+00  0.0000000000000000e+00 0.0000000000000000e+00 0.0000000000000000e+00  0.0000000000000000e+00 0.0000000000000000e+00 0.0000000000000000e+00  0.0000000000000000e+00 0.0000000000000000e+00 0.0000000000000000e+00  0.0000000000000000e+00 0.0000000000000000e+00 0.0000000000000000e+00  0.0000000000000000e+00 0.0000000000000000e+00 0.0000000000000000e+00  0.0000000000000000e+00 0.0000000000000000e+00 0.0000000000000000e+00  7.8092604769325343e-09 -1.6409517397663243e-06 0.0000000000000000e+00  7.1023248282434957e-08 -1.8314134948845476e-06 0.0000000000000000e+00  2.0740239690222847e-07 -1.9788943434544397e-06 0.0000000000000000e+00  3.8555055077855340e-07 -2.1263280649266625e-06 0.0000000000000000e+00  5.6085207697484081e-07 -2.3168837112862549e-06 0.0000000000000000e+00  7.2988029848757767e-07 -2.5712892576994224e-06 0.0000000000000000e+00  8.7598194318262326e-07 -2.8609209957270406e-06 0.0000000000000000e+00  1.0039854656467505e-06 -3.2008176455356173e-06 0.0000000000000000e+00  1.1306500325391524e-06 -3.5800308381266249e-06 0.0000000000000000e+00  1.2256510531166557e-06 -3.9957271079991472e-06 0.0000000000000000e+00  1.3186110977881844e-06 -4.4586325973652960e-06 0.0000000000000000e+00  1.3812097761515076e-06 -4.9516716682482769e-06 0.0000000000000000e+00  1.4361351439132879e-06 -5.4849627411021016e-06 0.0000000000000000e+00  1.4679318542357150e-06 -6.0496775654430775e-06 0.0000000000000000e+00  1.4802812251485863e-06 -6.6490237619364842e-06 0.0000000000000000e+00  1.4876507916329107e-06 -7.2815616200758213e-06 0.0000000000000000e+00  1.4655666243957133e-06 -7.9359496519365181e-06 0.0000000000000000e+00  1.4360994276999154e-06 -8.6300228264361677e-06 0.0000000000000000e+00  1.3795952995329687e-06 -9.3397958875430243e-06 0.0000000000000000e+00  1.3152149510857435e-06 -1.0085353991398678e-05 0.0000000000000000e+00  1.2264614379304198e-06 -1.0845435451747896e-05 0.0000000000000000e+00  1.1236171744318612e-06 -1.1635311898288958e-05 0.0000000000000000e+00  1.0026540463901784e-06 -1.2444229147799905e-05 0.0000000000000000e+00  8.6225793473112651e-07 -1.3273392567729752e-05 0.0000000000000000e+00  7.1333601723836482e-07 -1.4125138190995876e-05 0.0000000000000000e+00  5.4134568587356893e-07 -1.4987504397602101e-05 0.0000000000000000e+00  3.5264101138637564e-07 -1.5879545097864241e-05 0.0000000000000000e+00  1.4660068295487717e-07 -1.6775910150955343e-05 0.0000000000000000e+00  -7.6195928291051194e-08 -1.7697959432060251e-05 0.0000000000000000e+00  -3.1636240832037773e-07 -1.8625243421553776e-05 0.0000000000000000e+00  -5.7241474073995667e-07 -1.9574529811805280e-05 0.0000000000000000e+00  -8.4720047392744352e-07 -2.0526953290804669e-05 0.0000000000000000e+00  -1.1364052926633185e-06 -2.1500697272698541e-05 0.0000000000000000e+00  -1.4448925383815163e-06 -2.2473213741695309e-05 0.0000000000000000e+00  -1.7707708227580321e-06 -2.3467477082190421e-05 0.0000000000000000e+00  -2.1134395887329168e-06 -2.4459935794160424e-05 0.0000000000000000e+00  -2.4722139279713414e-06 -2.5470016305344250e-05 0.0000000000000000e+00  -2.8485134021858416e-06 -2.6477561224716515e-05 0.0000000000000000e+00  -3.2419300612850083e-06 -2.7500577293884416e-05 0.0000000000000000e+00  -3.6539708296176950e-06 -2.8520197379846423e-05 0.0000000000000000e+00  -4.0842397259096344e-06 -2.9550338207936907e-05 0.0000000000000000e+00  -4.5294386432669770e-06 -3.0580148457510196e-05 0.0000000000000000e+00  -4.9950335345441487e-06 -3.1616036320303227e-05 0.0000000000000000e+00  -5.4704427245709694e-06 -3.2652479206457988e-05 0.0000000000000000e+00  -5.9656649303148777e-06 -3.3685859150393027e-05 0.0000000000000000e+00  -6.4644688386097912e-06 -3.4737881552362300e-05 0.0000000000000000e+00  -7.7546483167619855e-06 -3.5392400299255287e-05 0.0000000000000000e+00  -9.1801187265442110e-06 -3.4456845712075786e-05 0.0000000000000000e+00  -9.3206978634892597e-06 -3.2976054310115721e-05 0.0000000000000000e+00  -8.8141085475241853e-06 -3.1893620556002981e-05 0.0000000000000000e+00  -8.3108243936124810e-06 -3.0803071796325148e-05 0.0000000000000000e+00  -7.8255622594326319e-06 -2.9721168647011214e-05 0.0000000000000000e+00  -7.3507709081631461e-06 -2.8642515808961496e-05 0.0000000000000000e+00  -6.8962170027183506e-06 -2.7568303085107424e-05 0.0000000000000000e+00  -6.4528686865716606e-06 -2.6499467178537119e-05 0.0000000000000000e+00  -6.0287932035084279e-06 -2.5431568083750045e-05 0.0000000000000000e+00  -5.6175823884093230e-06 -2.4376637512779009e-05 0.0000000000000000e+00  -5.2240129358056845e-06 -2.3319500666040295e-05 0.0000000000000000e+00  -4.8431274721372244e-06 -2.2277747536241445e-05 0.0000000000000000e+00  -4.4801000173855805e-06 -2.1235926231246204e-05 0.0000000000000000e+00  -4.1287825541576424e-06 -2.0211271310627736e-05 0.0000000000000000e+00  -3.7953692941875029e-06 -1.9188113031005034e-05 0.0000000000000000e+00  -3.4729359742940175e-06 -1.8183998199004908e-05 0.0000000000000000e+00  -3.1689278309972227e-06 -1.7183115724304093e-05 0.0000000000000000e+00  -2.8752310368468364e-06 -1.6202377421125797e-05 0.0000000000000000e+00  -2.6008828824386863e-06 -1.5226773958923727e-05 0.0000000000000000e+00  -2.3360037526298925e-06 -1.4274197836253963e-05 0.0000000000000000e+00  -2.0904830616963344e-06 -1.3328946111608888e-05 0.0000000000000000e+00  -1.8533270852589915e-06 -1.2408346925634293e-05 0.0000000000000000e+00  -1.6363692360490920e-06 -1.1497516929718527e-05 0.0000000000000000e+00  -1.4296886574834526e-06 -1.0610046476000332e-05 0.0000000000000000e+00  -1.2389479003906476e-06 -9.7395467814150392e-06 0.0000000000000000e+00  -1.0660495225404732e-06 -8.8924228871025150e-06 0.0000000000000000e+00  -8.9693115443404592e-07 -8.0658141554531750e-06 0.0000000000000000e+00  -7.4854028983186952e-07 -7.2586143408561946e-06 0.0000000000000000e+00  -6.1064415199479445e-07 -6.4847010911974160e-06 0.0000000000000000e+00  -4.8964490986952697e-07 -5.7259366984289176e-06 0.0000000000000000e+00  -3.7992850547510699e-07 -5.0046172265344057e-06 0.0000000000000000e+00  -2.8659502519476119e-07 -4.3005467048473842e-06 0.0000000000000000e+00  -2.0281797243937136e-07 -3.6375492092053005e-06 0.0000000000000000e+00  -1.3540650854031626e-07 -2.9964885695576229e-06 0.0000000000000000e+00  -8.4465674590654264e-08 -2.3965393341378216e-06 0.0000000000000000e+00  -3.4659813456790546e-08 -1.8235321318338808e-06 0.0000000000000000e+00  -5.6138487770011071e-09 -1.2886104133495597e-06 0.0000000000000000e+00  1.4110583677963560e-08 -7.9743892941367507e-07 0.0000000000000000e+00  1.7279053168847742e-08 -3.3813401598364266e-07 0.0000000000000000e+00  1.3813576589812160e-08 7.1689499804964591e-08 0.0000000000000000e+00  -7.8647261895302327e-09 4.4687865030440460e-07 0.0000000000000000e+00  -4.5286954576062289e-08 7.7082583430749890e-07 0.0000000000000000e+00  -7.9175318074667656e-08 1.0555105297402304e-06 0.0000000000000000e+00  -1.3597272355331617e-07 1.3034500427661217e-06 0.0000000000000000e+00  -1.7326828591153219e-07 1.4967455850138349e-06 0.0000000000000000e+00  -1.8813451064053095e-07 1.5893864640637968e-06 0.0000000000000000e+00  -1.1807279071229937e-07 1.5366564577495648e-06 0.0000000000000000e+00  -3.6265712246812328e-07 -6.0066181805534419e-08 0.0000000000000000e+00  -7.6633212712073263e-06 -3.3329501801642135e-05 0.0000000000000000e+00  -6.6720294812714617e-06 -3.1305738116719464e-05 0.0000000000000000e+00  -5.2491157356468988e-06 -2.8004644406723486e-05 0.0000000000000000e+00  5.5712016200148838e-08 -2.8911267585403446e-07 0.0000000000000000e+00  -4.4458984462118249e-06 -2.5941754585626952e-05 0.0000000000000000e+00  2.7500007029555357e-07 -6.8432668717082716e-07 0.0000000000000000e+00  -3.6744825684616325e-06 -2.3875854512680441e-05 0.0000000000000000e+00  5.2904987305719760e-07 -1.7236046125172077e-06 0.0000000000000000e+00  6.2782779231383393e-07 -2.6054234824883873e-06 0.0000000000000000e+00  -2.9674354521225576e-06 -2.1840089200779976e-05 0.0000000000000000e+00  5.9818561208876053e-07 -5.4502675190529622e-06 0.0000000000000000e+00  -1.7444866110915272e-06 -1.7886203533963119e-05 0.0000000000000000e+00  6.5756955855268367e-07 -3.5703766846882959e-06 0.0000000000000000e+00  4.9718810934243609e-07 -6.8027530443116910e-06 0.0000000000000000e+00  -1.2277173622782647e-06 -1.5982377663384280e-05 0.0000000000000000e+00  -2.3241988111956631e-06 -1.9841081803510470e-05 0.0000000000000000e+00  3.2359149367241929e-07 -8.2722346491500688e-06 0.0000000000000000e+00  -7.7382781134348911e-07 -1.4138193253938499e-05 0.0000000000000000e+00  8.6220050288242013e-08 -9.7579134224507003e-06 0.0000000000000000e+00  -3.7336223826052274e-07 -1.2414181431132376e-05 0.0000000000000000e+00  -1.2129788646593119e-07 -1.1012539983893499e-05 0.0000000000000000e+00  6.5404357834948241e-07 -4.4575848462167614e-06 0.0000000000000000e+00  -5.9998711992215078e-06 -2.9700222259274668e-05 0.0000000000000000e+00  4.1334856797180468e-07 -1.1584602251201051e-06 0.0000000000000000e+00  -7.6525017461714566e-06 -3.1993004461716251e-05 0.0000000000000000e+00  -1.7223963447608345e-07 5.0117261858073484e-07 0.0000000000000000e+00  -4.4535779917314040e-06 -2.4597044050807708e-05 0.0000000000000000e+00  -5.2617677565469568e-06 -2.6686903761414391e-05 0.0000000000000000e+00  2.7844213825662787e-07 -1.0896657427089619e-06 0.0000000000000000e+00  7.5680261084772110e-07 -2.6186871285384507e-06 0.0000000000000000e+00  -2.4062523107096461e-06 -1.8514643489294547e-05 0.0000000000000000e+00  -3.7085429783495188e-06 -2.2533668212562972e-05 0.0000000000000000e+00  8.2483542992950622e-07 -6.5405449791218771e-06 0.0000000000000000e+00  -1.8478871258714676e-06 -1.6572748582892271e-05 0.0000000000000000e+00  8.5263401340821454e-07 -3.5633679614022210e-06 0.0000000000000000e+00  7.0210114446112467e-07 -7.9458992273341565e-06 0.0000000000000000e+00  -1.3511416273085341e-06 -1.4686343289765871e-05 0.0000000000000000e+00  -3.0263663741498797e-06 -2.0503756040816873e-05 0.0000000000000000e+00  5.8585557470929646e-07 -9.5367667627458119e-06 0.0000000000000000e+00  -9.1523267235680657e-07 -1.2863876700262749e-05 0.0000000000000000e+00  -3.5171772511160674e-07 -3.9306590413393484e-07 0.0000000000000000e+00  -3.6552375681031108e-07 3.3638214220632652e-07 0.0000000000000000e+00  -7.7565394800210634e-06 -3.4372867931019849e-05 0.0000000000000000