<?xml version="1.0"?>
<VTKFile type="UnstructuredGrid"  version="0.1"  >
<UnstructuredGrid>
<Piece  NumberOfPoints="1419" NumberOfCells="2698">
<Points>
<DataArray  type="Float64"  NumberOfComponents="3"  format="ascii">0 0 0  0 0.41 0  2.5 0 0  2.5 0.41 0  0.6 0.19 0  0.6 0.21 0  0.25 0.2 0  0.15 0.2 0  0.2489897948556636 0.21 0  0.2489897948556636 0.19 0  0.6 0.2 0  0 0.3807142857143437 0  0 0.3514285714286952 0  0 0.3221428571430699 0  0 0.29285714285744 0  0 0.2635714285718054 0  0 0.2342857142861561 0  0 0.2050000000005308 0  0 0.175714285714732 0  0 0.1464285714289574 0  0 0.1171428571431897 0  0 0.08785714285737878 0  0 0.05857142857161107 0  0 0.02928571428580012 0  0.03015443760436003 0 0  0.06140001986583606 0 0  0.09377624077125973 0 0  0.1273239957535082 0 0  0.1620856860351972 0 0  0.1981052433264291 0 0  0.235428184091502 0 0  0.2741016576309132 0 0  0.3141745521465447 0 0  0.3556974926295285 0 0  0.3987229542472677 0 0  0.4433053055141081 0 0  0.4895008759286886 0 0  0.5373680609405097 0 0  0.5869673343216626 0 0  0.6383613676634521 0 0  0.6916151138468254 0 0  0.7467958595648856 0 0  0.8039733463919316 0 0  0.8632198139502143 0 0  0.9246101326867038 0 0  0.9882218810934433 0 0  1.054135445558498 0 0  1.122434100542598 0 0  1.193204177141305 0 0  1.266535089879536 0 0  1.342519516046404 0 0  1.421253448503939 0 0  1.502836389106271 0 0  1.587371439758838 0 0  1.674965418777374 0 0  1.765729001825544 0 0  1.859776908880082 0 0  1.957227977487062 0 0  2.058205329869943 0 0  2.162836591189951 0 0  2.271253957290865 0 0  2.383594446803425 0 0  2.5 0.1024999999997612 0  2.5 0.2049999999994743 0  2.5 0.3074999999997183 0  2.383594446803656 0.41 0  2.271253957291315 0.41 0  2.162836591190598 0.41 0  2.058205329870775 0.41 0  1.957227977488067 0.41 0  1.859776908881246 0.41 0  1.765729001826854 0.41 0  1.674965418778818 0.41 0  1.58737143976041 0.41 0  1.502836389107956 0.41 0  1.421253448505726 0.41 0  1.342519516048286 0.41 0  1.266535089881505 0.41 0  1.193204177143353 0.41 0  1.122434100544716 0.41 0  1.05413544556068 0.41 0  0.9882218810956305 0.41 0  0.9246101326886647 0.41 0  0.8632198139519631 0.41 0  0.8039733463934788 0.41 0  0.7467958595662458 0.41 0  0.6916151138480078 0.41 0  0.6383613676644679 0.41 0  0.5869673343225223 0.41 0  0.5373680609412221 0.41 0  0.4895008759292634 0.41 0  0.4433053055145528 0.41 0  0.3987229542475914 0.41 0  0.3556974926297398 0.41 0  0.3141745521466497 0.41 0  0.2741016576310038 0.41 0  0.2354281840915826 0.41 0  0.1981052433265003 0.41 0  0.1620856860352591 0.41 0  0.1273239957535623 0.41 0  0.09377624077128965 0.41 0  0.06140001986584975 0.41 0  0.03015443760436654 0.41 0  0.2497468076502589 0.2050254481002335 0  0.2497468076502614 0.1949745518997913 0  0.2469965252529372 0.1829317073451959 0  0.2439893735792749 0.1762316384219906 0  0.2400332147834255 0.1700443375285386 0  0.2352133972704371 0.1645032867342007 0  0.2296339016332438 0.1597280261969788 0  0.2234150974217223 0.1558215752574715 0  0.2166911463437691 0.1528682099456123 0  0.2096071079204251 0.1509316448471593 0  0.2023158100364996 0.1500536585536553 0  0.194974551899914 0.1502531923497262 0  0.1877417105387872 0.1515259415822739 0  0.1807733240461124 0.153844448527136 0  0.1742197252835808 0.15715869474974 0  0.1682222986673531 0.1613971801805478 0  0.162910430003803 0.1664684656256651 0  0.1583987151779087 0.1722631454351573 0  0.1547844879126891 0.178656207771761 0  0.1521457199348551 0.1855097315605723 0  0.1505393388476355 0.1926758619366523 0  0.1505393388476328 0.2073241380633295 0  0.1521457199348437 0.2144902684393899 0  0.1547844879126531 0.221343792228163 0  0.1583987151778488 0.2277368545647528 0  0.1629104300036858 0.2335315343742052 0  0.1682222986671726 0.2386028198193036 0  0.1742197252833576 0.2428413052501257 0  0.1807733240458683 0.2461555514727623 0  0.1877417105384929 0.2484740584176516 0  0.1949745518995776 0.2497468076502398 0  0.202315810036185 0.2499463414463592 0  0.2096071079201568 0.2490683551528932 0  0.2166911463435495 0.2471317900544655 0  0.2234150974215506 0.2441784247426195 0  0.2296339016331197 0.2402719738031125 0  0.2352133972703547 0.2354967132658811 0  0.2400332147833751 0.2299556624715287 0  0.2439893735792577 0.2237683615780412 0  0.246996525252926 0.2170682926548348 0  0.25645809709277 0.21 0  0.2639263993298655 0.21 0  0.271394701566961 0.21 0  0.2788630038040554 0.21 0  0.2863313060411479 0.21 0  0.2937996082782405 0.21 0  0.301267910515333 0.21 0  0.3087362127524279 0.21 0  0.3162045149895234 0.21 0  0.3236728172265972 0.21 0  0.3311411194636928 0.21 0  0.3386094217007701 0.21 0  0.3460777239378666 0.21 0  0.3535460261749672 0.21 0  0.3610143284120516 0.21 0  0.3684826306491596 0.21 0  0.3759509328862226 0.21 0  0.383419235123329 0.21 0  0.3908875373604028 0.21 0  0.3983558395975142 0.21 0  0.4058241418345938 0.21 0  0.4132924440716992 0.21 0  0.4207607463087888 0.21 0  0.4282290485459029 0.21 0  0.4356973507830418 0.21 0  0.4431656530201649 0.21 0  0.4506339552573136 0.21 0  0.4581022574944306 0.21 0  0.4655705597315852 0.21 0  0.4730388619686996 0.21 0  0.480507164205851 0.21 0  0.4879754664429498 0.21 0  0.4954437686800938 0.21 0  0.502912070917267 0.21 0  0.5103803731544119 0.21 0  0.5178486753915261 0.21 0  0.5253169776286404 0.21 0  0.5327852798657868 0.21 0  0.5402535821029386 0.21 0  0.54772188434007 0.21 0  0.5551901865771842 0.21 0  0.5626584888143201 0.21 0  0.5701267910514778 0.21 0  0.5775950932886138 0.21 0  0.5850633955257281 0.21 0  0.5925316977628483 0.21 0  0.6 0.2050000000000054 0  0.6 0.1950000000000217 0  0.5925316977628897 0.19 0  0.5850633955257988 0.19 0  0.5775950932887378 0.19 0  0.5701267910515998 0.19 0  0.5626584888145268 0.19 0  0.5551901865773963 0.19 0  0.547721884340339 0.19 0  0.5402535821032429 0.19 0  0.5327852798661811 0.19 0  0.5253169776290537 0.19 0  0.5178486753919799 0.19 0  0.5103803731549078 0.19 0  0.502912070917822 0.19 0  0.4954437686807294 0.19 0  0.4879754664436223 0.19 0  0.4805071642065402 0.19 0  0.4730388619694271 0.19 0  0.4655705597323621 0.19 0  0.4581022574952563 0.19 0  0.4506339552581777 0.19 0  0.4431656530210671 0.19 0  0.4356973507839815 0.19 0  0.4282290485468779 0.19 0  0.4207607463097617 0.19 0  0.4132924440726327 0.19 0  0.4058241418354857 0.19 0  0.3983558395983636 0.19 0  0.3908875373612097 0.19 0  0.3834192351240934 0.19 0  0.3759509328869369 0.19 0  0.3684826306498175 0.19 0  0.361014328412667 0.19 0  0.3535460261755617 0.19 0  0.3460777239384295 0.19 0  0.3386094217012945 0.19 0  0.3311411194641595 0.19 0  0.3236728172270245 0.19 0  0.3162045149898895 0.19 0  0.3087362127527544 0.19 0  0.3012679105156187 0.19 0  0.2937996082784807 0.19 0  0.2863313060413428 0.19 0  0.2788630038042048 0.19 0  0.2713947015670686 0.19 0  0.2639263993299336 0.19 0  0.2564580970927985 0.19 0  0.2607803159922026 0.2000727136295815 0  0.5887803774232762 0.2001272386983733 0  0.5745072403740523 0.2002044435018727 0  0.5511891430099709 0.2001122610077113 0  0.2751288526855082 0.20000000000002 0  0.5365194309847112 0.1999999999999436 0  0.2894621222999649 0.1998691686390484 0  0.5215828265105155 0.1999999999999228 0  0.3127789816668748 0.1998657885438805 0  0.3274069683451451 0.2000000000000796 0  0.5066462220363641 0.199999999999908 0  0.3650630746574081 0.199866017807523 0  0.476773013087985 0.1999999999998713 0  0.3417402379596385 0.1998691686391011 0  0.3796850840047755 0.200000000000134 0  0.4618364086138087 0.1999999999998546 0  0.4917096175621762 0.1999999999998808 0  0.3946216884789568 0.2000000000001512 0  0.446899804139621 0.1999999999998389 0  0.4089549580935208 0.1998691686391595 0  0.4322718174608562 0.200127451265745 0  0.4201487168029707 0.1999966199048527 0  0.3528922713220932 0.2000185703532356 0  0.5633122436674589 0.1999814296467508 0  0.3006558810093873 0.1999966199048318 0  0.5815926498168407 0.1966545283159175 0  0.2677053789419034 0.1964246479135325 0  0.5290511287476175 0.1970915826863981 0  0.5439877332217911 0.197091582686394 0  0.2825131256993216 0.2035478995978015 0  0.3199386661080599 0.202908417313604 0  0.4842413153250809 0.1970915826863873 0  0.5141145242734466 0.1970915826863843 0  0.3722167817676917 0.2029084173136195 0  0.4693047108508938 0.1970915826863783 0  0.3348752705822316 0.202908417313609 0  0.3871533862418661 0.2029084173136212 0  0.4543681063767183 0.1970915826863795 0  0.4991779197992749 0.1970915826863902 0  0.4020059614928624 0.203547899597858 0  0.4394315019025246 0.1970915826863714 0  0.2550657455369551 0.2034088125358657 0  0.2548908499171161 0.1966940311614271 0  0.5946539510196798 0.2024302972968126 0  0.267698176732111 0.2039977513680092 0  0.4261685417851465 0.196409292431739 0  0.3590076176283495 0.196411355804271 0  0.5571672426447437 0.2036011176410121 0  0.3066757059912147 0.1964092924317024 0  0.594380730180568 0.1966558399668133 0  0.4842413153245942 0.2040749161535287 0  0.4693047108503577 0.2040749161535231 0  0.3871533862424271 0.1959250838464788 0  0.372246743208829 0.1959123236376545 0  0.5141145242731028 0.2040749161535395 0  0.4543681063761134 0.2040749161535186 0  0.4019979587101454 0.1959834479682427 0  0.4394608940728603 0.2040870543693135 0  0.5439623148931173 0.2040856076781014 0  0.5290511287473298 0.2040749161535501 0  0.4991779197988497 0.2040749161535382 0  0.3347912413592433 0.1959225448935183 0  0.3199680582793816 0.1959123018030061 0  0.2825051229162361 0.1959834479681729 0  0.3590471196690275 0.2036304442587945 0  0.5571594006495384 0.1963685282145804 0  0.3067669986803285 0.203627750582736 0  0.4262598344738712 0.2036568242185335 0  0.5814408164431408 0.2041285596160068 0  0.5688286748170428 0.1961819304477386 0  0.4145905603063645 0.2038180695522843 0  0.3473758401724931 0.2038180695522752 0  0.2950977245128307 0.2038180695522663 0  0.5688286748170693 0.203818069552238 0  0.2950977245127906 0.1961819304477774 0  0.3473758401723931 0.1961819304478349 0  0.4145905603061963 0.1961819304479011 0  0.2601812407614425 0.2056861609747042
[...]
<PointData  Vectors="f_40-1"> 
<DataArray  type="Float64"  Name="f_40-1"  NumberOfComponents="3" format="ascii">0.0000000000000000e+00 0.0000000000000000e+00 0.0000000000000000e+00  0.0000000000000000e+00 0.0000000000000000e+00 0.0000000000000000e+00  0.0000000000000000e+00 0.0000000000000000e+00 0.0000000000000000e+00  0.0000000000000000e+00 0.0000000000000000e+00 0.0000000000000000e+00  -1.0444965955790746e-05 -6.0396533775757680e-05 0.0000000000000000e+00  -5.4539767937706600e-06 -6.2662153470219420e-05 0.0000000000000000e+00  0.0000000000000000e+00 0.0000000000000000e+00 0.0000000000000000e+00  0.0000000000000000e+00 0.0000000000000000e+00 0.0000000000000000e+00  0.0000000000000000e+00 0.0000000000000000e+00 0.0000000000000000e+00  0.0000000000000000e+00 0.0000000000000000e+00 0.0000000000000000e+00  -8.1109075165436997e-06 -6.1530181292803471e-05 0.0000000000000000e+00  0.0000000000000000e+00 0.0000000000000000e+00 0.0000000000000000e+00  0.0000000000000000e+00 0.0000000000000000e+00 0.0000000000000000e+00  0.0000000000000000e+00 0.0000000000000000e+00 0.0000000000000000e+00  0.0000000000000000e+00 0.0000000000000000e+00 0.0000000000000000e+00  0.0000000000000000e+00 0.0000000000000000e+00 0.0000000000000000e+00  0.0000000000000000e+00 0.0000000000000000e+00 0.0000000000000000e+00  0.0000000000000000e+00 0.0000000000000000e+00 0.0000000000000000e+00  0.0000000000000000e+00 0.0000000000000000e+00 0.0000000000000000e+00  0.0000000000000000e+00 0.0000000000000000e+00 0.0000000000000000e+00  0.0000000000000000e+00 0.0000000000000000e+00 0.0000000000000000e+00  0.0000000000000000e+00 0.0000000000000000e+00 0.0000000000000000e+00  0.0000000000000000e+00 0.0000000000000000e+00 0.0000000000000000e+00  0.0000000000000000e+00 0.0000000000000000e+00 0.0000000000000000e+00  0.0000000000000000e+00 0.0000000000000000e+00 0.0000000000000000e+00  0.0000000000000000e+00 0.0000000000000000e+00 0.0000000000000000e+00  0.0000000000000000e+00 0.0000000000000000e+00 0.0000000000000000e+00  0.0000000000000000e+00 0.0000000000000000e+00 0.0000000000000000e+00  0.0000000000000000e+00 0.0000000000000000e+00 0.0000000000000000e+00  0.0000000000000000e+00 0.0000000000000000e+00 0.0000000000000000e+00  0.0000000000000000e+00 0.0000000000000000e+00 0.0000000000000000e+00  0.0000000000000000e+00 0.0000000000000000e+00 0.0000000000000000e+00  0.0000000000000000e+00 0.0000000000000000e+00 0.0000000000000000e+00  0.0000000000000000e+00 0.0000000000000000e+00 0.0000000000000000e+00  0.0000000000000000e+00 0.0000000000000000e+00 0.0000000000000000e+00  0.0000000000000000e+00 0.0000000000000000e+00 0.0000000000000000e+00  0.0000000000000000e+00 0.0000000000000000e+00 0.0000000000000000e+00  0.0000000000000000e+00 0.0000000000000000e+00 0.0000000000000000e+00  0.0000000000000000e+00 0.0000000000000000e+00 0.0000000000000000e+00  0.0000000000000000e+00 0.0000000000000000e+00 0.0000000000000000e+00  0.0000000000000000e+00 0.0000000000000000e+00 0.0000000000000000e+00  0.0000000000000000e+00 0.0000000000000000e+00 0.0000000000000000e+00  0.0000000000000000e+00 0.0000000000000000e+00 0.0000000000000000e+00  0.0000000000000000e+00 0.0000000000000000e+00 0.0000000000000000e+00  0.0000000000000000e+00 0.0000000000000000e+00 0.0000000000000000e+00  0.0000000000000000e+00 0.0000000000000000e+00 0.0000000000000000e+00  0.0000000000000000e+00 0.0000000000000000e+00 0.0000000000000000e+00  0.0000000000000000e+00 0.0000000000000000e+00 0.0000000000000000e+00  0.0000000000000000e+00 0.0000000000000000e+00 0.0000000000000000e+00  0.0000000000000000e+00 0.0000000000000000e+00 0.0000000000000000e+00  0.0000000000000000e+00 0.0000000000000000e+00 0.0000000000000000e+00  0.0000000000000000e+00 0.0000000000000000e+00 0.0000000000000000e+00  0.0000000000000000e+00 0.0000000000000000e+00 0.0000000000000000e+00  0.0000000000000000e+00 0.0000000000000000e+00 0.0000000000000000e+00  0.0000000000000000e+00 0.0000000000000000e+00 0.0000000000000000e+00  0.0000000000000000e+00 0.0000000000000000e+00 0.0000000000000000e+00  0.0000000000000000e+00 0.0000000000000000e+00 0.0000000000000000e+00  0.0000000000000000e+00 0.0000000000000000e+00 0.0000000000000000e+00  0.0000000000000000e+00 0.0000000000000000e+00 0.0000000000000000e+00  0.0000000000000000e+00 0.0000000000000000e+00 0.0000000000000000e+00  0.0000000000000000e+00 0.0000000000000000e+00 0.0000000000000000e+00  0.0000000000000000e+00 0.0000000000000000e+00 0.0000000000000000e+00  0.0000000000000000e+00 0.0000000000000000e+00 0.0000000000000000e+00  0.0000000000000000e+00 0.0000000000000000e+00 0.0000000000000000e+00  0.0000000000000000e+00 0.0000000000000000e+00 0.0000000000000000e+00  0.0000000000000000e+00 0.0000000000000000e+00 0.0000000000000000e+00  0.0000000000000000e+00 0.0000000000000000e+00 0.0000000000000000e+00  0.0000000000000000e+00 0.0000000000000000e+00 0.0000000000000000e+00  0.0000000000000000e+00 0.0000000000000000e+00 0.0000000000000000e+00  0.0000000000000000e+00 0.0000000000000000e+00 0.0000000000000000e+00  0.0000000000000000e+00 0.0000000000000000e+00 0.0000000000000000e+00  0.0000000000000000e+00 0.0000000000000000e+00 0.0000000000000000e+00  0.0000000000000000e+00 0.0000000000000000e+00 0.0000000000000000e+00  0.0000000000000000e+00 0.0000000000000000e+00 0.0000000000000000e+00  0.0000000000000000e+00 0.0000000000000000e+00 0.0000000000000000e+00  0.0000000000000000e+00 0.0000000000000000e+00 0.0000000000000000e+00  0.0000000000000000e+00 0.0000000000000000e+00 0.0000000000000000e+00  0.0000000000000000e+00 0.0000000000000000e+00 0.0000000000000000e+00  0.0000000000000000e+00 0.0000000000000000e+00 0.0000000000000000e+00  0.0000000000000000e+00 0.0000000000000000e+00 0.0000000000000000e+00  0.0000000000000000e+00 0.0000000000000000e+00 0.0000000000000000e+00  0.0000000000000000e+00 0.0000000000000000e+00 0.0000000000000000e+00  0.0000000000000000e+00 0.0000000000000000e+00 0.0000000000000000e+00  0.0000000000000000e+00 0.0000000000000000e+00 0.0000000000000000e+00  0.0000000000000000e+00 0.0000000000000000e+00 0.0000000000000000e+00  0.0000000000000000e+00 0.0000000000000000e+00 0.0000000000000000e+00  0.0000000000000000e+00 0.0000000000000000e+00 0.0000000000000000e+00  0.0000000000000000e+00 0.0000000000000000e+00 0.0000000000000000e+00  0.0000000000000000e+00 0.0000000000000000e+00 0.0000000000000000e+00  0.0000000000000000e+00 0.0000000000000000e+00 0.0000000000000000e+00  0.0000000000000000e+00 0.0000000000000000e+00 0.0000000000000000e+00  0.0000000000000000e+00 0.0000000000000000e+00 0.0000000000000000e+00  0.0000000000000000e+00 0.0000000000000000e+00 0.0000000000000000e+00  0.0000000000000000e+00 0.0000000000000000e+00 0.0000000000000000e+00  0.0000000000000000e+00 0.0000000000000000e+00 0.0000000000000000e+00  0.0000000000000000e+00 0.0000000000000000e+00 0.0000000000000000e+00  0.0000000000000000e+00 0.0000000000000000e+00 0.0000000000000000e+00  0.0000000000000000e+00 0.0000000000000000e+00 0.0000000000000000e+00  0.0000000000000000e+00 0.0000000000000000e+00 0.0000000000000000e+00  0.0000000000000000e+00 0.0000000000000000e+00 0.0000000000000000e+00  0.0000000000000000e+00 0.0000000000000000e+00 0.0000000000000000e+00  0.0000000000000000e+00 0.0000000000000000e+00 0.0000000000000000e+00  0.0000000000000000e+00 0.0000000000000000e+00 0.0000000000000000e+00  0.0000000000000000e+00 0.0000000000000000e+00 0.0000000000000000e+00  0.0000000000000000e+00 0.0000000000000000e+00 0.0000000000000000e+00  0.0000000000000000e+00 0.0000000000000000e+00 0.0000000000000000e+00  0.0000000000000000e+00 0.0000000000000000e+00 0.0000000000000000e+00  0.0000000000000000e+00 0.0000000000000000e+00 0.0000000000000000e+00  0.0000000000000000e+00 0.0000000000000000e+00 0.0000000000000000e+00  0.0000000000000000e+00 0.0000000000000000e+00 0.0000000000000000e+00  0.0000000000000000e+00 0.0000000000000000e+00 0.0000000000000000e+00  0.0000000000000000e+00 0.0000000000000000e+00 0.0000000000000000e+00  0.0000000000000000e+00 0.0000000000000000e+00 0.0000000000000000e+00  0.0000000000000000e+00 0.0000000000000000e+00 0.0000000000000000e+00  0.0000000000000000e+00 0.0000000000000000e+00 0.0000000000000000e+00  0.0000000000000000e+00 0.0000000000000000e+00 0.0000000000000000e+00  0.0000000000000000e+00 0.0000000000000000e+00 0.0000000000000000e+00  0.0000000000000000e+00 0.0000000000000000e+00 0.0000000000000000e+00  0.0000000000000000e+00 0.0000000000000000e+00 0.0000000000000000e+00  0.0000000000000000e+00 0.0000000000000000e+00 0.0000000000000000e+00  0.0000000000000000e+00 0.0000000000000000e+00 0.0000000000000000e+00  0.0000000000000000e+00 0.0000000000000000e+00 0.0000000000000000e+00  0.0000000000000000e+00 0.0000000000000000e+00 0.0000000000000000e+00  0.0000000000000000e+00 0.0000000000000000e+00 0.0000000000000000e+00  0.0000000000000000e+00 0.0000000000000000e+00 0.0000000000000000e+00  0.0000000000000000e+00 0.0000000000000000e+00 0.0000000000000000e+00  0.0000000000000000e+00 0.0000000000000000e+00 0.0000000000000000e+00  0.0000000000000000e+00 0.0000000000000000e+00 0.0000000000000000e+00  0.0000000000000000e+00 0.0000000000000000e+00 0.0000000000000000e+00  0.0000000000000000e+00 0.0000000000000000e+00 0.0000000000000000e+00  0.0000000000000000e+00 0.0000000000000000e+00 0.0000000000000000e+00  0.0000000000000000e+00 0.0000000000000000e+00 0.0000000000000000e+00  0.0000000000000000e+00 0.0000000000000000e+00 0.0000000000000000e+00  0.0000000000000000e+00 0.0000000000000000e+00 0.0000000000000000e+00  0.0000000000000000e+00 0.0000000000000000e+00 0.0000000000000000e+00  0.0000000000000000e+00 0.0000000000000000e+00 0.0000000000000000e+00  0.0000000000000000e+00 0.0000000000000000e+00 0.0000000000000000e+00  0.0000000000000000e+00 0.0000000000000000e+00 0.0000000000000000e+00  0.0000000000000000e+00 0.0000000000000000e+00 0.0000000000000000e+00  0.0000000000000000e+00 0.0000000000000000e+00 0.0000000000000000e+00  0.0000000000000000e+00 0.0000000000000000e+00 0.0000000000000000e+00  0.0000000000000000e+00 0.0000000000000000e+00 0.0000000000000000e+00  0.0000000000000000e+00 0.0000000000000000e+00 0.0000000000000000e+00  1.0517049126180141e-07 -2.0459499284552658e-06 0.0000000000000000e+00  2.8682481963302174e-07 -2.3215829996959153e-06 0.0000000000000000e+00  5.5628243767199020e-07 -2.5716026681096518e-06 0.0000000000000000e+00  8.8115777206659347e-07 -2.8502174826680205e-06 0.0000000000000000e+00  1.1960075059944447e-06 -3.2062330230603718e-06 0.0000000000000000e+00  1.5080354516032666e-06 -3.6678714508699190e-06 0.0000000000000000e+00  1.7839604566139620e-06 -4.1929966809417449e-06 0.0000000000000000e+00  2.0361360844584959e-06 -4.8070203185257297e-06 0.0000000000000000e+00  2.2908730373011535e-06 -5.4903762873525648e-06 0.0000000000000000e+00  2.4971592281670602e-06 -6.2401129552261496e-06 0.0000000000000000e+00  2.7063439541033128e-06 -7.0703580038729144e-06 0.0000000000000000e+00  2.8687735848515128e-06 -7.9572172056571403e-06 0.0000000000000000e+00  3.0254608952655993e-06 -8.9138655679612075e-06 0.0000000000000000e+00  3.1467029978121230e-06 -9.9252871486948949e-06 0.0000000000000000e+00  3.2423334683501386e-06 -1.0999266637763747e-05 0.0000000000000000e+00  3.3343068475445723e-06 -1.2129579456094554e-05 0.0000000000000000e+00  3.3825191748551726e-06 -1.3302126966461781e-05 0.0000000000000000e+00  3.4248273587998796e-06 -1.4539752162607967e-05 0.0000000000000000e+00  3.4267058187760849e-06 -1.5809924289956882e-05 0.0000000000000000e+00  3.4213826442416548e-06 -1.7138083447133126e-05 0.0000000000000000e+00  3.3806442660327456e-06 -1.8496351077199898e-05 0.0000000000000000e+00  3.3233993736208027e-06 -1.9904389805798477e-05 0.0000000000000000e+00  3.2392907302075079e-06 -2.1345187773671232e-05 0.0000000000000000e+00  3.1297515429843055e-06 -2.2823064407261041e-05 0.0000000000000000e+00  3.0104007860141007e-06 -2.4337247869866709e-05 0.0000000000000000e+00  2.8588084935454357e-06 -2.5874103870386267e-05 0.0000000000000000e+00  2.6856929986287604e-06 -2.7456804581962923e-05 0.0000000000000000e+00  2.4886909978374927e-06 -2.9051705258312068e-05 0.0000000000000000e+00  2.2699817937850545e-06 -3.0686524393116960e-05 0.0000000000000000e+00  2.0274859742939808e-06 -3.2333363192009728e-05 0.0000000000000000e+00  1.7642529576330126e-06 -3.4014297549406504e-05 0.0000000000000000e+00  1.4757551676209300e-06 -3.5703383288923712e-05 0.0000000000000000e+00  1.1682444591594960e-06 -3.7424415508523414e-05 0.0000000000000000e+00  8.3483689805208326e-07 -3.9147268899793562e-05 0.0000000000000000e+00  4.7875192485963464e-07 -4.0901644941163050e-05 0.0000000000000000e+00  1.0005402243959911e-07 -4.2655931767052428e-05 0.0000000000000000e+00  -2.9979706388005480e-07 -4.4435493227943179e-05 0.0000000000000000e+00  -7.2302956371409418e-07 -4.6213199904107400e-05 0.0000000000000000e+00  -1.1686509622237384e-06 -4.8012725274356401e-05 0.0000000000000000e+00  -1.6389263958103836e-06 -4.9808618108085638e-05 0.0000000000000000e+00  -2.1331083267132541e-06 -5.1619256889034372e-05 0.0000000000000000e+00  -2.6471667190618727e-06 -5.3429811161778886e-05 0.0000000000000000e+00  -3.1877898606061493e-06 -5.5248747928019306e-05 0.0000000000000000e+00  -3.7413779875772832e-06 -5.7068567203798256e-05 0.0000000000000000e+00  -4.3212783971834554e-06 -5.8884037396034254e-05 0.0000000000000000e+00  -4.9063703674528610e-06 -6.0723323954617724e-05 0.0000000000000000e+00  -6.8387257626344577e-06 -6.2091497529393117e-05 0.0000000000000000e+00  -9.3242965036243170e-06 -6.0969298484381721e-05 0.0000000000000000e+00  -9.8840158965574440e-06 -5.8616856555264755e-05 0.0000000000000000e+00  -9.2885308453909498e-06 -5.6737199734606928e-05 0.0000000000000000e+00  -8.6977928599071685e-06 -5.4847115085676596e-05 0.0000000000000000e+00  -8.1306197389208620e-06 -5.2968921973271124e-05 0.0000000000000000e+00  -7.5770482116816660e-06 -5.1095199292192542e-05 0.0000000000000000e+00  -7.0493984197604705e-06 -4.9227770855911378e-05 0.0000000000000000e+00  -6.5359129804418018e-06 -4.7368019413614702e-05 0.0000000000000000e+00  -6.0474147763780801e-06 -4.5510187764618723e-05 0.0000000000000000e+00  -5.5748085584499942e-06 -4.3670571109969090e-05 0.0000000000000000e+00  -5.1251397460804836e-06 -4.1829438887162570e-05 0.0000000000000000e+00  -4.6906538389921224e-06 -4.0010108951101929e-05 0.0000000000000000e+00  -4.2795339950372026e-06 -3.8192667741461269e-05 0.0000000000000000e+00  -3.8820448759526517e-06 -3.6400209803759337e-05 0.0000000000000000e+00  -3.5081414822285649e-06 -3.4612736100490071e-05 0.0000000000000000e+00  -3.1465066150928753e-06 -3.2853591843052742e-05 0.0000000000000000e+00  -2.8094229983487683e-06 -3.1102669758671559e-05 0.0000000000000000e+00  -2.4832340004100477e-06 -2.9382455250266166e-05 0.0000000000000000e+00  -2.1831050039722333e-06 -2.7673858890245557e-05 0.0000000000000000e+00  -1.8924712919973375e-06 -2.6000830836948443e-05 0.0000000000000000e+00  -1.6282455051672966e-06 -2.4343581666723018e-05 0.0000000000000000e+00  -1.3715346638904336e-06 -2.2725200786037905e-05 0.0000000000000000e+00  -1.1427259491488420e-06 -2.1126925428655363e-05 0.0000000000000000e+00  -9.2367751329142560e-07 -1.9567122493844997e-05 0.0000000000000000e+00  -7.2680315064859787e-07 -1.8036930341556497e-05 0.0000000000000000e+00  -5.5213901646290461e-07 -1.6547838959887736e-05 0.0000000000000000e+00  -3.7933708739640832e-07 -1.5093102810357305e-05 0.0000000000000000e+00  -2.3423795603924598e-07 -1.3675210534025154e-05 0.0000000000000000e+00  -1.0053911166557834e-07 -1.2310883587143753e-05 0.0000000000000000e+00  1.0977971686634014e-08 -1.0978510035752484e-05 0.0000000000000000e+00  1.1005743146818225e-07 -9.7065620142822178e-06 0.0000000000000000e+00  1.8752743346973119e-07 -8.4700327114251707e-06 0.0000000000000000e+00  2.5635191971610697e-07 -7.3020838152129223e-06 0.0000000000000000e+00  3.0134088774212168e-07 -6.1748586008225381e-06 0.0000000000000000e+00  3.2592879543355914e-07 -5.1189070395890005e-06 0.0000000000000000e+00  3.5366401571437643e-07 -4.1107666100624461e-06 0.0000000000000000e+00  3.5290658383246615e-07 -3.1707927275053439e-06 0.0000000000000000e+00  3.4279650945998374e-07 -2.3047793699049606e-06 0.0000000000000000e+00  3.1026644175087834e-07 -1.4983209180425606e-06 0.0000000000000000e+00  2.7381136153079870e-07 -7.7744013513155361e-07 0.0000000000000000e+00  2.0993738868475151e-07 -1.1823308565487157e-07 0.0000000000000000e+00  1.2650312305124491e-07 4.5002572000803220e-07 0.0000000000000000e+00  5.3738665294862133e-08 9.4980000119970263e-07 0.0000000000000000e+00  -5.0853873829562717e-08 1.3764603788094795e-06 0.0000000000000000e+00  -1.2626204734418597e-07 1.7088648062057323e-06 0.0000000000000000e+00  -1.7781957864559117e-07 1.8901093007819319e-06 0.0000000000000000e+00  -1.1751724451671801e-07 1.8651501055983069e-06 0.0000000000000000e+00  -3.4763864280671106e-07 -1.0083553107075904e-07 0.0000000000000000e+00  -7.1222774968612513e-06 -5.8746061310042502e-05 0.0000000000000000e+00  -5.9504218560888329e-06 -5.5211913656202138e-05 0.0000000000000000e+00  -4.3064731106725664e-06 -4.9448486109626942e-05 0.0000000000000000e+00  2.9516589248568551e-07 -5.1763308441541161e-07 0.0000000000000000e+00  -3.3951708468837188e-06 -4.5844354322981989e-05 0.0000000000000000e+00  6.9182755353994707e-07 -1.2365356025915271e-06 0.0000000000000000e+00  -2.5200400299682174e-06 -4.2223421797766906e-05 0.0000000000000000e+00  1.2094153875238319e-06 -3.0875433459681655e-06 0.0000000000000000e+00  1.4600972345699697e-06 -4.6440658098206259e-06 0.0000000000000000e+00  -1.7281544661737318e-06 -3.8649263762984695e-05 0.0000000000000000e+00  1.7228574055610403e-06 -9.7064742546422138e-06 0.0000000000000000e+00  -3.9129616119324126e-07 -3.1691279180555517e-05 0.0000000000000000e+00  1.6109005670667968e-06 -6.3701518301192779e-06 0.0000000000000000e+00  1.7167023351866148e-06 -1.2094089186994100e-05 0.0000000000000000e+00  1.5490363759283079e-07 -2.8333882369865384e-05 0.0000000000000000e+00  -1.0187200823833769e-06 -3.5134078939000416e-05 0.0000000000000000e+00  1.6136478971553481e-06 -1.4698798223989127e-05 0.0000000000000000e+00  6.1991444213947611e-07 -2.5077691061506068e-05 0.0000000000000000e+00  1.4165603345817209e-06 -1.7340499562978119e-05 0.0000000000000000e+00  1.0257011963501254e-06 -2.2021536922354730e-05 0.0000000000000000e+00  1.2456277395571123e-06 -1.9551290586449776e-05 0.0000000000000000e+00  1.7022035652914915e-06 -7.9324578616602861e-06 0.0000000000000000e+00  -5.1869075034547576e-06 -5.2419285596597174e-05 0.0000000000000000e+00  9.6386436995164090e-07 -2.0695843474105739e-06 0.0000000000000000e+00  -7.3887943127282035e-06 -5.6585906636127950e-05 0.0000000000000000e+00  -8.4380838295064021e-08 5.3449807423542130e-07 0.0000000000000000e+00  -3.6506995513740694e-06 -4.3655497133334608e-05 0.0000000000000000e+00  -4.5744622204960536e-06 -4.7309948746731348e-05 0.0000000000000000e+00  6.9249530402010014e-07 -1.6146837174804279e-06 0.0000000000000000e+00  1.6482696621378925e-06 -4.4113748612221378e-06 0.0000000000000000e+00  -1.3634174324242408e-06 -3.2985865469598931e-05 0.0000000000000000e+00  -2.8080459811487791e-06 -4.0041682930559297e-05 0.0000000000000000e+00  2.2063020253278831e-06 -1.1394410629666185e-05 0.0000000000000000e+00  -7.5965814646900067e-07 -2.9569400646172221e-05 0.0000000000000000e+00  1.9077072968636354e-06 -6.0959281280894009e-06 0.0000000000000000e+00  2.1788215581107448e-06 -1.3891499128512289e-05 0.0000000000000000e+00  -2.3458880237326008e-07 -2.6246353232360434e-05 0.0000000000000000e+00  -2.0460195484619664e-06 -3.6480672739730442e-05 0.0000000000000000e+00  2.1900740849918709e-06 -1.6666763007195213e-05 0.0000000000000000e+00  2.1276746863700744e-07 -2.3032485612052763e-05 0.0000000000000000e+00  -3.7977267323615435e-07 -4.8968936166456246e-07 0.0000000000000000e+00  -4.0972096006722777e-07 4.1016135174738216e-07 0.0000000000000000e+00  -7.0484400997388838e-06 -6.0452361630773046e-05 0.0000000000000000e+00  1.43289663049032