<?xml version="1.0"?>
<VTKFile type="UnstructuredGrid"  version="0.1"  >
<UnstructuredGrid>
<Piece  NumberOfPoints="1419" NumberOfCells="2698">
<Points>
<DataArray  type="Float64"  NumberOfComponents="3"  format="ascii">0 0 0  0 0.41 0  2.5 0 0  2.5 0.41 0  0.6 0.19 0  0.6 0.21 0  0.25 0.2 0  0.15 0.2 0  0.2489897948556636 0.21 0  0.2489897948556636 0.19 0  0.6 0.2 0  0 0.3807142857143437 0  0 0.3514285714286952 0  0 0.3221428571430699 0  0 0.29285714285744 0  0 0.2635714285718054 0  0 0.2342857142861561 0  0 0.2050000000005308 0  0 0.175714285714732 0  0 0.1464285714289574 0  0 0.1171428571431897 0  0 0.08785714285737878 0  0 0.05857142857161107 0  0 0.02928571428580012 0  0.03015443760436003 0 0  0.06140001986583606 0 0  0.09377624077125973 0 0  0.1273239957535082 0 0  0.1620856860351972 0 0  0.1981052433264291 0 0  0.235428184091502 0 0  0.2741016576309132 0 0  0.3141745521465447 0 0  0.3556974926295285 0 0  0.3987229542472677 0 0  0.4433053055141081 0 0  0.4895008759286886 0 0  0.5373680609405097 0 0  0.5869673343216626 0 0  0.6383613676634521 0 0  0.6916151138468254 0 0  0.7467958595648856 0 0  0.8039733463919316 0 0  0.8632198139502143 0 0  0.9246101326867038 0 0  0.9882218810934433 0 0  1.054135445558498 0 0  1.122434100542598 0 0  1.193204177141305 0 0  1.266535089879536 0 0  1.342519516046404 0 0  1.421253448503939 0 0  1.502836389106271 0 0  1.587371439758838 0 0  1.674965418777374 0 0  1.765729001825544 0 0  1.859776908880082 0 0  1.957227977487062 0 0  2.058205329869943 0 0  2.162836591189951 0 0  2.271253957290865 0 0  2.383594446803425 0 0  2.5 0.1024999999997612 0  2.5 0.2049999999994743 0  2.5 0.3074999999997183 0  2.383594446803656 0.41 0  2.271253957291315 0.41 0  2.162836591190598 0.41 0  2.058205329870775 0.41 0  1.957227977488067 0.41 0  1.859776908881246 0.41 0  1.765729001826854 0.41 0  1.674965418778818 0.41 0  1.58737143976041 0.41 0  1.502836389107956 0.41 0  1.421253448505726 0.41 0  1.342519516048286 0.41 0  1.266535089881505 0.41 0  1.193204177143353 0.41 0  1.122434100544716 0.41 0  1.05413544556068 0.41 0  0.9882218810956305 0.41 0  0.9246101326886647 0.41 0  0.8632198139519631 0.41 0  0.8039733463934788 0.41 0  0.7467958595662458 0.41 0  0.6916151138480078 0.41 0  0.6383613676644679 0.41 0  0.5869673343225223 0.41 0  0.5373680609412221 0.41 0  0.4895008759292634 0.41 0  0.4433053055145528 0.41 0  0.3987229542475914 0.41 0  0.3556974926297398 0.41 0  0.3141745521466497 0.41 0  0.2741016576310038 0.41 0  0.2354281840915826 0.41 0  0.1981052433265003 0.41 0  0.1620856860352591 0.41 0  0.1273239957535623 0.41 0  0.09377624077128965 0.41 0  0.06140001986584975 0.41 0  0.03015443760436654 0.41 0  0.2497468076502589 0.2050254481002335 0  0.2497468076502614 0.1949745518997913 0  0.2469965252529372 0.1829317073451959 0  0.2439893735792749 0.1762316384219906 0  0.2400332147834255 0.1700443375285386 0  0.2352133972704371 0.1645032867342007 0  0.2296339016332438 0.1597280261969788 0  0.2234150974217223 0.1558215752574715 0  0.2166911463437691 0.1528682099456123 0  0.2096071079204251 0.1509316448471593 0  0.2023158100364996 0.1500536585536553 0  0.194974551899914 0.1502531923497262 0  0.1877417105387872 0.1515259415822739 0  0.1807733240461124 0.153844448527136 0  0.1742197252835808 0.15715869474974 0  0.1682222986673531 0.1613971801805478 0  0.162910430003803 0.1664684656256651 0  0.1583987151779087 0.1722631454351573 0  0.1547844879126891 0.178656207771761 0  0.1521457199348551 0.1855097315605723 0  0.1505393388476355 0.1926758619366523 0  0.1505393388476328 0.2073241380633295 0  0.1521457199348437 0.2144902684393899 0  0.1547844879126531 0.221343792228163 0  0.1583987151778488 0.2277368545647528 0  0.1629104300036858 0.2335315343742052 0  0.1682222986671726 0.2386028198193036 0  0.1742197252833576 0.2428413052501257 0  0.1807733240458683 0.2461555514727623 0  0.1877417105384929 0.2484740584176516 0  0.1949745518995776 0.2497468076502398 0  0.202315810036185 0.2499463414463592 0  0.2096071079201568 0.2490683551528932 0  0.2166911463435495 0.2471317900544655 0  0.2234150974215506 0.2441784247426195 0  0.2296339016331197 0.2402719738031125 0  0.2352133972703547 0.2354967132658811 0  0.2400332147833751 0.2299556624715287 0  0.2439893735792577 0.2237683615780412 0  0.246996525252926 0.2170682926548348 0  0.25645809709277 0.21 0  0.2639263993298655 0.21 0  0.271394701566961 0.21 0  0.2788630038040554 0.21 0  0.2863313060411479 0.21 0  0.2937996082782405 0.21 0  0.301267910515333 0.21 0  0.3087362127524279 0.21 0  0.3162045149895234 0.21 0  0.3236728172265972 0.21 0  0.3311411194636928 0.21 0  0.3386094217007701 0.21 0  0.3460777239378666 0.21 0  0.3535460261749672 0.21 0  0.3610143284120516 0.21 0  0.3684826306491596 0.21 0  0.3759509328862226 0.21 0  0.383419235123329 0.21 0  0.3908875373604028 0.21 0  0.3983558395975142 0.21 0  0.4058241418345938 0.21 0  0.4132924440716992 0.21 0  0.4207607463087888 0.21 0  0.4282290485459029 0.21 0  0.4356973507830418 0.21 0  0.4431656530201649 0.21 0  0.4506339552573136 0.21 0  0.4581022574944306 0.21 0  0.4655705597315852 0.21 0  0.4730388619686996 0.21 0  0.480507164205851 0.21 0  0.4879754664429498 0.21 0  0.4954437686800938 0.21 0  0.502912070917267 0.21 0  0.5103803731544119 0.21 0  0.5178486753915261 0.21 0  0.5253169776286404 0.21 0  0.5327852798657868 0.21 0  0.5402535821029386 0.21 0  0.54772188434007 0.21 0  0.5551901865771842 0.21 0  0.5626584888143201 0.21 0  0.5701267910514778 0.21 0  0.5775950932886138 0.21 0  0.5850633955257281 0.21 0  0.5925316977628483 0.21 0  0.6 0.2050000000000054 0  0.6 0.1950000000000217 0  0.5925316977628897 0.19 0  0.5850633955257988 0.19 0  0.5775950932887378 0.19 0  0.5701267910515998 0.19 0  0.5626584888145268 0.19 0  0.5551901865773963 0.19 0  0.547721884340339 0.19 0  0.5402535821032429 0.19 0  0.5327852798661811 0.19 0  0.5253169776290537 0.19 0  0.5178486753919799 0.19 0  0.5103803731549078 0.19 0  0.502912070917822 0.19 0  0.4954437686807294 0.19 0  0.4879754664436223 0.19 0  0.4805071642065402 0.19 0  0.4730388619694271 0.19 0  0.4655705597323621 0.19 0  0.4581022574952563 0.19 0  0.4506339552581777 0.19 0  0.4431656530210671 0.19 0  0.4356973507839815 0.19 0  0.4282290485468779 0.19 0  0.4207607463097617 0.19 0  0.4132924440726327 0.19 0  0.4058241418354857 0.19 0  0.3983558395983636 0.19 0  0.3908875373612097 0.19 0  0.3834192351240934 0.19 0  0.3759509328869369 0.19 0  0.3684826306498175 0.19 0  0.361014328412667 0.19 0  0.3535460261755617 0.19 0  0.3460777239384295 0.19 0  0.3386094217012945 0.19 0  0.3311411194641595 0.19 0  0.3236728172270245 0.19 0  0.3162045149898895 0.19 0  0.3087362127527544 0.19 0  0.3012679105156187 0.19 0  0.2937996082784807 0.19 0  0.2863313060413428 0.19 0  0.2788630038042048 0.19 0  0.2713947015670686 0.19 0  0.2639263993299336 0.19 0  0.2564580970927985 0.19 0  0.2607803159922026 0.2000727136295815 0  0.5887803774232762 0.2001272386983733 0  0.5745072403740523 0.2002044435018727 0  0.5511891430099709 0.2001122610077113 0  0.2751288526855082 0.20000000000002 0  0.5365194309847112 0.1999999999999436 0  0.2894621222999649 0.1998691686390484 0  0.5215828265105155 0.1999999999999228 0  0.3127789816668748 0.1998657885438805 0  0.3274069683451451 0.2000000000000796 0  0.5066462220363641 0.199999999999908 0  0.3650630746574081 0.199866017807523 0  0.476773013087985 0.1999999999998713 0  0.3417402379596385 0.1998691686391011 0  0.3796850840047755 0.200000000000134 0  0.4618364086138087 0.1999999999998546 0  0.4917096175621762 0.1999999999998808 0  0.3946216884789568 0.2000000000001512 0  0.446899804139621 0.1999999999998389 0  0.4089549580935208 0.1998691686391595 0  0.4322718174608562 0.200127451265745 0  0.4201487168029707 0.1999966199048527 0  0.3528922713220932 0.2000185703532356 0  0.5633122436674589 0.1999814296467508 0  0.3006558810093873 0.1999966199048318 0  0.5815926498168407 0.1966545283159175 0  0.2677053789419034 0.1964246479135325 0  0.5290511287476175 0.1970915826863981 0  0.5439877332217911 0.197091582686394 0  0.2825131256993216 0.2035478995978015 0  0.3199386661080599 0.202908417313604 0  0.4842413153250809 0.1970915826863873 0  0.5141145242734466 0.1970915826863843 0  0.3722167817676917 0.2029084173136195 0  0.4693047108508938 0.1970915826863783 0  0.3348752705822316 0.202908417313609 0  0.3871533862418661 0.2029084173136212 0  0.4543681063767183 0.1970915826863795 0  0.4991779197992749 0.1970915826863902 0  0.4020059614928624 0.203547899597858 0  0.4394315019025246 0.1970915826863714 0  0.2550657455369551 0.2034088125358657 0  0.2548908499171161 0.1966940311614271 0  0.5946539510196798 0.2024302972968126 0  0.267698176732111 0.2039977513680092 0  0.4261685417851465 0.196409292431739 0  0.3590076176283495 0.196411355804271 0  0.5571672426447437 0.2036011176410121 0  0.3066757059912147 0.1964092924317024 0  0.594380730180568 0.1966558399668133 0  0.4842413153245942 0.2040749161535287 0  0.4693047108503577 0.2040749161535231 0  0.3871533862424271 0.1959250838464788 0  0.372246743208829 0.1959123236376545 0  0.5141145242731028 0.2040749161535395 0  0.4543681063761134 0.2040749161535186 0  0.4019979587101454 0.1959834479682427 0  0.4394608940728603 0.2040870543693135 0  0.5439623148931173 0.2040856076781014 0  0.5290511287473298 0.2040749161535501 0  0.4991779197988497 0.2040749161535382 0  0.3347912413592433 0.1959225448935183 0  0.3199680582793816 0.1959123018030061 0  0.2825051229162361 0.1959834479681729 0  0.3590471196690275 0.2036304442587945 0  0.5571594006495384 0.1963685282145804 0  0.3067669986803285 0.203627750582736 0  0.4262598344738712 0.2036568242185335 0  0.5814408164431408 0.2041285596160068 0  0.5688286748170428 0.1961819304477386 0  0.4145905603063645 0.2038180695522843 0  0.3473758401724931 0.2038180695522752 0  0.2950977245128307 0.2038180695522663 0  0.5688286748170693 0.203818069552238 0  0.2950977245127906 0.1961819304477774 0  0.3473758401723931 0.1961819304478349 0  0.4145905603061963 0.1961819304479011 0  0.2601812407614425 0.2056861609747042
[...]
<PointData  Vectors="f_40-1"> 
<DataArray  type="Float64"  Name="f_40-1"  NumberOfComponents="3" format="ascii">0.0000000000000000e+00 0.0000000000000000e+00 0.0000000000000000e+00  0.0000000000000000e+00 0.0000000000000000e+00 0.0000000000000000e+00  0.0000000000000000e+00 0.0000000000000000e+00 0.0000000000000000e+00  0.0000000000000000e+00 0.0000000000000000e+00 0.0000000000000000e+00  -9.8417886702146010e-06 -3.5106004726403079e-05 0.0000000000000000e+00  -6.8843530401361474e-06 -3.7013033499280802e-05 0.0000000000000000e+00  0.0000000000000000e+00 0.0000000000000000e+00 0.0000000000000000e+00  0.0000000000000000e+00 0.0000000000000000e+00 0.0000000000000000e+00  0.0000000000000000e+00 0.0000000000000000e+00 0.0000000000000000e+00  0.0000000000000000e+00 0.0000000000000000e+00 0.0000000000000000e+00  -8.4870684903581961e-06 -3.6060321018759905e-05 0.0000000000000000e+00  0.0000000000000000e+00 0.0000000000000000e+00 0.0000000000000000e+00  0.0000000000000000e+00 0.0000000000000000e+00 0.0000000000000000e+00  0.0000000000000000e+00 0.0000000000000000e+00 0.0000000000000000e+00  0.0000000000000000e+00 0.0000000000000000e+00 0.0000000000000000e+00  0.0000000000000000e+00 0.0000000000000000e+00 0.0000000000000000e+00  0.0000000000000000e+00 0.0000000000000000e+00 0.0000000000000000e+00  0.0000000000000000e+00 0.0000000000000000e+00 0.0000000000000000e+00  0.0000000000000000e+00 0.0000000000000000e+00 0.0000000000000000e+00  0.0000000000000000e+00 0.0000000000000000e+00 0.0000000000000000e+00  0.0000000000000000e+00 0.0000000000000000e+00 0.0000000000000000e+00  0.0000000000000000e+00 0.0000000000000000e+00 0.0000000000000000e+00  0.0000000000000000e+00 0.0000000000000000e+00 0.0000000000000000e+00  0.0000000000000000e+00 0.0000000000000000e+00 0.0000000000000000e+00  0.0000000000000000e+00 0.0000000000000000e+00 0.0000000000000000e+00  0.0000000000000000e+00 0.0000000000000000e+00 0.0000000000000000e+00  0.0000000000000000e+00 0.0000000000000000e+00 0.0000000000000000e+00  0.0000000000000000e+00 0.0000000000000000e+00 0.0000000000000000e+00  0.0000000000000000e+00 0.0000000000000000e+00 0.0000000000000000e+00  0.0000000000000000e+00 0.0000000000000000e+00 0.0000000000000000e+00  0.0000000000000000e+00 0.0000000000000000e+00 0.0000000000000000e+00  0.0000000000000000e+00 0.0000000000000000e+00 0.0000000000000000e+00  0.0000000000000000e+00 0.0000000000000000e+00 0.0000000000000000e+00  0.0000000000000000e+00 0.0000000000000000e+00 0.0000000000000000e+00  0.0000000000000000e+00 0.0000000000000000e+00 0.0000000000000000e+00  0.0000000000000000e+00 0.0000000000000000e+00 0.0000000000000000e+00  0.0000000000000000e+00 0.0000000000000000e+00 0.0000000000000000e+00  0.0000000000000000e+00 0.0000000000000000e+00 0.0000000000000000e+00  0.0000000000000000e+00 0.0000000000000000e+00 0.0000000000000000e+00  0.0000000000000000e+00 0.0000000000000000e+00 0.0000000000000000e+00  0.0000000000000000e+00 0.0000000000000000e+00 0.0000000000000000e+00  0.0000000000000000e+00 0.0000000000000000e+00 0.0000000000000000e+00  0.0000000000000000e+00 0.0000000000000000e+00 0.0000000000000000e+00  0.0000000000000000e+00 0.0000000000000000e+00 0.0000000000000000e+00  0.0000000000000000e+00 0.0000000000000000e+00 0.0000000000000000e+00  0.0000000000000000e+00 0.0000000000000000e+00 0.0000000000000000e+00  0.0000000000000000e+00 0.0000000000000000e+00 0.0000000000000000e+00  0.0000000000000000e+00 0.0000000000000000e+00 0.0000000000000000e+00  0.0000000000000000e+00 0.0000000000000000e+00 0.0000000000000000e+00  0.0000000000000000e+00 0.0000000000000000e+00 0.0000000000000000e+00  0.0000000000000000e+00 0.0000000000000000e+00 0.0000000000000000e+00  0.0000000000000000e+00 0.0000000000000000e+00 0.0000000000000000e+00  0.0000000000000000e+00 0.0000000000000000e+00 0.0000000000000000e+00  0.0000000000000000e+00 0.0000000000000000e+00 0.0000000000000000e+00  0.0000000000000000e+00 0.0000000000000000e+00 0.0000000000000000e+00  0.0000000000000000e+00 0.0000000000000000e+00 0.0000000000000000e+00  0.0000000000000000e+00 0.0000000000000000e+00 0.0000000000000000e+00  0.0000000000000000e+00 0.0000000000000000e+00 0.0000000000000000e+00  0.0000000000000000e+00 0.0000000000000000e+00 0.0000000000000000e+00  0.0000000000000000e+00 0.0000000000000000e+00 0.0000000000000000e+00  0.0000000000000000e+00 0.0000000000000000e+00 0.0000000000000000e+00  0.0000000000000000e+00 0.0000000000000000e+00 0.0000000000000000e+00  0.0000000000000000e+00 0.0000000000000000e+00 0.0000000000000000e+00  0.0000000000000000e+00 0.0000000000000000e+00 0.0000000000000000e+00  0.0000000000000000e+00 0.0000000000000000e+00 0.0000000000000000e+00  0.0000000000000000e+00 0.0000000000000000e+00 0.0000000000000000e+00  0.0000000000000000e+00 0.0000000000000000e+00 0.0000000000000000e+00  0.0000000000000000e+00 0.0000000000000000e+00 0.0000000000000000e+00  0.0000000000000000e+00 0.0000000000000000e+00 0.0000000000000000e+00  0.0000000000000000e+00 0.0000000000000000e+00 0.0000000000000000e+00  0.0000000000000000e+00 0.0000000000000000e+00 0.0000000000000000e+00  0.0000000000000000e+00 0.0000000000000000e+00 0.0000000000000000e+00  0.0000000000000000e+00 0.0000000000000000e+00 0.0000000000000000e+00  0.0000000000000000e+00 0.0000000000000000e+00 0.0000000000000000e+00  0.0000000000000000e+00 0.0000000000000000e+00 0.0000000000000000e+00  0.0000000000000000e+00 0.0000000000000000e+00 0.0000000000000000e+00  0.0000000000000000e+00 0.0000000000000000e+00 0.0000000000000000e+00  0.0000000000000000e+00 0.0000000000000000e+00 0.0000000000000000e+00  0.0000000000000000e+00 0.0000000000000000e+00 0.0000000000000000e+00  0.0000000000000000e+00 0.0000000000000000e+00 0.0000000000000000e+00  0.0000000000000000e+00 0.0000000000000000e+00 0.0000000000000000e+00  0.0000000000000000e+00 0.0000000000000000e+00 0.0000000000000000e+00  0.0000000000000000e+00 0.0000000000000000e+00 0.0000000000000000e+00  0.0000000000000000e+00 0.0000000000000000e+00 0.0000000000000000e+00  0.0000000000000000e+00 0.0000000000000000e+00 0.0000000000000000e+00  0.0000000000000000e+00 0.0000000000000000e+00 0.0000000000000000e+00  0.0000000000000000e+00 0.0000000000000000e+00 0.0000000000000000e+00  0.0000000000000000e+00 0.0000000000000000e+00 0.0000000000000000e+00  0.0000000000000000e+00 0.0000000000000000e+00 0.0000000000000000e+00  0.0000000000000000e+00 0.0000000000000000e+00 0.0000000000000000e+00  0.0000000000000000e+00 0.0000000000000000e+00 0.0000000000000000e+00  0.0000000000000000e+00 0.0000000000000000e+00 0.0000000000000000e+00  0.0000000000000000e+00 0.0000000000000000e+00 0.0000000000000000e+00  0.0000000000000000e+00 0.0000000000000000e+00 0.0000000000000000e+00  0.0000000000000000e+00 0.0000000000000000e+00 0.0000000000000000e+00  0.0000000000000000e+00 0.0000000000000000e+00 0.0000000000000000e+00  0.0000000000000000e+00 0.0000000000000000e+00 0.0000000000000000e+00  0.0000000000000000e+00 0.0000000000000000e+00 0.0000000000000000e+00  0.0000000000000000e+00 0.0000000000000000e+00 0.0000000000000000e+00  0.0000000000000000e+00 0.0000000000000000e+00 0.0000000000000000e+00  0.0000000000000000e+00 0.0000000000000000e+00 0.0000000000000000e+00  0.0000000000000000e+00 0.0000000000000000e+00 0.0000000000000000e+00  0.0000000000000000e+00 0.0000000000000000e+00 0.0000000000000000e+00  0.0000000000000000e+00 0.0000000000000000e+00 0.0000000000000000e+00  0.0000000000000000e+00 0.0000000000000000e+00 0.0000000000000000e+00  0.0000000000000000e+00 0.0000000000000000e+00 0.0000000000000000e+00  0.0000000000000000e+00 0.0000000000000000e+00 0.0000000000000000e+00  0.0000000000000000e+00 0.0000000000000000e+00 0.0000000000000000e+00  0.0000000000000000e+00 0.0000000000000000e+00 0.0000000000000000e+00  0.0000000000000000e+00 0.0000000000000000e+00 0.0000000000000000e+00  0.0000000000000000e+00 0.0000000000000000e+00 0.0000000000000000e+00  0.0000000000000000e+00 0.0000000000000000e+00 0.0000000000000000e+00  0.0000000000000000e+00 0.0000000000000000e+00 0.0000000000000000e+00  0.0000000000000000e+00 0.0000000000000000e+00 0.0000000000000000e+00  0.0000000000000000e+00 0.0000000000000000e+00 0.0000000000000000e+00  0.0000000000000000e+00 0.0000000000000000e+00 0.0000000000000000e+00  0.0000000000000000e+00 0.0000000000000000e+00 0.0000000000000000e+00  0.0000000000000000e+00 0.0000000000000000e+00 0.0000000000000000e+00  0.0000000000000000e+00 0.0000000000000000e+00 0.0000000000000000e+00  0.0000000000000000e+00 0.0000000000000000e+00 0.0000000000000000e+00  0.0000000000000000e+00 0.0000000000000000e+00 0.0000000000000000e+00  0.0000000000000000e+00 0.0000000000000000e+00 0.0000000000000000e+00  0.0000000000000000e+00 0.0000000000000000e+00 0.0000000000000000e+00  0.0000000000000000e+00 0.0000000000000000e+00 0.0000000000000000e+00  0.0000000000000000e+00 0.0000000000000000e+00 0.0000000000000000e+00  0.0000000000000000e+00 0.0000000000000000e+00 0.0000000000000000e+00  0.0000000000000000e+00 0.0000000000000000e+00 0.0000000000000000e+00  0.0000000000000000e+00 0.0000000000000000e+00 0.0000000000000000e+00  0.0000000000000000e+00 0.0000000000000000e+00 0.0000000000000000e+00  0.0000000000000000e+00 0.0000000000000000e+00 0.0000000000000000e+00  0.0000000000000000e+00 0.0000000000000000e+00 0.0000000000000000e+00  0.0000000000000000e+00 0.0000000000000000e+00 0.0000000000000000e+00  0.0000000000000000e+00 0.0000000000000000e+00 0.0000000000000000e+00  0.0000000000000000e+00 0.0000000000000000e+00 0.0000000000000000e+00  0.0000000000000000e+00 0.0000000000000000e+00 0.0000000000000000e+00  0.0000000000000000e+00 0.0000000000000000e+00 0.0000000000000000e+00  0.0000000000000000e+00 0.0000000000000000e+00 0.0000000000000000e+00  0.0000000000000000e+00 0.0000000000000000e+00 0.0000000000000000e+00  0.0000000000000000e+00 0.0000000000000000e+00 0.0000000000000000e+00  0.0000000000000000e+00 0.0000000000000000e+00 0.0000000000000000e+00  0.0000000000000000e+00 0.0000000000000000e+00 0.0000000000000000e+00  0.0000000000000000e+00 0.0000000000000000e+00 0.0000000000000000e+00  0.0000000000000000e+00 0.0000000000000000e+00 0.0000000000000000e+00  1.1951709662961647e-08 -1.6613577911668729e-06 0.0000000000000000e+00  8.0301826582529046e-08 -1.8556610492999269e-06 0.0000000000000000e+00  2.2259327431182414e-07 -2.0075217109560127e-06 0.0000000000000000e+00  4.0729313429072312e-07 -2.1604501949772573e-06 0.0000000000000000e+00  5.8884914619911824e-07 -2.3579476593839855e-06 0.0000000000000000e+00  7.6423678775943138e-07 -2.6211042306002254e-06 0.0000000000000000e+00  9.1611470474366346e-07 -2.9206865956662583e-06 0.0000000000000000e+00  1.0496173998115232e-06 -3.2721796223795095e-06 0.0000000000000000e+00  1.1819248852827771e-06 -3.6642701376852202e-06 0.0000000000000000e+00  1.2818220284729061e-06 -4.0941094988312602e-06 0.0000000000000000e+00  1.3798617482385747e-06 -4.5725922102060293e-06 0.0000000000000000e+00  1.4468127386629559e-06 -5.0823232642165145e-06 0.0000000000000000e+00  1.5061416807822903e-06 -5.6335750027238298e-06 0.0000000000000000e+00  1.5417943260993372e-06 -6.2172506185102289e-06 0.0000000000000000e+00  1.5577025491453237e-06 -6.8367463575083871e-06 0.0000000000000000e+00  1.5686673741811445e-06 -7.4904338437734177e-06 0.0000000000000000e+00  1.5495330482173406e-06 -8.1668292767326456e-06 0.0000000000000000e+00  1.5230513442015017e-06 -8.8840194862840260e-06 0.0000000000000000e+00  1.4689295534615036e-06 -9.6176121834189203e-06 0.0000000000000000e+00  1.4069348481311915e-06 -1.0387965165644788e-05 0.0000000000000000e+00  1.3200627815166863e-06 -1.1173492542695241e-05 0.0000000000000000e+00  1.2189638343655208e-06 -1.1989686489423263e-05 0.0000000000000000e+00  1.0993495320954232e-06 -1.2825514834613240e-05 0.0000000000000000e+00  9.6001132325667747e-07 -1.3682309207350346e-05 0.0000000000000000e+00  8.1207115973248658e-07 -1.4562291346140508e-05 0.0000000000000000e+00  6.4063488243653025e-07 -1.5453397916622347e-05 0.0000000000000000e+00  4.5224563901822502e-07 -1.6374901729578433e-05 0.0000000000000000e+00  2.4621226022223987e-07 -1.7301051018908396e-05 0.0000000000000000e+00  2.3178583653842471e-08 -1.8253519420441510e-05 0.0000000000000000e+00  -2.1752854054731226e-07 -1.9211502476471723e-05 0.0000000000000000e+00  -4.7435910805625661e-07 -2.0192027578672299e-05 0.0000000000000000e+00  -7.5023486377128509e-07 -2.1175893094942824e-05 0.0000000000000000e+00  -1.0407535409163404e-06 -2.2181558565453794e-05 0.0000000000000000e+00  -1.3508709604605178e-06 -2.3186110523179081e-05 0.0000000000000000e+00  -1.6786380404463015e-06 -2.4212855386125637e-05 0.0000000000000000e+00  -2.0234738636957651e-06 -2.5237854066891339e-05 0.0000000000000000e+00  -2.3846610043855696e-06 -2.6280825120801941e-05 0.0000000000000000e+00  -2.7636547727306864e-06 -2.7321276530543715e-05 0.0000000000000000e+00  -3.1600231586416442e-06 -2.8377492595287341e-05 0.0000000000000000e+00  -3.5753067567740135e-06 -2.9430289711912197e-05 0.0000000000000000e+00  -4.0090955522162393e-06 -3.0493802120340859e-05 0.0000000000000000e+00  -4.4580517120377081e-06 -3.1556990297915435e-05 0.0000000000000000e+00  -4.9277037459579339e-06 -3.2626361464241719e-05 0.0000000000000000e+00  -5.4073220531843874e-06 -3.3696299470226033e-05 0.0000000000000000e+00  -5.9070650424940139e-06 -3.4763112224192218e-05 0.0000000000000000e+00  -6.4104509932019897e-06 -3.5848834969838990e-05 0.0000000000000000e+00  -7.7291898414414663e-06 -3.6533157480347235e-05 0.0000000000000000e+00  -9.2000529585404765e-06 -3.5587769017225025e-05 0.0000000000000000e+00  -9.3575344683577315e-06 -3.4068887571433498e-05 0.0000000000000000e+00  -8.8462386823366613e-06 -3.2952289505728939e-05 0.0000000000000000e+00  -8.3383037049988587e-06 -3.1827455713052891e-05 0.0000000000000000e+00  -7.8486617984739696e-06 -3.0711420208430163e-05 0.0000000000000000e+00  -7.3696435331864734e-06 -2.9598690892554732e-05 0.0000000000000000e+00  -6.9111444021360349e-06 -2.8490484766591103e-05 0.0000000000000000e+00  -6.4640007873731492e-06 -2.7387759861093477e-05 0.0000000000000000e+00  -6.0364105327899633e-06 -2.6286008525258928e-05 0.0000000000000000e+00  -5.6218426929400562e-06 -2.5197468997782568e-05 0.0000000000000000e+00  -5.2251749967755407e-06 -2.4106739693117659e-05 0.0000000000000000e+00  -4.8413273550532106e-06 -2.3031690887780488e-05 0.0000000000000000e+00  -4.4756050000573080e-06 -2.1956646062278743e-05 0.0000000000000000e+00  -4.1217029776557508e-06 -2.0899123682197335e-05 0.0000000000000000e+00  -3.7859799915854088e-06 -1.9843235328949483e-05 0.0000000000000000e+00  -3.4613202713502042e-06 -1.8806810748165617e-05 0.0000000000000000e+00  -3.1553796039136721e-06 -1.7773820847977379e-05 0.0000000000000000e+00  -2.8598035555512109e-06 -1.6761449625267574e-05 0.0000000000000000e+00  -2.5838955762713245e-06 -1.5754479908049964e-05 0.0000000000000000e+00  -2.3174855751814392e-06 -1.4771098187937227e-05 0.0000000000000000e+00  -2.0707675864345098e-06 -1.3795392140365548e-05 0.0000000000000000e+00  -1.8324060020961840e-06 -1.2844970906185042e-05 0.0000000000000000e+00  -1.6146044234685583e-06 -1.1904751889557097e-05 0.0000000000000000e+00  -1.4070905654730969e-06 -1.0988556123969128e-05 0.0000000000000000e+00  -1.2158084054008534e-06 -1.0089876231820006e-05 0.0000000000000000e+00  -1.0425921395090691e-06 -9.2153363344899005e-06 0.0000000000000000e+00  -8.7309300660276081e-07 -8.3619147100081668e-06 0.0000000000000000e+00  -7.2465743964253972e-07 -7.5286412906539889e-06 0.0000000000000000e+00  -5.8678493280144438e-07 -6.7295477323304534e-06 0.0000000000000000e+00  -4.6606739144841543e-07 -5.9463035149118064e-06 0.0000000000000000e+00  -3.5671289593374153e-07 -5.2015135472395725e-06 0.0000000000000000e+00  -2.6399622199383200e-07 -4.4747304066811781e-06 0.0000000000000000e+00  -1.8083194833813522e-07 -3.7902151885144435e-06 0.0000000000000000e+00  -1.1437479278773775e-07 -3.1284330241170192e-06 0.0000000000000000e+00  -6.4591461738828052e-08 -2.5090577697247301e-06 0.0000000000000000e+00  -1.5782256709950185e-08 -1.9175161199057874e-06 0.0000000000000000e+00  1.1901504983014727e-08 -1.3653391906237084e-06 0.0000000000000000e+00  3.0231251463388775e-08 -8.5821652395143061e-07 0.0000000000000000e+00  3.1724281783055159e-08 -3.8412527243769526e-07 0.0000000000000000e+00  2.6663788860502321e-08 3.8938589623816446e-08 0.0000000000000000e+00  2.9751950357317063e-09 4.2622083827031525e-07 0.0000000000000000e+00  -3.6657916509463024e-08 7.6057432843702201e-07 0.0000000000000000e+00  -7.2477198271674235e-08 1.0544207079197334e-06 0.0000000000000000e+00  -1.3163031041174270e-07 1.3100108149662342e-06 0.0000000000000000e+00  -1.7086297732100498e-07 1.5092586028084970e-06 0.0000000000000000e+00  -1.8755720371341513e-07 1.6056100004426456e-06 0.0000000000000000e+00  -1.1803950684505849e-07 1.5538045675192092e-06 0.0000000000000000e+00  -3.6256635753174491e-07 -6.1814391858485404e-08 0.0000000000000000e+00  -7.6525135021316163e-06 -3.4414426526663394e-05 0.0000000000000000e+00  -6.6517072387509536e-06 -3.2326006145497334e-05 0.0000000000000000e+00  -5.2167363554462807e-06 -2.8919493765671107e-05 0.0000000000000000e+00  6.6396035806805767e-08 -2.9878751413772494e-07 0.0000000000000000e+00  -4.4074174713451269e-06 -2.6790620545962071e-05 0.0000000000000000e+00  2.9384483269153193e-07 -7.0767530166081815e-07 0.0000000000000000e+00  -3.6301779685742601e-06 -2.4658183833239382e-05 0.0000000000000000e+00  5.5983579235477789e-07 -1.7814000179903536e-06 0.0000000000000000e+00  6.6538222604639053e-07 -2.6919145667850624e-06 0.0000000000000000e+00  -2.9182372099502156e-06 -2.2556613474728789e-05 0.0000000000000000e+00  6.4846028099678894e-07 -5.6310051172956566e-06 0.0000000000000000e+00  -1.6882522723652534e-06 -1.8474291110430940e-05 0.0000000000000000e+00  7.0047314810784393e-07 -3.6891700121053783e-06 0.0000000000000000e+00  5.5139570704008628e-07 -7.0275896848165174e-06 0.0000000000000000e+00  -1.1693244188227710e-06 -1.6508356912946624e-05 0.0000000000000000e+00  -2.2710261476201971e-06 -2.0492771616952207e-05 0.0000000000000000e+00  3.8057938108211578e-07 -8.5454208452629475e-06 0.0000000000000000e+00  -7.1418060358841835e-07 -1.4603869085127124e-05 0.0000000000000000e+00  1.4459585471467066e-07 -1.0080330303732220e-05 0.0000000000000000e+00  -3.1283992881832768e-07 -1.2823026810098133e-05 0.0000000000000000e+00  -6.1713229404226160e-08 -1.1375765428096374e-05 0.0000000000000000e+00  7.0104550781094125e-07 -4.6051296924809867e-06 0.0000000000000000e+00  -5.9743666277890994e-06 -3.0669632138930936e-05 0.0000000000000000e+00  4.3825586575139302e-07 -1.1970792139300594e-06 0.0000000000000000e+00  -7.6526486125178285e-06 -3.3042068790336003e-05 0.0000000000000000e+00  -1.6843898582436321e-07 5.0390795379971674e-07 0.0000000000000000e+00  -4.4249933589442933e-06 -2.5409202635989030e-05 0.0000000000000000e+00  -5.2395780638779813e-06 -2.7566038397450950e-05 0.0000000000000000e+00  2.9687466314214188e-07 -1.1131153714649804e-06 0.0000000000000000e+00  7.9672292124082794e-07 -2.6956542372677312e-06 0.0000000000000000e+00  -2.3637802243532093e-06 -1.9130547766325444e-05 0.0000000000000000e+00  -3.6744534094896291e-06 -2.3279474269698521e-05 0.0000000000000000e+00  8.8600376758109888e-07 -6.7475951872578419e-06 0.0000000000000000e+00  -1.8025081590674350e-06 -1.7125611556836127e-05 0.0000000000000000e+00  8.9977652395569098e-07 -3.6717451323685285e-06 0.0000000000000000e+00  7.6716657581076471e-07 -8.1994118098000402e-06 0.0000000000000000e+00  -1.3037070583688836e-06 -1.5177813332543307e-05 0.0000000000000000e+00  -2.9876535439315502e-06 -2.1184056737445592e-05 0.0000000000000000e+00  6.5607744608058596e-07 -9.8408922595345194e-06 0.0000000000000000e+00  -8.6658462691623471e-07 -1.3295917076886516e-05 0.0000000000000000e+00  -3.5355176263546188e-07 -3.9794182061963135e-07 0.0000000000000000e+00  -3.6803158261507860e-07 3.4021339317636399e-07 0.0000000000000000e+00  -7.7393414357368088e-06 -3.5486575572711554e-05 0.0000000000000000e+0