<?xml version="1.0"?>
<VTKFile type="UnstructuredGrid"  version="0.1"  >
<UnstructuredGrid>
<Piece  NumberOfPoints="1419" NumberOfCells="2698">
<Points>
<DataArray  type="Float64"  NumberOfComponents="3"  format="ascii">0 0 0  0 0.41 0  2.5 0 0  2.5 0.41 0  0.6 0.19 0  0.6 0.21 0  0.25 0.2 0  0.15 0.2 0  0.2489897948556636 0.21 0  0.2489897948556636 0.19 0  0.6 0.2 0  0 0.3807142857143437 0  0 0.3514285714286952 0  0 0.3221428571430699 0  0 0.29285714285744 0  0 0.2635714285718054 0  0 0.2342857142861561 0  0 0.2050000000005308 0  0 0.175714285714732 0  0 0.1464285714289574 0  0 0.1171428571431897 0  0 0.08785714285737878 0  0 0.05857142857161107 0  0 0.02928571428580012 0  0.03015443760436003 0 0  0.06140001986583606 0 0  0.09377624077125973 0 0  0.1273239957535082 0 0  0.1620856860351972 0 0  0.1981052433264291 0 0  0.235428184091502 0 0  0.2741016576309132 0 0  0.3141745521465447 0 0  0.3556974926295285 0 0  0.3987229542472677 0 0  0.4433053055141081 0 0  0.4895008759286886 0 0  0.5373680609405097 0 0  0.5869673343216626 0 0  0.6383613676634521 0 0  0.6916151138468254 0 0  0.7467958595648856 0 0  0.8039733463919316 0 0  0.8632198139502143 0 0  0.9246101326867038 0 0  0.9882218810934433 0 0  1.054135445558498 0 0  1.122434100542598 0 0  1.193204177141305 0 0  1.266535089879536 0 0  1.342519516046404 0 0  1.421253448503939 0 0  1.502836389106271 0 0  1.587371439758838 0 0  1.674965418777374 0 0  1.765729001825544 0 0  1.859776908880082 0 0  1.957227977487062 0 0  2.058205329869943 0 0  2.162836591189951 0 0  2.271253957290865 0 0  2.383594446803425 0 0  2.5 0.1024999999997612 0  2.5 0.2049999999994743 0  2.5 0.3074999999997183 0  2.383594446803656 0.41 0  2.271253957291315 0.41 0  2.162836591190598 0.41 0  2.058205329870775 0.41 0  1.957227977488067 0.41 0  1.859776908881246 0.41 0  1.765729001826854 0.41 0  1.674965418778818 0.41 0  1.58737143976041 0.41 0  1.502836389107956 0.41 0  1.421253448505726 0.41 0  1.342519516048286 0.41 0  1.266535089881505 0.41 0  1.193204177143353 0.41 0  1.122434100544716 0.41 0  1.05413544556068 0.41 0  0.9882218810956305 0.41 0  0.9246101326886647 0.41 0  0.8632198139519631 0.41 0  0.8039733463934788 0.41 0  0.7467958595662458 0.41 0  0.6916151138480078 0.41 0  0.6383613676644679 0.41 0  0.5869673343225223 0.41 0  0.5373680609412221 0.41 0  0.4895008759292634 0.41 0  0.4433053055145528 0.41 0  0.3987229542475914 0.41 0  0.3556974926297398 0.41 0  0.3141745521466497 0.41 0  0.2741016576310038 0.41 0  0.2354281840915826 0.41 0  0.1981052433265003 0.41 0  0.1620856860352591 0.41 0  0.1273239957535623 0.41 0  0.09377624077128965 0.41 0  0.06140001986584975 0.41 0  0.03015443760436654 0.41 0  0.2497468076502589 0.2050254481002335 0  0.2497468076502614 0.1949745518997913 0  0.2469965252529372 0.1829317073451959 0  0.2439893735792749 0.1762316384219906 0  0.2400332147834255 0.1700443375285386 0  0.2352133972704371 0.1645032867342007 0  0.2296339016332438 0.1597280261969788 0  0.2234150974217223 0.1558215752574715 0  0.2166911463437691 0.1528682099456123 0  0.2096071079204251 0.1509316448471593 0  0.2023158100364996 0.1500536585536553 0  0.194974551899914 0.1502531923497262 0  0.1877417105387872 0.1515259415822739 0  0.1807733240461124 0.153844448527136 0  0.1742197252835808 0.15715869474974 0  0.1682222986673531 0.1613971801805478 0  0.162910430003803 0.1664684656256651 0  0.1583987151779087 0.1722631454351573 0  0.1547844879126891 0.178656207771761 0  0.1521457199348551 0.1855097315605723 0  0.1505393388476355 0.1926758619366523 0  0.1505393388476328 0.2073241380633295 0  0.1521457199348437 0.2144902684393899 0  0.1547844879126531 0.221343792228163 0  0.1583987151778488 0.2277368545647528 0  0.1629104300036858 0.2335315343742052 0  0.1682222986671726 0.2386028198193036 0  0.1742197252833576 0.2428413052501257 0  0.1807733240458683 0.2461555514727623 0  0.1877417105384929 0.2484740584176516 0  0.1949745518995776 0.2497468076502398 0  0.202315810036185 0.2499463414463592 0  0.2096071079201568 0.2490683551528932 0  0.2166911463435495 0.2471317900544655 0  0.2234150974215506 0.2441784247426195 0  0.2296339016331197 0.2402719738031125 0  0.2352133972703547 0.2354967132658811 0  0.2400332147833751 0.2299556624715287 0  0.2439893735792577 0.2237683615780412 0  0.246996525252926 0.2170682926548348 0  0.25645809709277 0.21 0  0.2639263993298655 0.21 0  0.271394701566961 0.21 0  0.2788630038040554 0.21 0  0.2863313060411479 0.21 0  0.2937996082782405 0.21 0  0.301267910515333 0.21 0  0.3087362127524279 0.21 0  0.3162045149895234 0.21 0  0.3236728172265972 0.21 0  0.3311411194636928 0.21 0  0.3386094217007701 0.21 0  0.3460777239378666 0.21 0  0.3535460261749672 0.21 0  0.3610143284120516 0.21 0  0.3684826306491596 0.21 0  0.3759509328862226 0.21 0  0.383419235123329 0.21 0  0.3908875373604028 0.21 0  0.3983558395975142 0.21 0  0.4058241418345938 0.21 0  0.4132924440716992 0.21 0  0.4207607463087888 0.21 0  0.4282290485459029 0.21 0  0.4356973507830418 0.21 0  0.4431656530201649 0.21 0  0.4506339552573136 0.21 0  0.4581022574944306 0.21 0  0.4655705597315852 0.21 0  0.4730388619686996 0.21 0  0.480507164205851 0.21 0  0.4879754664429498 0.21 0  0.4954437686800938 0.21 0  0.502912070917267 0.21 0  0.5103803731544119 0.21 0  0.5178486753915261 0.21 0  0.5253169776286404 0.21 0  0.5327852798657868 0.21 0  0.5402535821029386 0.21 0  0.54772188434007 0.21 0  0.5551901865771842 0.21 0  0.5626584888143201 0.21 0  0.5701267910514778 0.21 0  0.5775950932886138 0.21 0  0.5850633955257281 0.21 0  0.5925316977628483 0.21 0  0.6 0.2050000000000054 0  0.6 0.1950000000000217 0  0.5925316977628897 0.19 0  0.5850633955257988 0.19 0  0.5775950932887378 0.19 0  0.5701267910515998 0.19 0  0.5626584888145268 0.19 0  0.5551901865773963 0.19 0  0.547721884340339 0.19 0  0.5402535821032429 0.19 0  0.5327852798661811 0.19 0  0.5253169776290537 0.19 0  0.5178486753919799 0.19 0  0.5103803731549078 0.19 0  0.502912070917822 0.19 0  0.4954437686807294 0.19 0  0.4879754664436223 0.19 0  0.4805071642065402 0.19 0  0.4730388619694271 0.19 0  0.4655705597323621 0.19 0  0.4581022574952563 0.19 0  0.4506339552581777 0.19 0  0.4431656530210671 0.19 0  0.4356973507839815 0.19 0  0.4282290485468779 0.19 0  0.4207607463097617 0.19 0  0.4132924440726327 0.19 0  0.4058241418354857 0.19 0  0.3983558395983636 0.19 0  0.3908875373612097 0.19 0  0.3834192351240934 0.19 0  0.3759509328869369 0.19 0  0.3684826306498175 0.19 0  0.361014328412667 0.19 0  0.3535460261755617 0.19 0  0.3460777239384295 0.19 0  0.3386094217012945 0.19 0  0.3311411194641595 0.19 0  0.3236728172270245 0.19 0  0.3162045149898895 0.19 0  0.3087362127527544 0.19 0  0.3012679105156187 0.19 0  0.2937996082784807 0.19 0  0.2863313060413428 0.19 0  0.2788630038042048 0.19 0  0.2713947015670686 0.19 0  0.2639263993299336 0.19 0  0.2564580970927985 0.19 0  0.2607803159922026 0.2000727136295815 0  0.5887803774232762 0.2001272386983733 0  0.5745072403740523 0.2002044435018727 0  0.5511891430099709 0.2001122610077113 0  0.2751288526855082 0.20000000000002 0  0.5365194309847112 0.1999999999999436 0  0.2894621222999649 0.1998691686390484 0  0.5215828265105155 0.1999999999999228 0  0.3127789816668748 0.1998657885438805 0  0.3274069683451451 0.2000000000000796 0  0.5066462220363641 0.199999999999908 0  0.3650630746574081 0.199866017807523 0  0.476773013087985 0.1999999999998713 0  0.3417402379596385 0.1998691686391011 0  0.3796850840047755 0.200000000000134 0  0.4618364086138087 0.1999999999998546 0  0.4917096175621762 0.1999999999998808 0  0.3946216884789568 0.2000000000001512 0  0.446899804139621 0.1999999999998389 0  0.4089549580935208 0.1998691686391595 0  0.4322718174608562 0.200127451265745 0  0.4201487168029707 0.1999966199048527 0  0.3528922713220932 0.2000185703532356 0  0.5633122436674589 0.1999814296467508 0  0.3006558810093873 0.1999966199048318 0  0.5815926498168407 0.1966545283159175 0  0.2677053789419034 0.1964246479135325 0  0.5290511287476175 0.1970915826863981 0  0.5439877332217911 0.197091582686394 0  0.2825131256993216 0.2035478995978015 0  0.3199386661080599 0.202908417313604 0  0.4842413153250809 0.1970915826863873 0  0.5141145242734466 0.1970915826863843 0  0.3722167817676917 0.2029084173136195 0  0.4693047108508938 0.1970915826863783 0  0.3348752705822316 0.202908417313609 0  0.3871533862418661 0.2029084173136212 0  0.4543681063767183 0.1970915826863795 0  0.4991779197992749 0.1970915826863902 0  0.4020059614928624 0.203547899597858 0  0.4394315019025246 0.1970915826863714 0  0.2550657455369551 0.2034088125358657 0  0.2548908499171161 0.1966940311614271 0  0.5946539510196798 0.2024302972968126 0  0.267698176732111 0.2039977513680092 0  0.4261685417851465 0.196409292431739 0  0.3590076176283495 0.196411355804271 0  0.5571672426447437 0.2036011176410121 0  0.3066757059912147 0.1964092924317024 0  0.594380730180568 0.1966558399668133 0  0.4842413153245942 0.2040749161535287 0  0.4693047108503577 0.2040749161535231 0  0.3871533862424271 0.1959250838464788 0  0.372246743208829 0.1959123236376545 0  0.5141145242731028 0.2040749161535395 0  0.4543681063761134 0.2040749161535186 0  0.4019979587101454 0.1959834479682427 0  0.4394608940728603 0.2040870543693135 0  0.5439623148931173 0.2040856076781014 0  0.5290511287473298 0.2040749161535501 0  0.4991779197988497 0.2040749161535382 0  0.3347912413592433 0.1959225448935183 0  0.3199680582793816 0.1959123018030061 0  0.2825051229162361 0.1959834479681729 0  0.3590471196690275 0.2036304442587945 0  0.5571594006495384 0.1963685282145804 0  0.3067669986803285 0.203627750582736 0  0.4262598344738712 0.2036568242185335 0  0.5814408164431408 0.2041285596160068 0  0.5688286748170428 0.1961819304477386 0  0.4145905603063645 0.2038180695522843 0  0.3473758401724931 0.2038180695522752 0  0.2950977245128307 0.2038180695522663 0  0.5688286748170693 0.203818069552238 0  0.2950977245127906 0.1961819304477774 0  0.3473758401723931 0.1961819304478349 0  0.4145905603061963 0.1961819304479011 0  0.2601812407614425 0.2056861609747042
[...]
<PointData  Vectors="f_40-1"> 
<DataArray  type="Float64"  Name="f_40-1"  NumberOfComponents="3" format="ascii">0.0000000000000000e+00 0.0000000000000000e+00 0.0000000000000000e+00  0.0000000000000000e+00 0.0000000000000000e+00 0.0000000000000000e+00  0.0000000000000000e+00 0.0000000000000000e+00 0.0000000000000000e+00  0.0000000000000000e+00 0.0000000000000000e+00 0.0000000000000000e+00  -1.0257910266269511e-05 -5.0442437942831775e-05 0.0000000000000000e+00  -6.0636072921038035e-06 -5.2583294231146752e-05 0.0000000000000000e+00  0.0000000000000000e+00 0.0000000000000000e+00 0.0000000000000000e+00  0.0000000000000000e+00 0.0000000000000000e+00 0.0000000000000000e+00  0.0000000000000000e+00 0.0000000000000000e+00 0.0000000000000000e+00  0.0000000000000000e+00 0.0000000000000000e+00 0.0000000000000000e+00  -8.3088079540694243e-06 -5.1513720530329526e-05 0.0000000000000000e+00  0.0000000000000000e+00 0.0000000000000000e+00 0.0000000000000000e+00  0.0000000000000000e+00 0.0000000000000000e+00 0.0000000000000000e+00  0.0000000000000000e+00 0.0000000000000000e+00 0.0000000000000000e+00  0.0000000000000000e+00 0.0000000000000000e+00 0.0000000000000000e+00  0.0000000000000000e+00 0.0000000000000000e+00 0.0000000000000000e+00  0.0000000000000000e+00 0.0000000000000000e+00 0.0000000000000000e+00  0.0000000000000000e+00 0.0000000000000000e+00 0.0000000000000000e+00  0.0000000000000000e+00 0.0000000000000000e+00 0.0000000000000000e+00  0.0000000000000000e+00 0.0000000000000000e+00 0.0000000000000000e+00  0.0000000000000000e+00 0.0000000000000000e+00 0.0000000000000000e+00  0.0000000000000000e+00 0.0000000000000000e+00 0.0000000000000000e+00  0.0000000000000000e+00 0.0000000000000000e+00 0.0000000000000000e+00  0.0000000000000000e+00 0.0000000000000000e+00 0.0000000000000000e+00  0.0000000000000000e+00 0.0000000000000000e+00 0.0000000000000000e+00  0.0000000000000000e+00 0.0000000000000000e+00 0.0000000000000000e+00  0.0000000000000000e+00 0.0000000000000000e+00 0.0000000000000000e+00  0.0000000000000000e+00 0.0000000000000000e+00 0.0000000000000000e+00  0.0000000000000000e+00 0.0000000000000000e+00 0.0000000000000000e+00  0.0000000000000000e+00 0.0000000000000000e+00 0.0000000000000000e+00  0.0000000000000000e+00 0.0000000000000000e+00 0.0000000000000000e+00  0.0000000000000000e+00 0.0000000000000000e+00 0.0000000000000000e+00  0.0000000000000000e+00 0.0000000000000000e+00 0.0000000000000000e+00  0.0000000000000000e+00 0.0000000000000000e+00 0.0000000000000000e+00  0.0000000000000000e+00 0.0000000000000000e+00 0.0000000000000000e+00  0.0000000000000000e+00 0.0000000000000000e+00 0.0000000000000000e+00  0.0000000000000000e+00 0.0000000000000000e+00 0.0000000000000000e+00  0.0000000000000000e+00 0.0000000000000000e+00 0.0000000000000000e+00  0.0000000000000000e+00 0.0000000000000000e+00 0.0000000000000000e+00  0.0000000000000000e+00 0.0000000000000000e+00 0.0000000000000000e+00  0.0000000000000000e+00 0.0000000000000000e+00 0.0000000000000000e+00  0.0000000000000000e+00 0.0000000000000000e+00 0.0000000000000000e+00  0.0000000000000000e+00 0.0000000000000000e+00 0.0000000000000000e+00  0.0000000000000000e+00 0.0000000000000000e+00 0.0000000000000000e+00  0.0000000000000000e+00 0.0000000000000000e+00 0.0000000000000000e+00  0.0000000000000000e+00 0.0000000000000000e+00 0.0000000000000000e+00  0.0000000000000000e+00 0.0000000000000000e+00 0.0000000000000000e+00  0.0000000000000000e+00 0.0000000000000000e+00 0.0000000000000000e+00  0.0000000000000000e+00 0.0000000000000000e+00 0.0000000000000000e+00  0.0000000000000000e+00 0.0000000000000000e+00 0.0000000000000000e+00  0.0000000000000000e+00 0.0000000000000000e+00 0.0000000000000000e+00  0.0000000000000000e+00 0.0000000000000000e+00 0.0000000000000000e+00  0.0000000000000000e+00 0.0000000000000000e+00 0.0000000000000000e+00  0.0000000000000000e+00 0.0000000000000000e+00 0.0000000000000000e+00  0.0000000000000000e+00 0.0000000000000000e+00 0.0000000000000000e+00  0.0000000000000000e+00 0.0000000000000000e+00 0.0000000000000000e+00  0.0000000000000000e+00 0.0000000000000000e+00 0.0000000000000000e+00  0.0000000000000000e+00 0.0000000000000000e+00 0.0000000000000000e+00  0.0000000000000000e+00 0.0000000000000000e+00 0.0000000000000000e+00  0.0000000000000000e+00 0.0000000000000000e+00 0.0000000000000000e+00  0.0000000000000000e+00 0.0000000000000000e+00 0.0000000000000000e+00  0.0000000000000000e+00 0.0000000000000000e+00 0.0000000000000000e+00  0.0000000000000000e+00 0.0000000000000000e+00 0.0000000000000000e+00  0.0000000000000000e+00 0.0000000000000000e+00 0.0000000000000000e+00  0.0000000000000000e+00 0.0000000000000000e+00 0.0000000000000000e+00  0.0000000000000000e+00 0.0000000000000000e+00 0.0000000000000000e+00  0.0000000000000000e+00 0.0000000000000000e+00 0.0000000000000000e+00  0.0000000000000000e+00 0.0000000000000000e+00 0.0000000000000000e+00  0.0000000000000000e+00 0.0000000000000000e+00 0.0000000000000000e+00  0.0000000000000000e+00 0.0000000000000000e+00 0.0000000000000000e+00  0.0000000000000000e+00 0.0000000000000000e+00 0.0000000000000000e+00  0.0000000000000000e+00 0.0000000000000000e+00 0.0000000000000000e+00  0.0000000000000000e+00 0.0000000000000000e+00 0.0000000000000000e+00  0.0000000000000000e+00 0.0000000000000000e+00 0.0000000000000000e+00  0.0000000000000000e+00 0.0000000000000000e+00 0.0000000000000000e+00  0.0000000000000000e+00 0.0000000000000000e+00 0.0000000000000000e+00  0.0000000000000000e+00 0.0000000000000000e+00 0.0000000000000000e+00  0.0000000000000000e+00 0.0000000000000000e+00 0.0000000000000000e+00  0.0000000000000000e+00 0.0000000000000000e+00 0.0000000000000000e+00  0.0000000000000000e+00 0.0000000000000000e+00 0.0000000000000000e+00  0.0000000000000000e+00 0.0000000000000000e+00 0.0000000000000000e+00  0.0000000000000000e+00 0.0000000000000000e+00 0.0000000000000000e+00  0.0000000000000000e+00 0.0000000000000000e+00 0.0000000000000000e+00  0.0000000000000000e+00 0.0000000000000000e+00 0.0000000000000000e+00  0.0000000000000000e+00 0.0000000000000000e+00 0.0000000000000000e+00  0.0000000000000000e+00 0.0000000000000000e+00 0.0000000000000000e+00  0.0000000000000000e+00 0.0000000000000000e+00 0.0000000000000000e+00  0.0000000000000000e+00 0.0000000000000000e+00 0.0000000000000000e+00  0.0000000000000000e+00 0.0000000000000000e+00 0.0000000000000000e+00  0.0000000000000000e+00 0.0000000000000000e+00 0.0000000000000000e+00  0.0000000000000000e+00 0.0000000000000000e+00 0.0000000000000000e+00  0.0000000000000000e+00 0.0000000000000000e+00 0.0000000000000000e+00  0.0000000000000000e+00 0.0000000000000000e+00 0.0000000000000000e+00  0.0000000000000000e+00 0.0000000000000000e+00 0.0000000000000000e+00  0.0000000000000000e+00 0.0000000000000000e+00 0.0000000000000000e+00  0.0000000000000000e+00 0.0000000000000000e+00 0.0000000000000000e+00  0.0000000000000000e+00 0.0000000000000000e+00 0.0000000000000000e+00  0.0000000000000000e+00 0.0000000000000000e+00 0.0000000000000000e+00  0.0000000000000000e+00 0.0000000000000000e+00 0.0000000000000000e+00  0.0000000000000000e+00 0.0000000000000000e+00 0.0000000000000000e+00  0.0000000000000000e+00 0.0000000000000000e+00 0.0000000000000000e+00  0.0000000000000000e+00 0.0000000000000000e+00 0.0000000000000000e+00  0.0000000000000000e+00 0.0000000000000000e+00 0.0000000000000000e+00  0.0000000000000000e+00 0.0000000000000000e+00 0.0000000000000000e+00  0.0000000000000000e+00 0.0000000000000000e+00 0.0000000000000000e+00  0.0000000000000000e+00 0.0000000000000000e+00 0.0000000000000000e+00  0.0000000000000000e+00 0.0000000000000000e+00 0.0000000000000000e+00  0.0000000000000000e+00 0.0000000000000000e+00 0.0000000000000000e+00  0.0000000000000000e+00 0.0000000000000000e+00 0.0000000000000000e+00  0.0000000000000000e+00 0.0000000000000000e+00 0.0000000000000000e+00  0.0000000000000000e+00 0.0000000000000000e+00 0.0000000000000000e+00  0.0000000000000000e+00 0.0000000000000000e+00 0.0000000000000000e+00  0.0000000000000000e+00 0.0000000000000000e+00 0.0000000000000000e+00  0.0000000000000000e+00 0.0000000000000000e+00 0.0000000000000000e+00  0.0000000000000000e+00 0.0000000000000000e+00 0.0000000000000000e+00  0.0000000000000000e+00 0.0000000000000000e+00 0.0000000000000000e+00  0.0000000000000000e+00 0.0000000000000000e+00 0.0000000000000000e+00  0.0000000000000000e+00 0.0000000000000000e+00 0.0000000000000000e+00  0.0000000000000000e+00 0.0000000000000000e+00 0.0000000000000000e+00  0.0000000000000000e+00 0.0000000000000000e+00 0.0000000000000000e+00  0.0000000000000000e+00 0.0000000000000000e+00 0.0000000000000000e+00  0.0000000000000000e+00 0.0000000000000000e+00 0.0000000000000000e+00  0.0000000000000000e+00 0.0000000000000000e+00 0.0000000000000000e+00  0.0000000000000000e+00 0.0000000000000000e+00 0.0000000000000000e+00  0.0000000000000000e+00 0.0000000000000000e+00 0.0000000000000000e+00  0.0000000000000000e+00 0.0000000000000000e+00 0.0000000000000000e+00  0.0000000000000000e+00 0.0000000000000000e+00 0.0000000000000000e+00  0.0000000000000000e+00 0.0000000000000000e+00 0.0000000000000000e+00  0.0000000000000000e+00 0.0000000000000000e+00 0.0000000000000000e+00  0.0000000000000000e+00 0.0000000000000000e+00 0.0000000000000000e+00  0.0000000000000000e+00 0.0000000000000000e+00 0.0000000000000000e+00  0.0000000000000000e+00 0.0000000000000000e+00 0.0000000000000000e+00  0.0000000000000000e+00 0.0000000000000000e+00 0.0000000000000000e+00  0.0000000000000000e+00 0.0000000000000000e+00 0.0000000000000000e+00  0.0000000000000000e+00 0.0000000000000000e+00 0.0000000000000000e+00  0.0000000000000000e+00 0.0000000000000000e+00 0.0000000000000000e+00  0.0000000000000000e+00 0.0000000000000000e+00 0.0000000000000000e+00  0.0000000000000000e+00 0.0000000000000000e+00 0.0000000000000000e+00  0.0000000000000000e+00 0.0000000000000000e+00 0.0000000000000000e+00  0.0000000000000000e+00 0.0000000000000000e+00 0.0000000000000000e+00  0.0000000000000000e+00 0.0000000000000000e+00 0.0000000000000000e+00  0.0000000000000000e+00 0.0000000000000000e+00 0.0000000000000000e+00  0.0000000000000000e+00 0.0000000000000000e+00 0.0000000000000000e+00  6.8627722121405108e-08 -1.9082750852927212e-06 0.0000000000000000e+00  2.0625823918783971e-07 -2.1526669891094241e-06 0.0000000000000000e+00  4.2692648918852152e-07 -2.3638433348372205e-06 0.0000000000000000e+00  6.9813623027858084e-07 -2.5922341174428753e-06 0.0000000000000000e+00  9.6208198754932337e-07 -2.8849762927978283e-06 0.0000000000000000e+00  1.2216911861434331e-06 -3.2676789718759707e-06 0.0000000000000000e+00  1.4500756540849624e-06 -3.7031583923714873e-06 0.0000000000000000e+00  1.6566702080323686e-06 -4.2129305946182025e-06 0.0000000000000000e+00  1.8642473458533505e-06 -4.7807062085406614e-06 0.0000000000000000e+00  2.0295676449641509e-06 -5.4035367269003194e-06 0.0000000000000000e+00  2.1958006345128841e-06 -6.0943847454239092e-06 0.0000000000000000e+00  2.3213315062494358e-06 -6.8318012538251936e-06 0.0000000000000000e+00  2.4402559757492479e-06 -7.6279280266638300e-06 0.0000000000000000e+00  2.5282738111770845e-06 -8.4700649405277175e-06 0.0000000000000000e+00  2.5928469780828635e-06 -9.3642535811505732e-06 0.0000000000000000e+00  2.6531844445248320e-06 -1.0306147008826776e-05 0.0000000000000000e+00  2.6749788253473982e-06 -1.1282578525401363e-05 0.0000000000000000e+00  2.6902009052463361e-06 -1.2314690984356282e-05 0.0000000000000000e+00  2.6698741898606125e-06 -1.3372978919289952e-05 0.0000000000000000e+00  2.6419899549339327e-06 -1.4481075100596195e-05 0.0000000000000000e+00  2.5826792703850432e-06 -1.5613404217161050e-05 0.0000000000000000e+00  2.5076294761786343e-06 -1.6788134955327732e-05 0.0000000000000000e+00  2.4088814264282019e-06 -1.7990550796279794e-05 0.0000000000000000e+00  2.2867929054712521e-06 -1.9223787479467247e-05 0.0000000000000000e+00  2.1552874580032653e-06 -2.0488311115744225e-05 0.0000000000000000e+00  1.9948061098061102e-06 -2.1770988649428515e-05 0.0000000000000000e+00  1.8144539158417650e-06 -2.3093640601957779e-05 0.0000000000000000e+00  1.6125318099352977e-06 -2.4425514378041443e-05 0.0000000000000000e+00  1.3906086670309225e-06 -2.5792139204961407e-05 0.0000000000000000e+00  1.1471601197854768e-06 -2.7168235786412240e-05 0.0000000000000000e+00  8.8465134385179176e-07 -2.8574042645111070e-05 0.0000000000000000e+00  5.9916536628558527e-07 -2.9986107461295563e-05 0.0000000000000000e+00  2.9625849979119578e-07 -3.1426290254818268e-05 0.0000000000000000e+00  -3.0231608780396365e-08 -3.2867106041596892e-05 0.0000000000000000e+00  -3.7757371150415017e-07 -3.4335942346235586e-05 0.0000000000000000e+00  -7.4549156377735844e-07 -3.5804002305391431e-05 0.0000000000000000e+00  -1.1328141490920568e-06 -3.7294602057444845e-05 0.0000000000000000e+00  -1.5414760756684739e-06 -3.8783047824027898e-05 0.0000000000000000e+00  -1.9707052323784551e-06 -4.0291053599451935e-05 0.0000000000000000e+00  -2.4224912425453824e-06 -4.1795467129400112e-05 0.0000000000000000e+00  -2.8962196230734217e-06 -4.3313120495626738e-05 0.0000000000000000e+00  -3.3880975022957583e-06 -4.4830583298100545e-05 0.0000000000000000e+00  -3.9044027091932106e-06 -4.6355602450684939e-05 0.0000000000000000e+00  -4.4325754825020740e-06 -4.7881374143669501e-05 0.0000000000000000e+00  -4.9847866278816139e-06 -4.9403246246608182e-05 0.0000000000000000e+00  -5.5415557372217755e-06 -5.0947210331086409e-05 0.0000000000000000e+00  -7.2379141854685268e-06 -5.2044251074140189e-05 0.0000000000000000e+00  -9.3258802199140361e-06 -5.0983564032942804e-05 0.0000000000000000e+00  -9.7236142954399094e-06 -4.8954522379599883e-05 0.0000000000000000e+00  -9.1573671611072534e-06 -4.7373740547485363e-05 0.0000000000000000e+00  -8.5953022579486233e-06 -4.5783297109196416e-05 0.0000000000000000e+00  -8.0548825964110961e-06 -4.4203593997735618e-05 0.0000000000000000e+00  -7.5269805674909340e-06 -4.2627923610282131e-05 0.0000000000000000e+00  -7.0230501526164419e-06 -4.1057876285959102e-05 0.0000000000000000e+00  -6.5322809825322924e-06 -3.9494678556958355e-05 0.0000000000000000e+00  -6.0645276799820477e-06 -3.7933018809754065e-05 0.0000000000000000e+00  -5.6116573027189322e-06 -3.6387707929630081e-05 0.0000000000000000e+00  -5.1798940226456982e-06 -3.4840579520348754e-05 0.0000000000000000e+00  -4.7625044558322119e-06 -3.3312969943969972e-05 0.0000000000000000e+00  -4.3665700718257371e-06 -3.1786486620185049e-05 0.0000000000000000e+00  -3.9836665342922522e-06 -3.0282183136549703e-05 0.0000000000000000e+00  -3.6223759086972035e-06 -2.8781533162553408e-05 0.0000000000000000e+00  -3.2729887112657613e-06 -2.7305871901589390e-05 0.0000000000000000e+00  -2.9460160189405701e-06 -2.5836548366326859e-05 0.0000000000000000e+00  -2.6298365416214267e-06 -2.4394117121763704e-05 0.0000000000000000e+00  -2.3373657559838993e-06 -2.2960867825871186e-05 0.0000000000000000e+00  -2.0544943950676683e-06 -2.1558642687936299e-05 0.0000000000000000e+00  -1.7955534516207697e-06 -2.0169026164128152e-05 0.0000000000000000e+00  -1.5445608045365932e-06 -1.8813109428662750e-05 0.0000000000000000e+00  -1.3187505456737849e-06 -1.7473430443286541e-05 0.0000000000000000e+00  -1.1030332744450909e-06 -1.6166687733734972e-05 0.0000000000000000e+00  -9.0728554868397557e-07 -1.4884881338766985e-05 0.0000000000000000e+00  -7.3228661987724843e-07 -1.3637611912374851e-05 0.0000000000000000e+00  -5.5995243859622150e-07 -1.2419596586512519e-05 0.0000000000000000e+00  -4.1289508487686805e-07 -1.1231902475733748e-05 0.0000000000000000e+00  -2.7703904245663818e-07 -1.0090327689148075e-05 0.0000000000000000e+00  -1.6154402379981315e-07 -8.9743502621470680e-06 0.0000000000000000e+00  -5.8204104703404088e-08 -7.9103327252238262e-06 0.0000000000000000e+00  2.5328728910662774e-08 -6.8748472471726513e-06 0.0000000000000000e+00  9.9700774557226793e-08 -5.8977261533945689e-06 0.0000000000000000e+00  1.5292541014716052e-07 -4.9542512993244752e-06 0.0000000000000000e+00  1.8704814675002742e-07 -4.0707566114102938e-06 0.0000000000000000e+00  2.2259429073437416e-07 -3.2272310991721908e-06 0.0000000000000000e+00  2.3237405975212035e-07 -2.4405265301099627e-06 0.0000000000000000e+00  2.3265116564706218e-07 -1.7164770712127274e-06 0.0000000000000000e+00  2.1255726107993795e-07 -1.0414579042320215e-06 0.0000000000000000e+00  1.8732977885131101e-07 -4.3842721351510937e-07 0.0000000000000000e+00  1.3803513967444316e-07 1.1317401366880150e-07 0.0000000000000000e+00  7.0419213002244103e-08 5.8886482836225575e-07 0.0000000000000000e+00  1.0639720840039775e-08 1.0071280428044131e-06 0.0000000000000000e+00  -7.7836261299924113e-08 1.3662358367590759e-06 0.0000000000000000e+00  -1.4078336639620202e-07 1.6460263428598831e-06 0.0000000000000000e+00  -1.8018944027786123e-07 1.7933447480226306e-06 0.0000000000000000e+00  -1.1726159045882666e-07 1.7565304243982426e-06 0.0000000000000000e+00  -3.5545339348110979e-07 -8.5401131188995653e-08 0.0000000000000000e+00  -7.3744647262105254e-06 -4.9175626454731198e-05 0.0000000000000000e+00  -6.2622075932934087e-06 -4.6208045087877403e-05 0.0000000000000000e+00  -4.6894220666148355e-06 -4.1368249660444690e-05 0.0000000000000000e+00  2.0829125267183192e-07 -4.3061011671394423e-07 0.0000000000000000e+00  -3.8120318717051932e-06 -3.8342294261758291e-05 0.0000000000000000e+00  5.4155468372806915e-07 -1.0262151768504651e-06 0.0000000000000000e+00  -2.9696218809460313e-06 -3.5304948623842476e-05 0.0000000000000000e+00  9.6406838415392779e-07 -2.5690297877159945e-06 0.0000000000000000e+00  1.1594109118690214e-06 -3.8698684969522116e-06 0.0000000000000000e+00  -2.2039628781094792e-06 -3.2308319246047651e-05 0.0000000000000000e+00  1.3145003012308499e-06 -8.0924220333081400e-06 0.0000000000000000e+00  -9.0038851385528383e-07 -2.6478815044200235e-05 0.0000000000000000e+00  1.2659987082739773e-06 -5.3073271033001484e-06 0.0000000000000000e+00  1.2725595678847855e-06 -1.0088913834469436e-05 0.0000000000000000e+00  -3.6137592348868857e-07 -2.3667891437798147e-05 0.0000000000000000e+00  -1.5143459064133319e-06 -2.9362544976257303e-05 0.0000000000000000e+00  1.1423295039905744e-06 -1.2264866081692688e-05 0.0000000000000000e+00  1.0273833648343039e-07 -2.0942902327596943e-05 0.0000000000000000e+00  9.2895282674600658e-07 -1.4470191334544078e-05 0.0000000000000000e+00  5.0917837805771550e-07 -1.8388432614626449e-05 0.0000000000000000e+00  7.4290727112790243e-07 -1.6320664891750662e-05 0.0000000000000000e+00  1.3222034075718563e-06 -6.6142579569206561e-06 0.0000000000000000e+00  -5.5271952794017678e-06 -4.3860540989834233e-05 0.0000000000000000e+00  7.6536103194342021e-07 -1.7231627178973963e-06 0.0000000000000000e+00  -7.5327614835483982e-06 -4.7321667194901218e-05 0.0000000000000000e+00  -1.1634921477011338e-07 5.2855343214332746e-07 0.0000000000000000e+00  -3.9713652444167643e-06 -3.6467499716648908e-05 0.0000000000000000e+00  -4.8582786208955845e-06 -3.9534956744553656e-05 0.0000000000000000e+00  5.4141647837553510e-07 -1.4210040217359237e-06 0.0000000000000000e+00  1.3240496274176335e-06 -3.7350164416856309e-06 0.0000000000000000e+00  -1.7580503560508367e-06 -2.7520005150497400e-05 0.0000000000000000e+00  -3.1594055702913335e-06 -3.3435532123291083e-05 0.0000000000000000e+00  1.7009770466970777e-06 -9.5586498215215491e-06 0.0000000000000000e+00  -1.1671215122305263e-06 -2.4657637527025113e-05 0.0000000000000000e+00  1.5235326409859139e-06 -5.1389793183786669e-06 0.0000000000000000e+00  1.6373500377360872e-06 -1.1643114543788749e-05 0.0000000000000000e+00  -6.4905345115697096e-07 -2.1874766480262233e-05 0.0000000000000000e+00  -2.4219844887415650e-06 -3.0449312448919703e-05 0.0000000000000000e+00  1.5997275555815557e-06 -1.3972001780142161e-05 0.0000000000000000e+00  -2.0293876724374238e-07 -1.9184437066838160e-05 0.0000000000000000e+00  -3.7204823195788366e-07 -4.5687683878144111e-07 0.0000000000000000e+00  -3.9581494758465575e-07 3.8567773402002051e-07 0.0000000000000000e+00  -7.3667689820699614e-06 -5.0635112078188648e-05 0.0000000000000000e+00  7.39148645