<?xml version="1.0"?>
<VTKFile type="UnstructuredGrid"  version="0.1"  >
<UnstructuredGrid>
<Piece  NumberOfPoints="1419" NumberOfCells="2698">
<Points>
<DataArray  type="Float64"  NumberOfComponents="3"  format="ascii">0 0 0  0 0.41 0  2.5 0 0  2.5 0.41 0  0.6 0.19 0  0.6 0.21 0  0.25 0.2 0  0.15 0.2 0  0.2489897948556636 0.21 0  0.2489897948556636 0.19 0  0.6 0.2 0  0 0.3807142857143437 0  0 0.3514285714286952 0  0 0.3221428571430699 0  0 0.29285714285744 0  0 0.2635714285718054 0  0 0.2342857142861561 0  0 0.2050000000005308 0  0 0.175714285714732 0  0 0.1464285714289574 0  0 0.1171428571431897 0  0 0.08785714285737878 0  0 0.05857142857161107 0  0 0.02928571428580012 0  0.03015443760436003 0 0  0.06140001986583606 0 0  0.09377624077125973 0 0  0.1273239957535082 0 0  0.1620856860351972 0 0  0.1981052433264291 0 0  0.235428184091502 0 0  0.2741016576309132 0 0  0.3141745521465447 0 0  0.3556974926295285 0 0  0.3987229542472677 0 0  0.4433053055141081 0 0  0.4895008759286886 0 0  0.5373680609405097 0 0  0.5869673343216626 0 0  0.6383613676634521 0 0  0.6916151138468254 0 0  0.7467958595648856 0 0  0.8039733463919316 0 0  0.8632198139502143 0 0  0.9246101326867038 0 0  0.9882218810934433 0 0  1.054135445558498 0 0  1.122434100542598 0 0  1.193204177141305 0 0  1.266535089879536 0 0  1.342519516046404 0 0  1.421253448503939 0 0  1.502836389106271 0 0  1.587371439758838 0 0  1.674965418777374 0 0  1.765729001825544 0 0  1.859776908880082 0 0  1.957227977487062 0 0  2.058205329869943 0 0  2.162836591189951 0 0  2.271253957290865 0 0  2.383594446803425 0 0  2.5 0.1024999999997612 0  2.5 0.2049999999994743 0  2.5 0.3074999999997183 0  2.383594446803656 0.41 0  2.271253957291315 0.41 0  2.162836591190598 0.41 0  2.058205329870775 0.41 0  1.957227977488067 0.41 0  1.859776908881246 0.41 0  1.765729001826854 0.41 0  1.674965418778818 0.41 0  1.58737143976041 0.41 0  1.502836389107956 0.41 0  1.421253448505726 0.41 0  1.342519516048286 0.41 0  1.266535089881505 0.41 0  1.193204177143353 0.41 0  1.122434100544716 0.41 0  1.05413544556068 0.41 0  0.9882218810956305 0.41 0  0.9246101326886647 0.41 0  0.8632198139519631 0.41 0  0.8039733463934788 0.41 0  0.7467958595662458 0.41 0  0.6916151138480078 0.41 0  0.6383613676644679 0.41 0  0.5869673343225223 0.41 0  0.5373680609412221 0.41 0  0.4895008759292634 0.41 0  0.4433053055145528 0.41 0  0.3987229542475914 0.41 0  0.3556974926297398 0.41 0  0.3141745521466497 0.41 0  0.2741016576310038 0.41 0  0.2354281840915826 0.41 0  0.1981052433265003 0.41 0  0.1620856860352591 0.41 0  0.1273239957535623 0.41 0  0.09377624077128965 0.41 0  0.06140001986584975 0.41 0  0.03015443760436654 0.41 0  0.2497468076502589 0.2050254481002335 0  0.2497468076502614 0.1949745518997913 0  0.2469965252529372 0.1829317073451959 0  0.2439893735792749 0.1762316384219906 0  0.2400332147834255 0.1700443375285386 0  0.2352133972704371 0.1645032867342007 0  0.2296339016332438 0.1597280261969788 0  0.2234150974217223 0.1558215752574715 0  0.2166911463437691 0.1528682099456123 0  0.2096071079204251 0.1509316448471593 0  0.2023158100364996 0.1500536585536553 0  0.194974551899914 0.1502531923497262 0  0.1877417105387872 0.1515259415822739 0  0.1807733240461124 0.153844448527136 0  0.1742197252835808 0.15715869474974 0  0.1682222986673531 0.1613971801805478 0  0.162910430003803 0.1664684656256651 0  0.1583987151779087 0.1722631454351573 0  0.1547844879126891 0.178656207771761 0  0.1521457199348551 0.1855097315605723 0  0.1505393388476355 0.1926758619366523 0  0.1505393388476328 0.2073241380633295 0  0.1521457199348437 0.2144902684393899 0  0.1547844879126531 0.221343792228163 0  0.1583987151778488 0.2277368545647528 0  0.1629104300036858 0.2335315343742052 0  0.1682222986671726 0.2386028198193036 0  0.1742197252833576 0.2428413052501257 0  0.1807733240458683 0.2461555514727623 0  0.1877417105384929 0.2484740584176516 0  0.1949745518995776 0.2497468076502398 0  0.202315810036185 0.2499463414463592 0  0.2096071079201568 0.2490683551528932 0  0.2166911463435495 0.2471317900544655 0  0.2234150974215506 0.2441784247426195 0  0.2296339016331197 0.2402719738031125 0  0.2352133972703547 0.2354967132658811 0  0.2400332147833751 0.2299556624715287 0  0.2439893735792577 0.2237683615780412 0  0.246996525252926 0.2170682926548348 0  0.25645809709277 0.21 0  0.2639263993298655 0.21 0  0.271394701566961 0.21 0  0.2788630038040554 0.21 0  0.2863313060411479 0.21 0  0.2937996082782405 0.21 0  0.301267910515333 0.21 0  0.3087362127524279 0.21 0  0.3162045149895234 0.21 0  0.3236728172265972 0.21 0  0.3311411194636928 0.21 0  0.3386094217007701 0.21 0  0.3460777239378666 0.21 0  0.3535460261749672 0.21 0  0.3610143284120516 0.21 0  0.3684826306491596 0.21 0  0.3759509328862226 0.21 0  0.383419235123329 0.21 0  0.3908875373604028 0.21 0  0.3983558395975142 0.21 0  0.4058241418345938 0.21 0  0.4132924440716992 0.21 0  0.4207607463087888 0.21 0  0.4282290485459029 0.21 0  0.4356973507830418 0.21 0  0.4431656530201649 0.21 0  0.4506339552573136 0.21 0  0.4581022574944306 0.21 0  0.4655705597315852 0.21 0  0.4730388619686996 0.21 0  0.480507164205851 0.21 0  0.4879754664429498 0.21 0  0.4954437686800938 0.21 0  0.502912070917267 0.21 0  0.5103803731544119 0.21 0  0.5178486753915261 0.21 0  0.5253169776286404 0.21 0  0.5327852798657868 0.21 0  0.5402535821029386 0.21 0  0.54772188434007 0.21 0  0.5551901865771842 0.21 0  0.5626584888143201 0.21 0  0.5701267910514778 0.21 0  0.5775950932886138 0.21 0  0.5850633955257281 0.21 0  0.5925316977628483 0.21 0  0.6 0.2050000000000054 0  0.6 0.1950000000000217 0  0.5925316977628897 0.19 0  0.5850633955257988 0.19 0  0.5775950932887378 0.19 0  0.5701267910515998 0.19 0  0.5626584888145268 0.19 0  0.5551901865773963 0.19 0  0.547721884340339 0.19 0  0.5402535821032429 0.19 0  0.5327852798661811 0.19 0  0.5253169776290537 0.19 0  0.5178486753919799 0.19 0  0.5103803731549078 0.19 0  0.502912070917822 0.19 0  0.4954437686807294 0.19 0  0.4879754664436223 0.19 0  0.4805071642065402 0.19 0  0.4730388619694271 0.19 0  0.4655705597323621 0.19 0  0.4581022574952563 0.19 0  0.4506339552581777 0.19 0  0.4431656530210671 0.19 0  0.4356973507839815 0.19 0  0.4282290485468779 0.19 0  0.4207607463097617 0.19 0  0.4132924440726327 0.19 0  0.4058241418354857 0.19 0  0.3983558395983636 0.19 0  0.3908875373612097 0.19 0  0.3834192351240934 0.19 0  0.3759509328869369 0.19 0  0.3684826306498175 0.19 0  0.361014328412667 0.19 0  0.3535460261755617 0.19 0  0.3460777239384295 0.19 0  0.3386094217012945 0.19 0  0.3311411194641595 0.19 0  0.3236728172270245 0.19 0  0.3162045149898895 0.19 0  0.3087362127527544 0.19 0  0.3012679105156187 0.19 0  0.2937996082784807 0.19 0  0.2863313060413428 0.19 0  0.2788630038042048 0.19 0  0.2713947015670686 0.19 0  0.2639263993299336 0.19 0  0.2564580970927985 0.19 0  0.2607803159922026 0.2000727136295815 0  0.5887803774232762 0.2001272386983733 0  0.5745072403740523 0.2002044435018727 0  0.5511891430099709 0.2001122610077113 0  0.2751288526855082 0.20000000000002 0  0.5365194309847112 0.1999999999999436 0  0.2894621222999649 0.1998691686390484 0  0.5215828265105155 0.1999999999999228 0  0.3127789816668748 0.1998657885438805 0  0.3274069683451451 0.2000000000000796 0  0.5066462220363641 0.199999999999908 0  0.3650630746574081 0.199866017807523 0  0.476773013087985 0.1999999999998713 0  0.3417402379596385 0.1998691686391011 0  0.3796850840047755 0.200000000000134 0  0.4618364086138087 0.1999999999998546 0  0.4917096175621762 0.1999999999998808 0  0.3946216884789568 0.2000000000001512 0  0.446899804139621 0.1999999999998389 0  0.4089549580935208 0.1998691686391595 0  0.4322718174608562 0.200127451265745 0  0.4201487168029707 0.1999966199048527 0  0.3528922713220932 0.2000185703532356 0  0.5633122436674589 0.1999814296467508 0  0.3006558810093873 0.1999966199048318 0  0.5815926498168407 0.1966545283159175 0  0.2677053789419034 0.1964246479135325 0  0.5290511287476175 0.1970915826863981 0  0.5439877332217911 0.197091582686394 0  0.2825131256993216 0.2035478995978015 0  0.3199386661080599 0.202908417313604 0  0.4842413153250809 0.1970915826863873 0  0.5141145242734466 0.1970915826863843 0  0.3722167817676917 0.2029084173136195 0  0.4693047108508938 0.1970915826863783 0  0.3348752705822316 0.202908417313609 0  0.3871533862418661 0.2029084173136212 0  0.4543681063767183 0.1970915826863795 0  0.4991779197992749 0.1970915826863902 0  0.4020059614928624 0.203547899597858 0  0.4394315019025246 0.1970915826863714 0  0.2550657455369551 0.2034088125358657 0  0.2548908499171161 0.1966940311614271 0  0.5946539510196798 0.2024302972968126 0  0.267698176732111 0.2039977513680092 0  0.4261685417851465 0.196409292431739 0  0.3590076176283495 0.196411355804271 0  0.5571672426447437 0.2036011176410121 0  0.3066757059912147 0.1964092924317024 0  0.594380730180568 0.1966558399668133 0  0.4842413153245942 0.2040749161535287 0  0.4693047108503577 0.2040749161535231 0  0.3871533862424271 0.1959250838464788 0  0.372246743208829 0.1959123236376545 0  0.5141145242731028 0.2040749161535395 0  0.4543681063761134 0.2040749161535186 0  0.4019979587101454 0.1959834479682427 0  0.4394608940728603 0.2040870543693135 0  0.5439623148931173 0.2040856076781014 0  0.5290511287473298 0.2040749161535501 0  0.4991779197988497 0.2040749161535382 0  0.3347912413592433 0.1959225448935183 0  0.3199680582793816 0.1959123018030061 0  0.2825051229162361 0.1959834479681729 0  0.3590471196690275 0.2036304442587945 0  0.5571594006495384 0.1963685282145804 0  0.3067669986803285 0.203627750582736 0  0.4262598344738712 0.2036568242185335 0  0.5814408164431408 0.2041285596160068 0  0.5688286748170428 0.1961819304477386 0  0.4145905603063645 0.2038180695522843 0  0.3473758401724931 0.2038180695522752 0  0.2950977245128307 0.2038180695522663 0  0.5688286748170693 0.203818069552238 0  0.2950977245127906 0.1961819304477774 0  0.3473758401723931 0.1961819304478349 0  0.4145905603061963 0.1961819304479011 0  0.2601812407614425 0.2056861609747042
[...]
<PointData  Vectors="f_40-1"> 
<DataArray  type="Float64"  Name="f_40-1"  NumberOfComponents="3" format="ascii">0.0000000000000000e+00 0.0000000000000000e+00 0.0000000000000000e+00  0.0000000000000000e+00 0.0000000000000000e+00 0.0000000000000000e+00  0.0000000000000000e+00 0.0000000000000000e+00 0.0000000000000000e+00  0.0000000000000000e+00 0.0000000000000000e+00 0.0000000000000000e+00  -1.0450564489425509e-05 -6.0727174587015251e-05 0.0000000000000000e+00  -5.4331987093232568e-06 -6.2996664589565215e-05 0.0000000000000000e+00  0.0000000000000000e+00 0.0000000000000000e+00 0.0000000000000000e+00  0.0000000000000000e+00 0.0000000000000000e+00 0.0000000000000000e+00  0.0000000000000000e+00 0.0000000000000000e+00 0.0000000000000000e+00  0.0000000000000000e+00 0.0000000000000000e+00 0.0000000000000000e+00  -8.1037392467293372e-06 -6.1862756196574324e-05 0.0000000000000000e+00  0.0000000000000000e+00 0.0000000000000000e+00 0.0000000000000000e+00  0.0000000000000000e+00 0.0000000000000000e+00 0.0000000000000000e+00  0.0000000000000000e+00 0.0000000000000000e+00 0.0000000000000000e+00  0.0000000000000000e+00 0.0000000000000000e+00 0.0000000000000000e+00  0.0000000000000000e+00 0.0000000000000000e+00 0.0000000000000000e+00  0.0000000000000000e+00 0.0000000000000000e+00 0.0000000000000000e+00  0.0000000000000000e+00 0.0000000000000000e+00 0.0000000000000000e+00  0.0000000000000000e+00 0.0000000000000000e+00 0.0000000000000000e+00  0.0000000000000000e+00 0.0000000000000000e+00 0.0000000000000000e+00  0.0000000000000000e+00 0.0000000000000000e+00 0.0000000000000000e+00  0.0000000000000000e+00 0.0000000000000000e+00 0.0000000000000000e+00  0.0000000000000000e+00 0.0000000000000000e+00 0.0000000000000000e+00  0.0000000000000000e+00 0.0000000000000000e+00 0.0000000000000000e+00  0.0000000000000000e+00 0.0000000000000000e+00 0.0000000000000000e+00  0.0000000000000000e+00 0.0000000000000000e+00 0.0000000000000000e+00  0.0000000000000000e+00 0.0000000000000000e+00 0.0000000000000000e+00  0.0000000000000000e+00 0.0000000000000000e+00 0.0000000000000000e+00  0.0000000000000000e+00 0.0000000000000000e+00 0.0000000000000000e+00  0.0000000000000000e+00 0.0000000000000000e+00 0.0000000000000000e+00  0.0000000000000000e+00 0.0000000000000000e+00 0.0000000000000000e+00  0.0000000000000000e+00 0.0000000000000000e+00 0.0000000000000000e+00  0.0000000000000000e+00 0.0000000000000000e+00 0.0000000000000000e+00  0.0000000000000000e+00 0.0000000000000000e+00 0.0000000000000000e+00  0.0000000000000000e+00 0.0000000000000000e+00 0.0000000000000000e+00  0.0000000000000000e+00 0.0000000000000000e+00 0.0000000000000000e+00  0.0000000000000000e+00 0.0000000000000000e+00 0.0000000000000000e+00  0.0000000000000000e+00 0.0000000000000000e+00 0.0000000000000000e+00  0.0000000000000000e+00 0.0000000000000000e+00 0.0000000000000000e+00  0.0000000000000000e+00 0.0000000000000000e+00 0.0000000000000000e+00  0.0000000000000000e+00 0.0000000000000000e+00 0.0000000000000000e+00  0.0000000000000000e+00 0.0000000000000000e+00 0.0000000000000000e+00  0.0000000000000000e+00 0.0000000000000000e+00 0.0000000000000000e+00  0.0000000000000000e+00 0.0000000000000000e+00 0.0000000000000000e+00  0.0000000000000000e+00 0.0000000000000000e+00 0.0000000000000000e+00  0.0000000000000000e+00 0.0000000000000000e+00 0.0000000000000000e+00  0.0000000000000000e+00 0.0000000000000000e+00 0.0000000000000000e+00  0.0000000000000000e+00 0.0000000000000000e+00 0.0000000000000000e+00  0.0000000000000000e+00 0.0000000000000000e+00 0.0000000000000000e+00  0.0000000000000000e+00 0.0000000000000000e+00 0.0000000000000000e+00  0.0000000000000000e+00 0.0000000000000000e+00 0.0000000000000000e+00  0.0000000000000000e+00 0.0000000000000000e+00 0.0000000000000000e+00  0.0000000000000000e+00 0.0000000000000000e+00 0.0000000000000000e+00  0.0000000000000000e+00 0.0000000000000000e+00 0.0000000000000000e+00  0.0000000000000000e+00 0.0000000000000000e+00 0.0000000000000000e+00  0.0000000000000000e+00 0.0000000000000000e+00 0.0000000000000000e+00  0.0000000000000000e+00 0.0000000000000000e+00 0.0000000000000000e+00  0.0000000000000000e+00 0.0000000000000000e+00 0.0000000000000000e+00  0.0000000000000000e+00 0.0000000000000000e+00 0.0000000000000000e+00  0.0000000000000000e+00 0.0000000000000000e+00 0.0000000000000000e+00  0.0000000000000000e+00 0.0000000000000000e+00 0.0000000000000000e+00  0.0000000000000000e+00 0.0000000000000000e+00 0.0000000000000000e+00  0.0000000000000000e+00 0.0000000000000000e+00 0.0000000000000000e+00  0.0000000000000000e+00 0.0000000000000000e+00 0.0000000000000000e+00  0.0000000000000000e+00 0.0000000000000000e+00 0.0000000000000000e+00  0.0000000000000000e+00 0.0000000000000000e+00 0.0000000000000000e+00  0.0000000000000000e+00 0.0000000000000000e+00 0.0000000000000000e+00  0.0000000000000000e+00 0.0000000000000000e+00 0.0000000000000000e+00  0.0000000000000000e+00 0.0000000000000000e+00 0.0000000000000000e+00  0.0000000000000000e+00 0.0000000000000000e+00 0.0000000000000000e+00  0.0000000000000000e+00 0.0000000000000000e+00 0.0000000000000000e+00  0.0000000000000000e+00 0.0000000000000000e+00 0.0000000000000000e+00  0.0000000000000000e+00 0.0000000000000000e+00 0.0000000000000000e+00  0.0000000000000000e+00 0.0000000000000000e+00 0.0000000000000000e+00  0.0000000000000000e+00 0.0000000000000000e+00 0.0000000000000000e+00  0.0000000000000000e+00 0.0000000000000000e+00 0.0000000000000000e+00  0.0000000000000000e+00 0.0000000000000000e+00 0.0000000000000000e+00  0.0000000000000000e+00 0.0000000000000000e+00 0.0000000000000000e+00  0.0000000000000000e+00 0.0000000000000000e+00 0.0000000000000000e+00  0.0000000000000000e+00 0.0000000000000000e+00 0.0000000000000000e+00  0.0000000000000000e+00 0.0000000000000000e+00 0.0000000000000000e+00  0.0000000000000000e+00 0.0000000000000000e+00 0.0000000000000000e+00  0.0000000000000000e+00 0.0000000000000000e+00 0.0000000000000000e+00  0.0000000000000000e+00 0.0000000000000000e+00 0.0000000000000000e+00  0.0000000000000000e+00 0.0000000000000000e+00 0.0000000000000000e+00  0.0000000000000000e+00 0.0000000000000000e+00 0.0000000000000000e+00  0.0000000000000000e+00 0.0000000000000000e+00 0.0000000000000000e+00  0.0000000000000000e+00 0.0000000000000000e+00 0.0000000000000000e+00  0.0000000000000000e+00 0.0000000000000000e+00 0.0000000000000000e+00  0.0000000000000000e+00 0.0000000000000000e+00 0.0000000000000000e+00  0.0000000000000000e+00 0.0000000000000000e+00 0.0000000000000000e+00  0.0000000000000000e+00 0.0000000000000000e+00 0.0000000000000000e+00  0.0000000000000000e+00 0.0000000000000000e+00 0.0000000000000000e+00  0.0000000000000000e+00 0.0000000000000000e+00 0.0000000000000000e+00  0.0000000000000000e+00 0.0000000000000000e+00 0.0000000000000000e+00  0.0000000000000000e+00 0.0000000000000000e+00 0.0000000000000000e+00  0.0000000000000000e+00 0.0000000000000000e+00 0.0000000000000000e+00  0.0000000000000000e+00 0.0000000000000000e+00 0.0000000000000000e+00  0.0000000000000000e+00 0.0000000000000000e+00 0.0000000000000000e+00  0.0000000000000000e+00 0.0000000000000000e+00 0.0000000000000000e+00  0.0000000000000000e+00 0.0000000000000000e+00 0.0000000000000000e+00  0.0000000000000000e+00 0.0000000000000000e+00 0.0000000000000000e+00  0.0000000000000000e+00 0.0000000000000000e+00 0.0000000000000000e+00  0.0000000000000000e+00 0.0000000000000000e+00 0.0000000000000000e+00  0.0000000000000000e+00 0.0000000000000000e+00 0.0000000000000000e+00  0.0000000000000000e+00 0.0000000000000000e+00 0.0000000000000000e+00  0.0000000000000000e+00 0.0000000000000000e+00 0.0000000000000000e+00  0.0000000000000000e+00 0.0000000000000000e+00 0.0000000000000000e+00  0.0000000000000000e+00 0.0000000000000000e+00 0.0000000000000000e+00  0.0000000000000000e+00 0.0000000000000000e+00 0.0000000000000000e+00  0.0000000000000000e+00 0.0000000000000000e+00 0.0000000000000000e+00  0.0000000000000000e+00 0.0000000000000000e+00 0.0000000000000000e+00  0.0000000000000000e+00 0.0000000000000000e+00 0.0000000000000000e+00  0.0000000000000000e+00 0.0000000000000000e+00 0.0000000000000000e+00  0.0000000000000000e+00 0.0000000000000000e+00 0.0000000000000000e+00  0.0000000000000000e+00 0.0000000000000000e+00 0.0000000000000000e+00  0.0000000000000000e+00 0.0000000000000000e+00 0.0000000000000000e+00  0.0000000000000000e+00 0.0000000000000000e+00 0.0000000000000000e+00  0.0000000000000000e+00 0.0000000000000000e+00 0.0000000000000000e+00  0.0000000000000000e+00 0.0000000000000000e+00 0.0000000000000000e+00  0.0000000000000000e+00 0.0000000000000000e+00 0.0000000000000000e+00  0.0000000000000000e+00 0.0000000000000000e+00 0.0000000000000000e+00  0.0000000000000000e+00 0.0000000000000000e+00 0.0000000000000000e+00  0.0000000000000000e+00 0.0000000000000000e+00 0.0000000000000000e+00  0.0000000000000000e+00 0.0000000000000000e+00 0.0000000000000000e+00  0.0000000000000000e+00 0.0000000000000000e+00 0.0000000000000000e+00  0.0000000000000000e+00 0.0000000000000000e+00 0.0000000000000000e+00  0.0000000000000000e+00 0.0000000000000000e+00 0.0000000000000000e+00  0.0000000000000000e+00 0.0000000000000000e+00 0.0000000000000000e+00  0.0000000000000000e+00 0.0000000000000000e+00 0.0000000000000000e+00  0.0000000000000000e+00 0.0000000000000000e+00 0.0000000000000000e+00  0.0000000000000000e+00 0.0000000000000000e+00 0.0000000000000000e+00  0.0000000000000000e+00 0.0000000000000000e+00 0.0000000000000000e+00  0.0000000000000000e+00 0.0000000000000000e+00 0.0000000000000000e+00  0.0000000000000000e+00 0.0000000000000000e+00 0.0000000000000000e+00  0.0000000000000000e+00 0.0000000000000000e+00 0.0000000000000000e+00  0.0000000000000000e+00 0.0000000000000000e+00 0.0000000000000000e+00  0.0000000000000000e+00 0.0000000000000000e+00 0.0000000000000000e+00  0.0000000000000000e+00 0.0000000000000000e+00 0.0000000000000000e+00  0.0000000000000000e+00 0.0000000000000000e+00 0.0000000000000000e+00  0.0000000000000000e+00 0.0000000000000000e+00 0.0000000000000000e+00  0.0000000000000000e+00 0.0000000000000000e+00 0.0000000000000000e+00  0.0000000000000000e+00 0.0000000000000000e+00 0.0000000000000000e+00  1.0637599617089058e-07 -2.0502880076327932e-06 0.0000000000000000e+00  2.8947672759382505e-07 -2.3269481111428286e-06 0.0000000000000000e+00  5.6052673928185570e-07 -2.5782657893098534e-06 0.0000000000000000e+00  8.8715243033490484e-07 -2.8585673597032600e-06 0.0000000000000000e+00  1.2036597683378314e-06 -3.2167064034655696e-06 0.0000000000000000e+00  1.5173993758733486e-06 -3.6809883002684136e-06 0.0000000000000000e+00  1.7948752076904108e-06 -4.2091143083531406e-06 0.0000000000000000e+00  2.0485393224273358e-06 -4.8266253007821836e-06 0.0000000000000000e+00  2.3048190084711149e-06 -5.5138455904724674e-06 0.0000000000000000e+00  2.5124440233060436e-06 -6.2678239756968809e-06 0.0000000000000000e+00  2.7230354475590570e-06 -7.1027248858917302e-06 0.0000000000000000e+00  2.8866725048232288e-06 -7.9945746227699649e-06 0.0000000000000000e+00  3.0445978845998526e-06 -8.9565805285466603e-06 0.0000000000000000e+00  3.1669288452821501e-06 -9.9736498765665361e-06 0.0000000000000000e+00  3.2635785244737959e-06 -1.1053625312859587e-05 0.0000000000000000e+00  3.3565913257124042e-06 -1.2190218695584850e-05 0.0000000000000000e+00  3.4056725940897891e-06 -1.3369301932419300e-05 0.0000000000000000e+00  3.4488733246510574e-06 -1.4613771465717454e-05 0.0000000000000000e+00  3.4514850756875939e-06 -1.5890998998504361e-05 0.0000000000000000e+00  3.4469083051176892e-06 -1.7226481358617151e-05 0.0000000000000000e+00  3.4067868178361304e-06 -1.8592266338225530e-05 0.0000000000000000e+00  3.3501353776028988e-06 -2.0008063638193025e-05 0.0000000000000000e+00  3.2665174164501290e-06 -2.1456786326131523e-05 0.0000000000000000e+00  3.1574022629687672e-06 -2.2942792996651497e-05 0.0000000000000000e+00  3.0384637106446633e-06 -2.4465269972764529e-05 0.0000000000000000e+00  2.8871784930014525e-06 -2.6010568159761463e-05 0.0000000000000000e+00  2.7143177674564946e-06 -2.7601901549149102e-05 0.0000000000000000e+00  2.5174962421235793e-06 -2.9205533163220186e-05 0.0000000000000000e+00  2.2989134642257943e-06 -3.0849250867895687e-05 0.0000000000000000e+00  2.0564716973725736e-06 -3.2505072036253293e-05 0.0000000000000000e+00  1.7932395518729317e-06 -3.4195130943719769e-05 0.0000000000000000e+00  1.5046696596076597e-06 -3.5893403629385622e-05 0.0000000000000000e+00  1.1970363027128266e-06 -3.7623746552258166e-05 0.0000000000000000e+00  8.6343233767173085e-07 -3.9355950331221274e-05 0.0000000000000000e+00  5.0709313557193111e-07 -4.1119789685441642e-05 0.0000000000000000e+00  1.2807604228380981e-07 -4.2883562975887258e-05 0.0000000000000000e+00  -2.7214972437760683e-07 -4.4672698989430751e-05 0.0000000000000000e+00  -6.9582191862955191e-07 -4.6459990634578427e-05 0.0000000000000000e+00  -1.1419407449763813e-06 -4.8269173606377505e-05 0.0000000000000000e+00  -1.6127802776329392e-06 -5.0074723340819461e-05 0.0000000000000000e+00  -2.1075886031769128e-06 -5.1895067459145234e-05 0.0000000000000000e+00  -2.6223284003013273e-06 -5.3715330725987297e-05 0.0000000000000000e+00  -3.1637007595412199e-06 -5.5544003132583408e-05 0.0000000000000000e+00  -3.7180730111176661e-06 -5.7373562411330500e-05 0.0000000000000000e+00  -4.2988300857347096e-06 -5.9198758232497511e-05 0.0000000000000000e+00  -4.8847999756747869e-06 -6.1047824137914854e-05 0.0000000000000000e+00  -6.8248966643701028e-06 -6.2425027472498586e-05 0.0000000000000000e+00  -9.3236324810954771e-06 -6.1300920320510893e-05 0.0000000000000000e+00  -9.8887869768545354e-06 -5.8937823451101551e-05 0.0000000000000000e+00  -9.2923947784247807e-06 -5.7048272807283789e-05 0.0000000000000000e+00  -8.7007685450292729e-06 -5.5148270531375481e-05 0.0000000000000000e+00  -8.1327681371661661e-06 -5.3260196808316255e-05 0.0000000000000000e+00  -7.5784037043017809e-06 -5.1376607643040652e-05 0.0000000000000000e+00  -7.0500226030517819e-06 -4.9499334454882194e-05 0.0000000000000000e+00  -6.5358373584112577e-06 -4.7629764995305317e-05 0.0000000000000000e+00  -6.0467017965857066e-06 -4.5762128029834550e-05 0.0000000000000000e+00  -5.5734896366759926e-06 -4.3912766062309510e-05 0.0000000000000000e+00  -5.1232728983824340e-06 -4.2061899000433120e-05 0.0000000000000000e+00  -4.6882638794495022e-06 -4.0232907635800452e-05 0.0000000000000000e+00  -4.2766816154235198e-06 -3.8405830406764940e-05 0.0000000000000000e+00  -3.8787481291254882e-06 -3.6603826921384396e-05 0.0000000000000000e+00  -3.5044630365990478e-06 -3.4806851703930925e-05 0.0000000000000000e+00  -3.1424568325825720e-06 -3.3038313874626503e-05 0.0000000000000000e+00  -2.8050699088459756e-06 -3.1278060323741514e-05 0.0000000000000000e+00  -2.4785792947293101e-06 -2.9548637824497197e-05 0.0000000000000000e+00  -2.1782237025553580e-06 -2.7830913587584689e-05 0.0000000000000000e+00  -1.8873583763512143e-06 -2.6148904939898547e-05 0.0000000000000000e+00  -1.6229801346383466e-06 -2.4482779398814860e-05 0.0000000000000000e+00  -1.3661009442374068e-06 -2.2855689933098192e-05 0.0000000000000000e+00  -1.1372109746095606e-06 -2.1248833079636373e-05 0.0000000000000000e+00  -9.1806832659786214e-07 -1.9680629021919812e-05 0.0000000000000000e+00  -7.2117038274876368e-07 -1.8142188683991266e-05 0.0000000000000000e+00  -5.4652819713675515e-07 -1.6645064106587976e-05 0.0000000000000000e+00  -3.7372047914596827e-07 -1.5182461535423066e-05 0.0000000000000000e+00  -2.2869265748261848e-07 -1.3756917614573513e-05 0.0000000000000000e+00  -9.5069494699497127e-08 -1.2385182248070809e-05 0.0000000000000000e+00  1.6314363247960590e-08 -1.1045610829924317e-05 0.0000000000000000e+00  1.1525369401323348e-07 -9.7667421171919049e-06 0.0000000000000000e+00  1.9252658039133359e-07 -8.5235207424697254e-06 0.0000000000000000e+00  2.6117387297598621e-07 -7.3492159247608156e-06 0.0000000000000000e+00  3.0589866671966041e-07 -6.2158693602127720e-06 0.0000000000000000e+00  3.3018233169899233e-07 -5.1541698968754913e-06 0.0000000000000000e+00  3.5767241751189206e-07 -4.1405414274941269e-06 0.0000000000000000e+00  3.5658257883796743e-07 -3.1954563935666767e-06 0.0000000000000000e+00  3.4614787664932459e-07 -2.3247060945596137e-06 0.0000000000000000e+00  3.1322796774541244e-07 -1.5138620197368420e-06 0.0000000000000000e+00  2.7642656127055330e-07 -7.8904714942729807e-07 0.0000000000000000e+00  2.1209701963107193e-07 -1.2624769341992961e-07 0.0000000000000000e+00  1.2816962001402058e-07 4.4510198179011585e-07 0.0000000000000000e+00  5.5009031687657775e-08 9.4759843182487230e-07 0.0000000000000000e+00  -5.0079572758655215e-08 1.3765121372973989e-06 0.0000000000000000e+00  -1.2586151393427271e-07 1.7106725563951103e-06 0.0000000000000000e+00  -1.7778590651045440e-07 1.8930563190713894e-06 0.0000000000000000e+00  -1.1754336862722444e-07 1.8685156370278181e-06 0.0000000000000000e+00  -3.4735774629669037e-07 -1.0135156476589248e-07 0.0000000000000000e+00  -7.1134110708453102e-06 -5.9063867533773741e-05 0.0000000000000000e+00  -5.9397025451542391e-06 -5.5510959095400615e-05 0.0000000000000000e+00  -4.2935692585009869e-06 -4.9716947063431106e-05 0.0000000000000000e+00  2.9796921725279389e-07 -5.2054881865779148e-07 0.0000000000000000e+00  -3.3812396809835639e-06 -4.6093668559750205e-05 0.0000000000000000e+00  6.9666687251618086e-07 -1.2435807770969400e-06 0.0000000000000000e+00  -2.5051133507059493e-06 -4.2453405715250500e-05 0.0000000000000000e+00  1.2173230212847826e-06 -3.1048898913796922e-06 0.0000000000000000e+00  1.4697996792262130e-06 -4.6699476995307528e-06 0.0000000000000000e+00  -1.7124376925985480e-06 -3.8860114040746251e-05 0.0000000000000000e+00  1.7360626638742299e-06 -9.7603688949561162e-06 0.0000000000000000e+00  -3.7460526641782587e-07 -3.1864726695519520e-05 0.0000000000000000e+00  1.6220363846051527e-06 -6.4056690994665840e-06 0.0000000000000000e+00  1.7310842900212610e-06 -1.2161007742709845e-05 0.0000000000000000e+00  1.7178272969473851e-07 -2.8489207004698066e-05 0.0000000000000000e+00  -1.0024158755641212e-06 -3.5326059584267499e-05 0.0000000000000000e+00  1.6289289638140109e-06 -1.4779986265594164e-05 0.0000000000000000e+00  6.3678281939441689e-07 -2.5215390647126272e-05 0.0000000000000000e+00  1.4323877415977744e-06 -1.7436202473152445e-05 0.0000000000000000e+00  1.0425175414706174e-06 -2.2142579126047620e-05 0.0000000000000000e+00  1.2619688171032046e-06 -1.9658965594120832e-05 0.0000000000000000e+00  1.7144853942995869e-06 -7.9764879218629990e-06 0.0000000000000000e+00  -5.1753290447837657e-06 -5.2703594161266723e-05 0.0000000000000000e+00  9.7026079660074450e-07 -2.0811764226886965e-06 0.0000000000000000e+00  -7.3835736389120988e-06 -5.6893615740467198e-05 0.0000000000000000e+00  -8.3359693838386565e-08 5.3458490554799719e-07 0.0000000000000000e+00  -3.6400001762595335e-06 -4.3894450599586307e-05 0.0000000000000000e+00  -4.5648896704572353e-06 -4.7568342130779039e-05 0.0000000000000000e+00  6.9740110217346945e-07 -1.6210684526169622e-06 0.0000000000000000e+00  1.6587837730551812e-06 -4.4339156874416674e-06 0.0000000000000000e+00  -1.3504923177613547e-06 -3.3167761162026586e-05 0.0000000000000000e+00  -2.7964141317329234e-06 -4.0261363525610513e-05 0.0000000000000000e+00  2.2227281790077514e-06 -1.1455622624077830e-05 0.0000000000000000e+00  -7.4636401408802787e-07 -2.9732926227409599e-05 0.0000000000000000e+00  1.9201725242961296e-06 -6.1278378308714311e-06 0.0000000000000000e+00  2.1964386909415570e-06 -1.3966450591727944e-05 0.0000000000000000e+00  -2.2110939923520198e-07 -2.6391962275377265e-05 0.0000000000000000e+00  -2.0336474387768675e-06 -3.6681309756224905e-05 0.0000000000000000e+00  2.2093146662021069e-06 -1.6756552975859364e-05 0.0000000000000000e+00  2.2625062825072480e-07 -2.3160720805619014e-05 0.0000000000000000e+00  -3.7998990488026356e-07 -4.9072270826648421e-07 0.0000000000000000e+00  -4.1014555721467429e-07 4.1092134197500435e-07 0.0000000000000000e+00  -7.0373316857875865e-06 -6.0778312477944920e-05 0.0000000000000000e+00  1.45561728663833