<?xml version="1.0"?>
<VTKFile type="UnstructuredGrid"  version="0.1"  >
<UnstructuredGrid>
<Piece  NumberOfPoints="1419" NumberOfCells="2698">
<Points>
<DataArray  type="Float64"  NumberOfComponents="3"  format="ascii">0 0 0  0 0.41 0  2.5 0 0  2.5 0.41 0  0.6 0.19 0  0.6 0.21 0  0.25 0.2 0  0.15 0.2 0  0.2489897948556636 0.21 0  0.2489897948556636 0.19 0  0.6 0.2 0  0 0.3807142857143437 0  0 0.3514285714286952 0  0 0.3221428571430699 0  0 0.29285714285744 0  0 0.2635714285718054 0  0 0.2342857142861561 0  0 0.2050000000005308 0  0 0.175714285714732 0  0 0.1464285714289574 0  0 0.1171428571431897 0  0 0.08785714285737878 0  0 0.05857142857161107 0  0 0.02928571428580012 0  0.03015443760436003 0 0  0.06140001986583606 0 0  0.09377624077125973 0 0  0.1273239957535082 0 0  0.1620856860351972 0 0  0.1981052433264291 0 0  0.235428184091502 0 0  0.2741016576309132 0 0  0.3141745521465447 0 0  0.3556974926295285 0 0  0.3987229542472677 0 0  0.4433053055141081 0 0  0.4895008759286886 0 0  0.5373680609405097 0 0  0.5869673343216626 0 0  0.6383613676634521 0 0  0.6916151138468254 0 0  0.7467958595648856 0 0  0.8039733463919316 0 0  0.8632198139502143 0 0  0.9246101326867038 0 0  0.9882218810934433 0 0  1.054135445558498 0 0  1.122434100542598 0 0  1.193204177141305 0 0  1.266535089879536 0 0  1.342519516046404 0 0  1.421253448503939 0 0  1.502836389106271 0 0  1.587371439758838 0 0  1.674965418777374 0 0  1.765729001825544 0 0  1.859776908880082 0 0  1.957227977487062 0 0  2.058205329869943 0 0  2.162836591189951 0 0  2.271253957290865 0 0  2.383594446803425 0 0  2.5 0.1024999999997612 0  2.5 0.2049999999994743 0  2.5 0.3074999999997183 0  2.383594446803656 0.41 0  2.271253957291315 0.41 0  2.162836591190598 0.41 0  2.058205329870775 0.41 0  1.957227977488067 0.41 0  1.859776908881246 0.41 0  1.765729001826854 0.41 0  1.674965418778818 0.41 0  1.58737143976041 0.41 0  1.502836389107956 0.41 0  1.421253448505726 0.41 0  1.342519516048286 0.41 0  1.266535089881505 0.41 0  1.193204177143353 0.41 0  1.122434100544716 0.41 0  1.05413544556068 0.41 0  0.9882218810956305 0.41 0  0.9246101326886647 0.41 0  0.8632198139519631 0.41 0  0.8039733463934788 0.41 0  0.7467958595662458 0.41 0  0.6916151138480078 0.41 0  0.6383613676644679 0.41 0  0.5869673343225223 0.41 0  0.5373680609412221 0.41 0  0.4895008759292634 0.41 0  0.4433053055145528 0.41 0  0.3987229542475914 0.41 0  0.3556974926297398 0.41 0  0.3141745521466497 0.41 0  0.2741016576310038 0.41 0  0.2354281840915826 0.41 0  0.1981052433265003 0.41 0  0.1620856860352591 0.41 0  0.1273239957535623 0.41 0  0.09377624077128965 0.41 0  0.06140001986584975 0.41 0  0.03015443760436654 0.41 0  0.2497468076502589 0.2050254481002335 0  0.2497468076502614 0.1949745518997913 0  0.2469965252529372 0.1829317073451959 0  0.2439893735792749 0.1762316384219906 0  0.2400332147834255 0.1700443375285386 0  0.2352133972704371 0.1645032867342007 0  0.2296339016332438 0.1597280261969788 0  0.2234150974217223 0.1558215752574715 0  0.2166911463437691 0.1528682099456123 0  0.2096071079204251 0.1509316448471593 0  0.2023158100364996 0.1500536585536553 0  0.194974551899914 0.1502531923497262 0  0.1877417105387872 0.1515259415822739 0  0.1807733240461124 0.153844448527136 0  0.1742197252835808 0.15715869474974 0  0.1682222986673531 0.1613971801805478 0  0.162910430003803 0.1664684656256651 0  0.1583987151779087 0.1722631454351573 0  0.1547844879126891 0.178656207771761 0  0.1521457199348551 0.1855097315605723 0  0.1505393388476355 0.1926758619366523 0  0.1505393388476328 0.2073241380633295 0  0.1521457199348437 0.2144902684393899 0  0.1547844879126531 0.221343792228163 0  0.1583987151778488 0.2277368545647528 0  0.1629104300036858 0.2335315343742052 0  0.1682222986671726 0.2386028198193036 0  0.1742197252833576 0.2428413052501257 0  0.1807733240458683 0.2461555514727623 0  0.1877417105384929 0.2484740584176516 0  0.1949745518995776 0.2497468076502398 0  0.202315810036185 0.2499463414463592 0  0.2096071079201568 0.2490683551528932 0  0.2166911463435495 0.2471317900544655 0  0.2234150974215506 0.2441784247426195 0  0.2296339016331197 0.2402719738031125 0  0.2352133972703547 0.2354967132658811 0  0.2400332147833751 0.2299556624715287 0  0.2439893735792577 0.2237683615780412 0  0.246996525252926 0.2170682926548348 0  0.25645809709277 0.21 0  0.2639263993298655 0.21 0  0.271394701566961 0.21 0  0.2788630038040554 0.21 0  0.2863313060411479 0.21 0  0.2937996082782405 0.21 0  0.301267910515333 0.21 0  0.3087362127524279 0.21 0  0.3162045149895234 0.21 0  0.3236728172265972 0.21 0  0.3311411194636928 0.21 0  0.3386094217007701 0.21 0  0.3460777239378666 0.21 0  0.3535460261749672 0.21 0  0.3610143284120516 0.21 0  0.3684826306491596 0.21 0  0.3759509328862226 0.21 0  0.383419235123329 0.21 0  0.3908875373604028 0.21 0  0.3983558395975142 0.21 0  0.4058241418345938 0.21 0  0.4132924440716992 0.21 0  0.4207607463087888 0.21 0  0.4282290485459029 0.21 0  0.4356973507830418 0.21 0  0.4431656530201649 0.21 0  0.4506339552573136 0.21 0  0.4581022574944306 0.21 0  0.4655705597315852 0.21 0  0.4730388619686996 0.21 0  0.480507164205851 0.21 0  0.4879754664429498 0.21 0  0.4954437686800938 0.21 0  0.502912070917267 0.21 0  0.5103803731544119 0.21 0  0.5178486753915261 0.21 0  0.5253169776286404 0.21 0  0.5327852798657868 0.21 0  0.5402535821029386 0.21 0  0.54772188434007 0.21 0  0.5551901865771842 0.21 0  0.5626584888143201 0.21 0  0.5701267910514778 0.21 0  0.5775950932886138 0.21 0  0.5850633955257281 0.21 0  0.5925316977628483 0.21 0  0.6 0.2050000000000054 0  0.6 0.1950000000000217 0  0.5925316977628897 0.19 0  0.5850633955257988 0.19 0  0.5775950932887378 0.19 0  0.5701267910515998 0.19 0  0.5626584888145268 0.19 0  0.5551901865773963 0.19 0  0.547721884340339 0.19 0  0.5402535821032429 0.19 0  0.5327852798661811 0.19 0  0.5253169776290537 0.19 0  0.5178486753919799 0.19 0  0.5103803731549078 0.19 0  0.502912070917822 0.19 0  0.4954437686807294 0.19 0  0.4879754664436223 0.19 0  0.4805071642065402 0.19 0  0.4730388619694271 0.19 0  0.4655705597323621 0.19 0  0.4581022574952563 0.19 0  0.4506339552581777 0.19 0  0.4431656530210671 0.19 0  0.4356973507839815 0.19 0  0.4282290485468779 0.19 0  0.4207607463097617 0.19 0  0.4132924440726327 0.19 0  0.4058241418354857 0.19 0  0.3983558395983636 0.19 0  0.3908875373612097 0.19 0  0.3834192351240934 0.19 0  0.3759509328869369 0.19 0  0.3684826306498175 0.19 0  0.361014328412667 0.19 0  0.3535460261755617 0.19 0  0.3460777239384295 0.19 0  0.3386094217012945 0.19 0  0.3311411194641595 0.19 0  0.3236728172270245 0.19 0  0.3162045149898895 0.19 0  0.3087362127527544 0.19 0  0.3012679105156187 0.19 0  0.2937996082784807 0.19 0  0.2863313060413428 0.19 0  0.2788630038042048 0.19 0  0.2713947015670686 0.19 0  0.2639263993299336 0.19 0  0.2564580970927985 0.19 0  0.2607803159922026 0.2000727136295815 0  0.5887803774232762 0.2001272386983733 0  0.5745072403740523 0.2002044435018727 0  0.5511891430099709 0.2001122610077113 0  0.2751288526855082 0.20000000000002 0  0.5365194309847112 0.1999999999999436 0  0.2894621222999649 0.1998691686390484 0  0.5215828265105155 0.1999999999999228 0  0.3127789816668748 0.1998657885438805 0  0.3274069683451451 0.2000000000000796 0  0.5066462220363641 0.199999999999908 0  0.3650630746574081 0.199866017807523 0  0.476773013087985 0.1999999999998713 0  0.3417402379596385 0.1998691686391011 0  0.3796850840047755 0.200000000000134 0  0.4618364086138087 0.1999999999998546 0  0.4917096175621762 0.1999999999998808 0  0.3946216884789568 0.2000000000001512 0  0.446899804139621 0.1999999999998389 0  0.4089549580935208 0.1998691686391595 0  0.4322718174608562 0.200127451265745 0  0.4201487168029707 0.1999966199048527 0  0.3528922713220932 0.2000185703532356 0  0.5633122436674589 0.1999814296467508 0  0.3006558810093873 0.1999966199048318 0  0.5815926498168407 0.1966545283159175 0  0.2677053789419034 0.1964246479135325 0  0.5290511287476175 0.1970915826863981 0  0.5439877332217911 0.197091582686394 0  0.2825131256993216 0.2035478995978015 0  0.3199386661080599 0.202908417313604 0  0.4842413153250809 0.1970915826863873 0  0.5141145242734466 0.1970915826863843 0  0.3722167817676917 0.2029084173136195 0  0.4693047108508938 0.1970915826863783 0  0.3348752705822316 0.202908417313609 0  0.3871533862418661 0.2029084173136212 0  0.4543681063767183 0.1970915826863795 0  0.4991779197992749 0.1970915826863902 0  0.4020059614928624 0.203547899597858 0  0.4394315019025246 0.1970915826863714 0  0.2550657455369551 0.2034088125358657 0  0.2548908499171161 0.1966940311614271 0  0.5946539510196798 0.2024302972968126 0  0.267698176732111 0.2039977513680092 0  0.4261685417851465 0.196409292431739 0  0.3590076176283495 0.196411355804271 0  0.5571672426447437 0.2036011176410121 0  0.3066757059912147 0.1964092924317024 0  0.594380730180568 0.1966558399668133 0  0.4842413153245942 0.2040749161535287 0  0.4693047108503577 0.2040749161535231 0  0.3871533862424271 0.1959250838464788 0  0.372246743208829 0.1959123236376545 0  0.5141145242731028 0.2040749161535395 0  0.4543681063761134 0.2040749161535186 0  0.4019979587101454 0.1959834479682427 0  0.4394608940728603 0.2040870543693135 0  0.5439623148931173 0.2040856076781014 0  0.5290511287473298 0.2040749161535501 0  0.4991779197988497 0.2040749161535382 0  0.3347912413592433 0.1959225448935183 0  0.3199680582793816 0.1959123018030061 0  0.2825051229162361 0.1959834479681729 0  0.3590471196690275 0.2036304442587945 0  0.5571594006495384 0.1963685282145804 0  0.3067669986803285 0.203627750582736 0  0.4262598344738712 0.2036568242185335 0  0.5814408164431408 0.2041285596160068 0  0.5688286748170428 0.1961819304477386 0  0.4145905603063645 0.2038180695522843 0  0.3473758401724931 0.2038180695522752 0  0.2950977245128307 0.2038180695522663 0  0.5688286748170693 0.203818069552238 0  0.2950977245127906 0.1961819304477774 0  0.3473758401723931 0.1961819304478349 0  0.4145905603061963 0.1961819304479011 0  0.2601812407614425 0.2056861609747042
[...]
<PointData  Vectors="f_40-1"> 
<DataArray  type="Float64"  Name="f_40-1"  NumberOfComponents="3" format="ascii">0.0000000000000000e+00 0.0000000000000000e+00 0.0000000000000000e+00  0.0000000000000000e+00 0.0000000000000000e+00 0.0000000000000000e+00  0.0000000000000000e+00 0.0000000000000000e+00 0.0000000000000000e+00  0.0000000000000000e+00 0.0000000000000000e+00 0.0000000000000000e+00  -9.9390959520513471e-06 -3.8026399676647740e-05 0.0000000000000000e+00  -6.7455966458601652e-06 -3.9983025975903022e-05 0.0000000000000000e+00  0.0000000000000000e+00 0.0000000000000000e+00 0.0000000000000000e+00  0.0000000000000000e+00 0.0000000000000000e+00 0.0000000000000000e+00  0.0000000000000000e+00 0.0000000000000000e+00 0.0000000000000000e+00  0.0000000000000000e+00 0.0000000000000000e+00 0.0000000000000000e+00  -8.4713307078685868e-06 -3.9005534319949183e-05 0.0000000000000000e+00  0.0000000000000000e+00 0.0000000000000000e+00 0.0000000000000000e+00  0.0000000000000000e+00 0.0000000000000000e+00 0.0000000000000000e+00  0.0000000000000000e+00 0.0000000000000000e+00 0.0000000000000000e+00  0.0000000000000000e+00 0.0000000000000000e+00 0.0000000000000000e+00  0.0000000000000000e+00 0.0000000000000000e+00 0.0000000000000000e+00  0.0000000000000000e+00 0.0000000000000000e+00 0.0000000000000000e+00  0.0000000000000000e+00 0.0000000000000000e+00 0.0000000000000000e+00  0.0000000000000000e+00 0.0000000000000000e+00 0.0000000000000000e+00  0.0000000000000000e+00 0.0000000000000000e+00 0.0000000000000000e+00  0.0000000000000000e+00 0.0000000000000000e+00 0.0000000000000000e+00  0.0000000000000000e+00 0.0000000000000000e+00 0.0000000000000000e+00  0.0000000000000000e+00 0.0000000000000000e+00 0.0000000000000000e+00  0.0000000000000000e+00 0.0000000000000000e+00 0.0000000000000000e+00  0.0000000000000000e+00 0.0000000000000000e+00 0.0000000000000000e+00  0.0000000000000000e+00 0.0000000000000000e+00 0.0000000000000000e+00  0.0000000000000000e+00 0.0000000000000000e+00 0.0000000000000000e+00  0.0000000000000000e+00 0.0000000000000000e+00 0.0000000000000000e+00  0.0000000000000000e+00 0.0000000000000000e+00 0.0000000000000000e+00  0.0000000000000000e+00 0.0000000000000000e+00 0.0000000000000000e+00  0.0000000000000000e+00 0.0000000000000000e+00 0.0000000000000000e+00  0.0000000000000000e+00 0.0000000000000000e+00 0.0000000000000000e+00  0.0000000000000000e+00 0.0000000000000000e+00 0.0000000000000000e+00  0.0000000000000000e+00 0.0000000000000000e+00 0.0000000000000000e+00  0.0000000000000000e+00 0.0000000000000000e+00 0.0000000000000000e+00  0.0000000000000000e+00 0.0000000000000000e+00 0.0000000000000000e+00  0.0000000000000000e+00 0.0000000000000000e+00 0.0000000000000000e+00  0.0000000000000000e+00 0.0000000000000000e+00 0.0000000000000000e+00  0.0000000000000000e+00 0.0000000000000000e+00 0.0000000000000000e+00  0.0000000000000000e+00 0.0000000000000000e+00 0.0000000000000000e+00  0.0000000000000000e+00 0.0000000000000000e+00 0.0000000000000000e+00  0.0000000000000000e+00 0.0000000000000000e+00 0.0000000000000000e+00  0.0000000000000000e+00 0.0000000000000000e+00 0.0000000000000000e+00  0.0000000000000000e+00 0.0000000000000000e+00 0.0000000000000000e+00  0.0000000000000000e+00 0.0000000000000000e+00 0.0000000000000000e+00  0.0000000000000000e+00 0.0000000000000000e+00 0.0000000000000000e+00  0.0000000000000000e+00 0.0000000000000000e+00 0.0000000000000000e+00  0.0000000000000000e+00 0.0000000000000000e+00 0.0000000000000000e+00  0.0000000000000000e+00 0.0000000000000000e+00 0.0000000000000000e+00  0.0000000000000000e+00 0.0000000000000000e+00 0.0000000000000000e+00  0.0000000000000000e+00 0.0000000000000000e+00 0.0000000000000000e+00  0.0000000000000000e+00 0.0000000000000000e+00 0.0000000000000000e+00  0.0000000000000000e+00 0.0000000000000000e+00 0.0000000000000000e+00  0.0000000000000000e+00 0.0000000000000000e+00 0.0000000000000000e+00  0.0000000000000000e+00 0.0000000000000000e+00 0.0000000000000000e+00  0.0000000000000000e+00 0.0000000000000000e+00 0.0000000000000000e+00  0.0000000000000000e+00 0.0000000000000000e+00 0.0000000000000000e+00  0.0000000000000000e+00 0.0000000000000000e+00 0.0000000000000000e+00  0.0000000000000000e+00 0.0000000000000000e+00 0.0000000000000000e+00  0.0000000000000000e+00 0.0000000000000000e+00 0.0000000000000000e+00  0.0000000000000000e+00 0.0000000000000000e+00 0.0000000000000000e+00  0.0000000000000000e+00 0.0000000000000000e+00 0.0000000000000000e+00  0.0000000000000000e+00 0.0000000000000000e+00 0.0000000000000000e+00  0.0000000000000000e+00 0.0000000000000000e+00 0.0000000000000000e+00  0.0000000000000000e+00 0.0000000000000000e+00 0.0000000000000000e+00  0.0000000000000000e+00 0.0000000000000000e+00 0.0000000000000000e+00  0.0000000000000000e+00 0.0000000000000000e+00 0.0000000000000000e+00  0.0000000000000000e+00 0.0000000000000000e+00 0.0000000000000000e+00  0.0000000000000000e+00 0.0000000000000000e+00 0.0000000000000000e+00  0.0000000000000000e+00 0.0000000000000000e+00 0.0000000000000000e+00  0.0000000000000000e+00 0.0000000000000000e+00 0.0000000000000000e+00  0.0000000000000000e+00 0.0000000000000000e+00 0.0000000000000000e+00  0.0000000000000000e+00 0.0000000000000000e+00 0.0000000000000000e+00  0.0000000000000000e+00 0.0000000000000000e+00 0.0000000000000000e+00  0.0000000000000000e+00 0.0000000000000000e+00 0.0000000000000000e+00  0.0000000000000000e+00 0.0000000000000000e+00 0.0000000000000000e+00  0.0000000000000000e+00 0.0000000000000000e+00 0.0000000000000000e+00  0.0000000000000000e+00 0.0000000000000000e+00 0.0000000000000000e+00  0.0000000000000000e+00 0.0000000000000000e+00 0.0000000000000000e+00  0.0000000000000000e+00 0.0000000000000000e+00 0.0000000000000000e+00  0.0000000000000000e+00 0.0000000000000000e+00 0.0000000000000000e+00  0.0000000000000000e+00 0.0000000000000000e+00 0.0000000000000000e+00  0.0000000000000000e+00 0.0000000000000000e+00 0.0000000000000000e+00  0.0000000000000000e+00 0.0000000000000000e+00 0.0000000000000000e+00  0.0000000000000000e+00 0.0000000000000000e+00 0.0000000000000000e+00  0.0000000000000000e+00 0.0000000000000000e+00 0.0000000000000000e+00  0.0000000000000000e+00 0.0000000000000000e+00 0.0000000000000000e+00  0.0000000000000000e+00 0.0000000000000000e+00 0.0000000000000000e+00  0.0000000000000000e+00 0.0000000000000000e+00 0.0000000000000000e+00  0.0000000000000000e+00 0.0000000000000000e+00 0.0000000000000000e+00  0.0000000000000000e+00 0.0000000000000000e+00 0.0000000000000000e+00  0.0000000000000000e+00 0.0000000000000000e+00 0.0000000000000000e+00  0.0000000000000000e+00 0.0000000000000000e+00 0.0000000000000000e+00  0.0000000000000000e+00 0.0000000000000000e+00 0.0000000000000000e+00  0.0000000000000000e+00 0.0000000000000000e+00 0.0000000000000000e+00  0.0000000000000000e+00 0.0000000000000000e+00 0.0000000000000000e+00  0.0000000000000000e+00 0.0000000000000000e+00 0.0000000000000000e+00  0.0000000000000000e+00 0.0000000000000000e+00 0.0000000000000000e+00  0.0000000000000000e+00 0.0000000000000000e+00 0.0000000000000000e+00  0.0000000000000000e+00 0.0000000000000000e+00 0.0000000000000000e+00  0.0000000000000000e+00 0.0000000000000000e+00 0.0000000000000000e+00  0.0000000000000000e+00 0.0000000000000000e+00 0.0000000000000000e+00  0.0000000000000000e+00 0.0000000000000000e+00 0.0000000000000000e+00  0.0000000000000000e+00 0.0000000000000000e+00 0.0000000000000000e+00  0.0000000000000000e+00 0.0000000000000000e+00 0.0000000000000000e+00  0.0000000000000000e+00 0.0000000000000000e+00 0.0000000000000000e+00  0.0000000000000000e+00 0.0000000000000000e+00 0.0000000000000000e+00  0.0000000000000000e+00 0.0000000000000000e+00 0.0000000000000000e+00  0.0000000000000000e+00 0.0000000000000000e+00 0.0000000000000000e+00  0.0000000000000000e+00 0.0000000000000000e+00 0.0000000000000000e+00  0.0000000000000000e+00 0.0000000000000000e+00 0.0000000000000000e+00  0.0000000000000000e+00 0.0000000000000000e+00 0.0000000000000000e+00  0.0000000000000000e+00 0.0000000000000000e+00 0.0000000000000000e+00  0.0000000000000000e+00 0.0000000000000000e+00 0.0000000000000000e+00  0.0000000000000000e+00 0.0000000000000000e+00 0.0000000000000000e+00  0.0000000000000000e+00 0.0000000000000000e+00 0.0000000000000000e+00  0.0000000000000000e+00 0.0000000000000000e+00 0.0000000000000000e+00  0.0000000000000000e+00 0.0000000000000000e+00 0.0000000000000000e+00  0.0000000000000000e+00 0.0000000000000000e+00 0.0000000000000000e+00  0.0000000000000000e+00 0.0000000000000000e+00 0.0000000000000000e+00  0.0000000000000000e+00 0.0000000000000000e+00 0.0000000000000000e+00  0.0000000000000000e+00 0.0000000000000000e+00 0.0000000000000000e+00  0.0000000000000000e+00 0.0000000000000000e+00 0.0000000000000000e+00  0.0000000000000000e+00 0.0000000000000000e+00 0.0000000000000000e+00  0.0000000000000000e+00 0.0000000000000000e+00 0.0000000000000000e+00  0.0000000000000000e+00 0.0000000000000000e+00 0.0000000000000000e+00  0.0000000000000000e+00 0.0000000000000000e+00 0.0000000000000000e+00  0.0000000000000000e+00 0.0000000000000000e+00 0.0000000000000000e+00  0.0000000000000000e+00 0.0000000000000000e+00 0.0000000000000000e+00  0.0000000000000000e+00 0.0000000000000000e+00 0.0000000000000000e+00  0.0000000000000000e+00 0.0000000000000000e+00 0.0000000000000000e+00  0.0000000000000000e+00 0.0000000000000000e+00 0.0000000000000000e+00  0.0000000000000000e+00 0.0000000000000000e+00 0.0000000000000000e+00  0.0000000000000000e+00 0.0000000000000000e+00 0.0000000000000000e+00  0.0000000000000000e+00 0.0000000000000000e+00 0.0000000000000000e+00  0.0000000000000000e+00 0.0000000000000000e+00 0.0000000000000000e+00  0.0000000000000000e+00 0.0000000000000000e+00 0.0000000000000000e+00  0.0000000000000000e+00 0.0000000000000000e+00 0.0000000000000000e+00  0.0000000000000000e+00 0.0000000000000000e+00 0.0000000000000000e+00  0.0000000000000000e+00 0.0000000000000000e+00 0.0000000000000000e+00  0.0000000000000000e+00 0.0000000000000000e+00 0.0000000000000000e+00  0.0000000000000000e+00 0.0000000000000000e+00 0.0000000000000000e+00  0.0000000000000000e+00 0.0000000000000000e+00 0.0000000000000000e+00  2.2740260643321905e-08 -1.7125762710221956e-06 0.0000000000000000e+00  1.0440670766445165e-07 -1.9167046929063277e-06 0.0000000000000000e+00  2.6194968862787918e-07 -2.0798814843654205e-06 0.0000000000000000e+00  4.6352749165940517e-07 -2.2470626232328249e-06 0.0000000000000000e+00  6.6118849057476816e-07 -2.4625639955754677e-06 0.0000000000000000e+00  8.5297465211326830e-07 -2.7483927590785842e-06 0.0000000000000000e+00  1.0197527921822087e-06 -3.0737560408945560e-06 0.0000000000000000e+00  1.1674572035096757e-06 -3.4552928887032951e-06 0.0000000000000000e+00  1.3143513566419252e-06 -3.8807452814917122e-06 0.0000000000000000e+00  1.4269176153643892e-06 -4.3472317740238617e-06 0.0000000000000000e+00  1.5381178837837241e-06 -4.8660717265311253e-06 0.0000000000000000e+00  1.6163598062297617e-06 -5.4190592245010554e-06 0.0000000000000000e+00  1.6871310686481121e-06 -6.0168539705390285e-06 0.0000000000000000e+00  1.7328184110879452e-06 -6.6496660959790206e-06 0.0000000000000000e+00  1.7580101684593650e-06 -7.3213866585885816e-06 0.0000000000000000e+00  1.7783658689406797e-06 -8.0298896546051601e-06 0.0000000000000000e+00  1.7669667404103794e-06 -8.7633373402434016e-06 0.0000000000000000e+00  1.7483302073244861e-06 -9.5404494118191045e-06 0.0000000000000000e+00  1.7005045707105030e-06 -1.0335802438904471e-05 0.0000000000000000e+00  1.6448310140669397e-06 -1.1170437059425962e-05 0.0000000000000000e+00  1.5629883930078620e-06 -1.2021950933882804e-05 0.0000000000000000e+00  1.4665856768257066e-06 -1.2906390415841513e-05 0.0000000000000000e+00  1.3506494088458252e-06 -1.3812006960653067e-05 0.0000000000000000e+00  1.2142531202663560e-06 -1.4740466505960822e-05 0.0000000000000000e+00  1.0690704387635269e-06 -1.5693681158549545e-05 0.0000000000000000e+00  8.9929945207514785e-07 -1.6659343126827862e-05 0.0000000000000000e+00  7.1197466482646362e-07 -1.7657268249759720e-05 0.0000000000000000e+00  5.0621926545199438e-07 -1.8660688619095778e-05 0.0000000000000000e+00  2.8284781787715804e-07 -1.9692069084763362e-05 0.0000000000000000e+00  4.1029434213085996e-08 -2.0729703316777116e-05 0.0000000000000000e+00  -2.1751300628955492e-07 -2.1791275001305668e-05 0.0000000000000000e+00  -4.9589378581881478e-07 -2.2856726984186164e-05 0.0000000000000000e+00  -7.8948410951263988e-07 -2.3945215707687117e-05 0.0000000000000000e+00  -1.1034778017460922e-06 -2.5032900721133628e-05 0.0000000000000000e+00  -1.4357757263564271e-06 -2.6143925976416180e-05 0.0000000000000000e+00  -1.7858503172952088e-06 -2.7253368947065690e-05 0.0000000000000000e+00  -2.1528986547847897e-06 -2.8381685318909303e-05 0.0000000000000000e+00  -2.5384688635347363e-06 -2.9507532947450471e-05 0.0000000000000000e+00  -2.9420655338143582e-06 -3.0649897496024748e-05 0.0000000000000000e+00  -3.3653163819376331e-06 -3.1788791781332896e-05 0.0000000000000000e+00  -3.8077739205789665e-06 -3.2938900380145213e-05 0.0000000000000000e+00  -4.2660019245888007e-06 -3.4088704047567882e-05 0.0000000000000000e+00  -4.7456858788394469e-06 -3.5244960917150575e-05 0.0000000000000000e+00  -5.2357218598624840e-06 -3.6401816876341370e-05 0.0000000000000000e+00  -5.7466739391724262e-06 -3.7555389581466468e-05 0.0000000000000000e+00  -6.2614340579176137e-06 -3.8728540165329410e-05 0.0000000000000000e+00  -7.6536490595862502e-06 -3.9490608352602719e-05 0.0000000000000000e+00  -9.2422675830653522e-06 -3.8520761360539322e-05 0.0000000000000000e+00  -9.4441977279961125e-06 -3.6903506160075444e-05 0.0000000000000000e+00  -8.9212121867689096e-06 -3.5698295212336540e-05 0.0000000000000000e+00  -8.4017369793361763e-06 -3.4484547345051068e-05 0.0000000000000000e+00  -7.9012401470963761e-06 -3.3279986215819592e-05 0.0000000000000000e+00  -7.4117536798541117e-06 -3.2078874277191929e-05 0.0000000000000000e+00  -6.9434968620065462e-06 -3.0882499483570688e-05 0.0000000000000000e+00  -6.4869717102486575e-06 -2.9691874352352230e-05 0.0000000000000000e+00  -6.0507086206761549e-06 -2.8502322323337751e-05 0.0000000000000000e+00  -5.6278611536096883e-06 -2.7326604720256467e-05 0.0000000000000000e+00  -5.2235686179302957e-06 -2.6148749631692811e-05 0.0000000000000000e+00  -4.8324322111251633e-06 -2.4987335824190979e-05 0.0000000000000000e+00  -4.4600985088240351e-06 -2.3826123280463314e-05 0.0000000000000000e+00  -4.0998545464775246e-06 -2.2683349441943849e-05 0.0000000000000000e+00  -3.7584868653669675e-06 -2.1542577613378038e-05 0.0000000000000000e+00  -3.4283811573780768e-06 -2.0422352886562015e-05 0.0000000000000000e+00  -3.1177418030575262e-06 -1.9306099958821383e-05 0.0000000000000000e+00  -2.8175876418260459e-06 -1.8211691098374338e-05 0.0000000000000000e+00  -2.5379152616364759e-06 -1.7123388663706645e-05 0.0000000000000000e+00  -2.2677984631363598e-06 -1.6060123195366284e-05 0.0000000000000000e+00  -2.0182245007426272e-06 -1.5005458336961051e-05 0.0000000000000000e+00  -1.7769675552775780e-06 -1.3977713602600266e-05 0.0000000000000000e+00  -1.5571951120587722e-06 -1.2961307736804025e-05 0.0000000000000000e+00  -1.3477177364430918e-06 -1.1970646023193666e-05 0.0000000000000000e+00  -1.1552182914256435e-06 -1.0998919221649091e-05 0.0000000000000000e+00  -9.8134571084547847e-07 -1.0053321081458017e-05 0.0000000000000000e+00  -8.1101564390767706e-07 -9.1304059584934048e-06 0.0000000000000000e+00  -6.6260267233060836e-07 -8.2295685278224104e-06 0.0000000000000000e+00  -5.2491421927458146e-07 -7.3652207584289971e-06 0.0000000000000000e+00  -4.0503470851513547e-07 -6.5185555996452783e-06 0.0000000000000000e+00  -2.9671045352556464e-07 -5.7129542967371901e-06 0.0000000000000000e+00  -2.0567003193735876e-07 -4.9273406498465957e-06 0.0000000000000000e+00  -1.2415370648743377e-07 -4.1870885867304956e-06 0.0000000000000000e+00  -6.0220416923821599e-08 -3.4716409850057173e-06 0.0000000000000000e+00  -1.3470729118976173e-08 -2.8019592472444564e-06 0.0000000000000000e+00  3.2732726864410832e-08 -2.1624247208747616e-06 0.0000000000000000e+00  5.6879430929310605e-08 -1.5655754871169520e-06 0.0000000000000000e+00  7.1602679318456922e-08 -1.0171545945806148e-06 0.0000000000000000e+00  6.8775520830289778e-08 -5.0479251456702182e-07 0.0000000000000000e+00  5.9619305434116503e-08 -4.7460837777799705e-08 0.0000000000000000e+00  3.0768898144810794e-08 3.7111487020992603e-07 0.0000000000000000e+00  -1.4528543939408134e-08 7.3239050740140240e-07 0.0000000000000000e+00  -5.5277214929468213e-08 1.0499362053410549e-06 0.0000000000000000e+00  -1.2043976035400756e-07 1.3252951168829373e-06 0.0000000000000000e+00  -1.6460449866467889e-07 1.5399211142523051e-06 0.0000000000000000e+00  -1.8597492897942409e-07 1.6458970140726404e-06 0.0000000000000000e+00  -1.1788060525467610e-07 1.5966052207275397e-06 0.0000000000000000e+00  -3.6194181259198506e-07 -6.6323479092311101e-08 0.0000000000000000e+00  -7.6157854497977120e-06 -3.7227562456914500e-05 0.0000000000000000e+00  -6.5913289059580587e-06 -3.4971402996810376e-05 0.0000000000000000e+00  -5.1265954739202608e-06 -3.1291409588568075e-05 0.0000000000000000e+00  9.4062331014097482e-08 -3.2382194462017006e-07 0.0000000000000000e+00  -4.3023193494255477e-06 -2.8991363819523747e-05 0.0000000000000000e+00  3.4246917626217035e-07 -7.6812744436393536e-07 0.0000000000000000e+00  -3.5107986160182599e-06 -2.6686306612058878e-05 0.0000000000000000e+00  6.3922706093803877e-07 -1.9310362829796240e-06 0.0000000000000000e+00  7.6227660555061402e-07 -2.9158410528249274e-06 0.0000000000000000e+00  -2.7869256901598628e-06 -2.4414016297576370e-05 0.0000000000000000e+00  7.7847993367287057e-07 -6.0990963307511113e-06 0.0000000000000000e+00  -1.5400238515700715e-06 -1.9998512886108960e-05 0.0000000000000000e+00  8.1124506621317263e-07 -3.9967838110662653e-06 0.0000000000000000e+00  6.9177609728346846e-07 -7.6099337679300870e-06 0.0000000000000000e+00  -1.0160695030584321e-06 -1.7871482247026003e-05 0.0000000000000000e+00  -2.1301039283523140e-06 -2.2181980114655034e-05 0.0000000000000000e+00  5.2839531924761320e-07 -9.2530759603183637e-06 0.0000000000000000e+00  -5.5818187904194520e-07 -1.5810596963135865e-05 0.0000000000000000e+00  2.9628533574920099e-07 -1.0915620834643324e-05 0.0000000000000000e+00  -1.5501128514573743e-07 -1.3882365720420628e-05 0.0000000000000000e+00  9.3373265944174848e-08 -1.2316836453000021e-05 0.0000000000000000e+00  8.2249512682258860e-07 -4.9872008706657106e-06 0.0000000000000000e+00  -5.9012850791295498e-06 -3.3183110291825549e-05 0.0000000000000000e+00  5.0249284062845506e-07 -1.2970426300564828e-06 0.0000000000000000e+00  -7.6448704428132545e-06 -3.5762514688954062e-05 0.0000000000000000e+00  -1.5844345677053451e-07 5.1034602741525716e-07 0.0000000000000000e+00  -4.3459912898018493e-06 -2.7515044053650230e-05 0.0000000000000000e+00  -5.1763079067180785e-06 -2.9845628567853044e-05 0.0000000000000000e+00  3.4450608584089592e-07 -1.1732081513484961e-06 0.0000000000000000e+00  8.9975117569652236e-07 -2.8944473649708870e-06 0.0000000000000000e+00  -2.2509410795686543e-06 -2.0727290498082491e-05 0.0000000000000000e+00  -3.5819643035630304e-06 -2.5213185362353393e-05 0.0000000000000000e+00  1.0443285335293509e-06 -7.2834086440869861e-06 0.0000000000000000e+00  -1.6827302178093620e-06 -1.8558841660297258e-05 0.0000000000000000e+00  1.0215112895502142e-06 -3.9518968506973940e-06 0.0000000000000000e+00  9.3579552988718324e-07 -8.8556446196604838e-06 0.0000000000000000e+00  -1.1791349547453894e-06 -1.6451822832191091e-05 0.0000000000000000e+00  -2.8839007034071689e-06 -2.2947840653222072e-05 0.0000000000000000e+00  8.3833371662625539e-07 -1.0628232214692080e-05 0.0000000000000000e+00  -7.3933972983781614e-07 -1.4415816311093953e-05 0.0000000000000000e+00  -3.5792357002660117e-07 -4.1017642753015670e-07 0.0000000000000000e+00  -3.7415418919150250e-07 3.4978657556557838e-07 0.0000000000000000e+00  -7.6855965750447764e-06 -3.8374152343977130e-05 0.0000000000000000e+00 