<?xml version="1.0"?>
<VTKFile type="UnstructuredGrid"  version="0.1"  >
<UnstructuredGrid>
<Piece  NumberOfPoints="1419" NumberOfCells="2698">
<Points>
<DataArray  type="Float64"  NumberOfComponents="3"  format="ascii">0 0 0  0 0.41 0  2.5 0 0  2.5 0.41 0  0.6 0.19 0  0.6 0.21 0  0.25 0.2 0  0.15 0.2 0  0.2489897948556636 0.21 0  0.2489897948556636 0.19 0  0.6 0.2 0  0 0.3807142857143437 0  0 0.3514285714286952 0  0 0.3221428571430699 0  0 0.29285714285744 0  0 0.2635714285718054 0  0 0.2342857142861561 0  0 0.2050000000005308 0  0 0.175714285714732 0  0 0.1464285714289574 0  0 0.1171428571431897 0  0 0.08785714285737878 0  0 0.05857142857161107 0  0 0.02928571428580012 0  0.03015443760436003 0 0  0.06140001986583606 0 0  0.09377624077125973 0 0  0.1273239957535082 0 0  0.1620856860351972 0 0  0.1981052433264291 0 0  0.235428184091502 0 0  0.2741016576309132 0 0  0.3141745521465447 0 0  0.3556974926295285 0 0  0.3987229542472677 0 0  0.4433053055141081 0 0  0.4895008759286886 0 0  0.5373680609405097 0 0  0.5869673343216626 0 0  0.6383613676634521 0 0  0.6916151138468254 0 0  0.7467958595648856 0 0  0.8039733463919316 0 0  0.8632198139502143 0 0  0.9246101326867038 0 0  0.9882218810934433 0 0  1.054135445558498 0 0  1.122434100542598 0 0  1.193204177141305 0 0  1.266535089879536 0 0  1.342519516046404 0 0  1.421253448503939 0 0  1.502836389106271 0 0  1.587371439758838 0 0  1.674965418777374 0 0  1.765729001825544 0 0  1.859776908880082 0 0  1.957227977487062 0 0  2.058205329869943 0 0  2.162836591189951 0 0  2.271253957290865 0 0  2.383594446803425 0 0  2.5 0.1024999999997612 0  2.5 0.2049999999994743 0  2.5 0.3074999999997183 0  2.383594446803656 0.41 0  2.271253957291315 0.41 0  2.162836591190598 0.41 0  2.058205329870775 0.41 0  1.957227977488067 0.41 0  1.859776908881246 0.41 0  1.765729001826854 0.41 0  1.674965418778818 0.41 0  1.58737143976041 0.41 0  1.502836389107956 0.41 0  1.421253448505726 0.41 0  1.342519516048286 0.41 0  1.266535089881505 0.41 0  1.193204177143353 0.41 0  1.122434100544716 0.41 0  1.05413544556068 0.41 0  0.9882218810956305 0.41 0  0.9246101326886647 0.41 0  0.8632198139519631 0.41 0  0.8039733463934788 0.41 0  0.7467958595662458 0.41 0  0.6916151138480078 0.41 0  0.6383613676644679 0.41 0  0.5869673343225223 0.41 0  0.5373680609412221 0.41 0  0.4895008759292634 0.41 0  0.4433053055145528 0.41 0  0.3987229542475914 0.41 0  0.3556974926297398 0.41 0  0.3141745521466497 0.41 0  0.2741016576310038 0.41 0  0.2354281840915826 0.41 0  0.1981052433265003 0.41 0  0.1620856860352591 0.41 0  0.1273239957535623 0.41 0  0.09377624077128965 0.41 0  0.06140001986584975 0.41 0  0.03015443760436654 0.41 0  0.2497468076502589 0.2050254481002335 0  0.2497468076502614 0.1949745518997913 0  0.2469965252529372 0.1829317073451959 0  0.2439893735792749 0.1762316384219906 0  0.2400332147834255 0.1700443375285386 0  0.2352133972704371 0.1645032867342007 0  0.2296339016332438 0.1597280261969788 0  0.2234150974217223 0.1558215752574715 0  0.2166911463437691 0.1528682099456123 0  0.2096071079204251 0.1509316448471593 0  0.2023158100364996 0.1500536585536553 0  0.194974551899914 0.1502531923497262 0  0.1877417105387872 0.1515259415822739 0  0.1807733240461124 0.153844448527136 0  0.1742197252835808 0.15715869474974 0  0.1682222986673531 0.1613971801805478 0  0.162910430003803 0.1664684656256651 0  0.1583987151779087 0.1722631454351573 0  0.1547844879126891 0.178656207771761 0  0.1521457199348551 0.1855097315605723 0  0.1505393388476355 0.1926758619366523 0  0.1505393388476328 0.2073241380633295 0  0.1521457199348437 0.2144902684393899 0  0.1547844879126531 0.221343792228163 0  0.1583987151778488 0.2277368545647528 0  0.1629104300036858 0.2335315343742052 0  0.1682222986671726 0.2386028198193036 0  0.1742197252833576 0.2428413052501257 0  0.1807733240458683 0.2461555514727623 0  0.1877417105384929 0.2484740584176516 0  0.1949745518995776 0.2497468076502398 0  0.202315810036185 0.2499463414463592 0  0.2096071079201568 0.2490683551528932 0  0.2166911463435495 0.2471317900544655 0  0.2234150974215506 0.2441784247426195 0  0.2296339016331197 0.2402719738031125 0  0.2352133972703547 0.2354967132658811 0  0.2400332147833751 0.2299556624715287 0  0.2439893735792577 0.2237683615780412 0  0.246996525252926 0.2170682926548348 0  0.25645809709277 0.21 0  0.2639263993298655 0.21 0  0.271394701566961 0.21 0  0.2788630038040554 0.21 0  0.2863313060411479 0.21 0  0.2937996082782405 0.21 0  0.301267910515333 0.21 0  0.3087362127524279 0.21 0  0.3162045149895234 0.21 0  0.3236728172265972 0.21 0  0.3311411194636928 0.21 0  0.3386094217007701 0.21 0  0.3460777239378666 0.21 0  0.3535460261749672 0.21 0  0.3610143284120516 0.21 0  0.3684826306491596 0.21 0  0.3759509328862226 0.21 0  0.383419235123329 0.21 0  0.3908875373604028 0.21 0  0.3983558395975142 0.21 0  0.4058241418345938 0.21 0  0.4132924440716992 0.21 0  0.4207607463087888 0.21 0  0.4282290485459029 0.21 0  0.4356973507830418 0.21 0  0.4431656530201649 0.21 0  0.4506339552573136 0.21 0  0.4581022574944306 0.21 0  0.4655705597315852 0.21 0  0.4730388619686996 0.21 0  0.480507164205851 0.21 0  0.4879754664429498 0.21 0  0.4954437686800938 0.21 0  0.502912070917267 0.21 0  0.5103803731544119 0.21 0  0.5178486753915261 0.21 0  0.5253169776286404 0.21 0  0.5327852798657868 0.21 0  0.5402535821029386 0.21 0  0.54772188434007 0.21 0  0.5551901865771842 0.21 0  0.5626584888143201 0.21 0  0.5701267910514778 0.21 0  0.5775950932886138 0.21 0  0.5850633955257281 0.21 0  0.5925316977628483 0.21 0  0.6 0.2050000000000054 0  0.6 0.1950000000000217 0  0.5925316977628897 0.19 0  0.5850633955257988 0.19 0  0.5775950932887378 0.19 0  0.5701267910515998 0.19 0  0.5626584888145268 0.19 0  0.5551901865773963 0.19 0  0.547721884340339 0.19 0  0.5402535821032429 0.19 0  0.5327852798661811 0.19 0  0.5253169776290537 0.19 0  0.5178486753919799 0.19 0  0.5103803731549078 0.19 0  0.502912070917822 0.19 0  0.4954437686807294 0.19 0  0.4879754664436223 0.19 0  0.4805071642065402 0.19 0  0.4730388619694271 0.19 0  0.4655705597323621 0.19 0  0.4581022574952563 0.19 0  0.4506339552581777 0.19 0  0.4431656530210671 0.19 0  0.4356973507839815 0.19 0  0.4282290485468779 0.19 0  0.4207607463097617 0.19 0  0.4132924440726327 0.19 0  0.4058241418354857 0.19 0  0.3983558395983636 0.19 0  0.3908875373612097 0.19 0  0.3834192351240934 0.19 0  0.3759509328869369 0.19 0  0.3684826306498175 0.19 0  0.361014328412667 0.19 0  0.3535460261755617 0.19 0  0.3460777239384295 0.19 0  0.3386094217012945 0.19 0  0.3311411194641595 0.19 0  0.3236728172270245 0.19 0  0.3162045149898895 0.19 0  0.3087362127527544 0.19 0  0.3012679105156187 0.19 0  0.2937996082784807 0.19 0  0.2863313060413428 0.19 0  0.2788630038042048 0.19 0  0.2713947015670686 0.19 0  0.2639263993299336 0.19 0  0.2564580970927985 0.19 0  0.2607803159922026 0.2000727136295815 0  0.5887803774232762 0.2001272386983733 0  0.5745072403740523 0.2002044435018727 0  0.5511891430099709 0.2001122610077113 0  0.2751288526855082 0.20000000000002 0  0.5365194309847112 0.1999999999999436 0  0.2894621222999649 0.1998691686390484 0  0.5215828265105155 0.1999999999999228 0  0.3127789816668748 0.1998657885438805 0  0.3274069683451451 0.2000000000000796 0  0.5066462220363641 0.199999999999908 0  0.3650630746574081 0.199866017807523 0  0.476773013087985 0.1999999999998713 0  0.3417402379596385 0.1998691686391011 0  0.3796850840047755 0.200000000000134 0  0.4618364086138087 0.1999999999998546 0  0.4917096175621762 0.1999999999998808 0  0.3946216884789568 0.2000000000001512 0  0.446899804139621 0.1999999999998389 0  0.4089549580935208 0.1998691686391595 0  0.4322718174608562 0.200127451265745 0  0.4201487168029707 0.1999966199048527 0  0.3528922713220932 0.2000185703532356 0  0.5633122436674589 0.1999814296467508 0  0.3006558810093873 0.1999966199048318 0  0.5815926498168407 0.1966545283159175 0  0.2677053789419034 0.1964246479135325 0  0.5290511287476175 0.1970915826863981 0  0.5439877332217911 0.197091582686394 0  0.2825131256993216 0.2035478995978015 0  0.3199386661080599 0.202908417313604 0  0.4842413153250809 0.1970915826863873 0  0.5141145242734466 0.1970915826863843 0  0.3722167817676917 0.2029084173136195 0  0.4693047108508938 0.1970915826863783 0  0.3348752705822316 0.202908417313609 0  0.3871533862418661 0.2029084173136212 0  0.4543681063767183 0.1970915826863795 0  0.4991779197992749 0.1970915826863902 0  0.4020059614928624 0.203547899597858 0  0.4394315019025246 0.1970915826863714 0  0.2550657455369551 0.2034088125358657 0  0.2548908499171161 0.1966940311614271 0  0.5946539510196798 0.2024302972968126 0  0.267698176732111 0.2039977513680092 0  0.4261685417851465 0.196409292431739 0  0.3590076176283495 0.196411355804271 0  0.5571672426447437 0.2036011176410121 0  0.3066757059912147 0.1964092924317024 0  0.594380730180568 0.1966558399668133 0  0.4842413153245942 0.2040749161535287 0  0.4693047108503577 0.2040749161535231 0  0.3871533862424271 0.1959250838464788 0  0.372246743208829 0.1959123236376545 0  0.5141145242731028 0.2040749161535395 0  0.4543681063761134 0.2040749161535186 0  0.4019979587101454 0.1959834479682427 0  0.4394608940728603 0.2040870543693135 0  0.5439623148931173 0.2040856076781014 0  0.5290511287473298 0.2040749161535501 0  0.4991779197988497 0.2040749161535382 0  0.3347912413592433 0.1959225448935183 0  0.3199680582793816 0.1959123018030061 0  0.2825051229162361 0.1959834479681729 0  0.3590471196690275 0.2036304442587945 0  0.5571594006495384 0.1963685282145804 0  0.3067669986803285 0.203627750582736 0  0.4262598344738712 0.2036568242185335 0  0.5814408164431408 0.2041285596160068 0  0.5688286748170428 0.1961819304477386 0  0.4145905603063645 0.2038180695522843 0  0.3473758401724931 0.2038180695522752 0  0.2950977245128307 0.2038180695522663 0  0.5688286748170693 0.203818069552238 0  0.2950977245127906 0.1961819304477774 0  0.3473758401723931 0.1961819304478349 0  0.4145905603061963 0.1961819304479011 0  0.2601812407614425 0.2056861609747042
[...]
<PointData  Vectors="f_40-1"> 
<DataArray  type="Float64"  Name="f_40-1"  NumberOfComponents="3" format="ascii">0.0000000000000000e+00 0.0000000000000000e+00 0.0000000000000000e+00  0.0000000000000000e+00 0.0000000000000000e+00 0.0000000000000000e+00  0.0000000000000000e+00 0.0000000000000000e+00 0.0000000000000000e+00  0.0000000000000000e+00 0.0000000000000000e+00 0.0000000000000000e+00  -1.0400311989084924e-05 -5.7837569595320632e-05 0.0000000000000000e+00  -5.6136434166468467e-06 -6.0072673596288939e-05 0.0000000000000000e+00  0.0000000000000000e+00 0.0000000000000000e+00 0.0000000000000000e+00  0.0000000000000000e+00 0.0000000000000000e+00 0.0000000000000000e+00  0.0000000000000000e+00 0.0000000000000000e+00 0.0000000000000000e+00  0.0000000000000000e+00 0.0000000000000000e+00 0.0000000000000000e+00  -8.1651031586680979e-06 -5.8955966455042365e-05 0.0000000000000000e+00  0.0000000000000000e+00 0.0000000000000000e+00 0.0000000000000000e+00  0.0000000000000000e+00 0.0000000000000000e+00 0.0000000000000000e+00  0.0000000000000000e+00 0.0000000000000000e+00 0.0000000000000000e+00  0.0000000000000000e+00 0.0000000000000000e+00 0.0000000000000000e+00  0.0000000000000000e+00 0.0000000000000000e+00 0.0000000000000000e+00  0.0000000000000000e+00 0.0000000000000000e+00 0.0000000000000000e+00  0.0000000000000000e+00 0.0000000000000000e+00 0.0000000000000000e+00  0.0000000000000000e+00 0.0000000000000000e+00 0.0000000000000000e+00  0.0000000000000000e+00 0.0000000000000000e+00 0.0000000000000000e+00  0.0000000000000000e+00 0.0000000000000000e+00 0.0000000000000000e+00  0.0000000000000000e+00 0.0000000000000000e+00 0.0000000000000000e+00  0.0000000000000000e+00 0.0000000000000000e+00 0.0000000000000000e+00  0.0000000000000000e+00 0.0000000000000000e+00 0.0000000000000000e+00  0.0000000000000000e+00 0.0000000000000000e+00 0.0000000000000000e+00  0.0000000000000000e+00 0.0000000000000000e+00 0.0000000000000000e+00  0.0000000000000000e+00 0.0000000000000000e+00 0.0000000000000000e+00  0.0000000000000000e+00 0.0000000000000000e+00 0.0000000000000000e+00  0.0000000000000000e+00 0.0000000000000000e+00 0.0000000000000000e+00  0.0000000000000000e+00 0.0000000000000000e+00 0.0000000000000000e+00  0.0000000000000000e+00 0.0000000000000000e+00 0.0000000000000000e+00  0.0000000000000000e+00 0.0000000000000000e+00 0.0000000000000000e+00  0.0000000000000000e+00 0.0000000000000000e+00 0.0000000000000000e+00  0.0000000000000000e+00 0.0000000000000000e+00 0.0000000000000000e+00  0.0000000000000000e+00 0.0000000000000000e+00 0.0000000000000000e+00  0.0000000000000000e+00 0.0000000000000000e+00 0.0000000000000000e+00  0.0000000000000000e+00 0.0000000000000000e+00 0.0000000000000000e+00  0.0000000000000000e+00 0.0000000000000000e+00 0.0000000000000000e+00  0.0000000000000000e+00 0.0000000000000000e+00 0.0000000000000000e+00  0.0000000000000000e+00 0.0000000000000000e+00 0.0000000000000000e+00  0.0000000000000000e+00 0.0000000000000000e+00 0.0000000000000000e+00  0.0000000000000000e+00 0.0000000000000000e+00 0.0000000000000000e+00  0.0000000000000000e+00 0.0000000000000000e+00 0.0000000000000000e+00  0.0000000000000000e+00 0.0000000000000000e+00 0.0000000000000000e+00  0.0000000000000000e+00 0.0000000000000000e+00 0.0000000000000000e+00  0.0000000000000000e+00 0.0000000000000000e+00 0.0000000000000000e+00  0.0000000000000000e+00 0.0000000000000000e+00 0.0000000000000000e+00  0.0000000000000000e+00 0.0000000000000000e+00 0.0000000000000000e+00  0.0000000000000000e+00 0.0000000000000000e+00 0.0000000000000000e+00  0.0000000000000000e+00 0.0000000000000000e+00 0.0000000000000000e+00  0.0000000000000000e+00 0.0000000000000000e+00 0.0000000000000000e+00  0.0000000000000000e+00 0.0000000000000000e+00 0.0000000000000000e+00  0.0000000000000000e+00 0.0000000000000000e+00 0.0000000000000000e+00  0.0000000000000000e+00 0.0000000000000000e+00 0.0000000000000000e+00  0.0000000000000000e+00 0.0000000000000000e+00 0.0000000000000000e+00  0.0000000000000000e+00 0.0000000000000000e+00 0.0000000000000000e+00  0.0000000000000000e+00 0.0000000000000000e+00 0.0000000000000000e+00  0.0000000000000000e+00 0.0000000000000000e+00 0.0000000000000000e+00  0.0000000000000000e+00 0.0000000000000000e+00 0.0000000000000000e+00  0.0000000000000000e+00 0.0000000000000000e+00 0.0000000000000000e+00  0.0000000000000000e+00 0.0000000000000000e+00 0.0000000000000000e+00  0.0000000000000000e+00 0.0000000000000000e+00 0.0000000000000000e+00  0.0000000000000000e+00 0.0000000000000000e+00 0.0000000000000000e+00  0.0000000000000000e+00 0.0000000000000000e+00 0.0000000000000000e+00  0.0000000000000000e+00 0.0000000000000000e+00 0.0000000000000000e+00  0.0000000000000000e+00 0.0000000000000000e+00 0.0000000000000000e+00  0.0000000000000000e+00 0.0000000000000000e+00 0.0000000000000000e+00  0.0000000000000000e+00 0.0000000000000000e+00 0.0000000000000000e+00  0.0000000000000000e+00 0.0000000000000000e+00 0.0000000000000000e+00  0.0000000000000000e+00 0.0000000000000000e+00 0.0000000000000000e+00  0.0000000000000000e+00 0.0000000000000000e+00 0.0000000000000000e+00  0.0000000000000000e+00 0.0000000000000000e+00 0.0000000000000000e+00  0.0000000000000000e+00 0.0000000000000000e+00 0.0000000000000000e+00  0.0000000000000000e+00 0.0000000000000000e+00 0.0000000000000000e+00  0.0000000000000000e+00 0.0000000000000000e+00 0.0000000000000000e+00  0.0000000000000000e+00 0.0000000000000000e+00 0.0000000000000000e+00  0.0000000000000000e+00 0.0000000000000000e+00 0.0000000000000000e+00  0.0000000000000000e+00 0.0000000000000000e+00 0.0000000000000000e+00  0.0000000000000000e+00 0.0000000000000000e+00 0.0000000000000000e+00  0.0000000000000000e+00 0.0000000000000000e+00 0.0000000000000000e+00  0.0000000000000000e+00 0.0000000000000000e+00 0.0000000000000000e+00  0.0000000000000000e+00 0.0000000000000000e+00 0.0000000000000000e+00  0.0000000000000000e+00 0.0000000000000000e+00 0.0000000000000000e+00  0.0000000000000000e+00 0.0000000000000000e+00 0.0000000000000000e+00  0.0000000000000000e+00 0.0000000000000000e+00 0.0000000000000000e+00  0.0000000000000000e+00 0.0000000000000000e+00 0.0000000000000000e+00  0.0000000000000000e+00 0.0000000000000000e+00 0.0000000000000000e+00  0.0000000000000000e+00 0.0000000000000000e+00 0.0000000000000000e+00  0.0000000000000000e+00 0.0000000000000000e+00 0.0000000000000000e+00  0.0000000000000000e+00 0.0000000000000000e+00 0.0000000000000000e+00  0.0000000000000000e+00 0.0000000000000000e+00 0.0000000000000000e+00  0.0000000000000000e+00 0.0000000000000000e+00 0.0000000000000000e+00  0.0000000000000000e+00 0.0000000000000000e+00 0.0000000000000000e+00  0.0000000000000000e+00 0.0000000000000000e+00 0.0000000000000000e+00  0.0000000000000000e+00 0.0000000000000000e+00 0.0000000000000000e+00  0.0000000000000000e+00 0.0000000000000000e+00 0.0000000000000000e+00  0.0000000000000000e+00 0.0000000000000000e+00 0.0000000000000000e+00  0.0000000000000000e+00 0.0000000000000000e+00 0.0000000000000000e+00  0.0000000000000000e+00 0.0000000000000000e+00 0.0000000000000000e+00  0.0000000000000000e+00 0.0000000000000000e+00 0.0000000000000000e+00  0.0000000000000000e+00 0.0000000000000000e+00 0.0000000000000000e+00  0.0000000000000000e+00 0.0000000000000000e+00 0.0000000000000000e+00  0.0000000000000000e+00 0.0000000000000000e+00 0.0000000000000000e+00  0.0000000000000000e+00 0.0000000000000000e+00 0.0000000000000000e+00  0.0000000000000000e+00 0.0000000000000000e+00 0.0000000000000000e+00  0.0000000000000000e+00 0.0000000000000000e+00 0.0000000000000000e+00  0.0000000000000000e+00 0.0000000000000000e+00 0.0000000000000000e+00  0.0000000000000000e+00 0.0000000000000000e+00 0.0000000000000000e+00  0.0000000000000000e+00 0.0000000000000000e+00 0.0000000000000000e+00  0.0000000000000000e+00 0.0000000000000000e+00 0.0000000000000000e+00  0.0000000000000000e+00 0.0000000000000000e+00 0.0000000000000000e+00  0.0000000000000000e+00 0.0000000000000000e+00 0.0000000000000000e+00  0.0000000000000000e+00 0.0000000000000000e+00 0.0000000000000000e+00  0.0000000000000000e+00 0.0000000000000000e+00 0.0000000000000000e+00  0.0000000000000000e+00 0.0000000000000000e+00 0.0000000000000000e+00  0.0000000000000000e+00 0.0000000000000000e+00 0.0000000000000000e+00  0.0000000000000000e+00 0.0000000000000000e+00 0.0000000000000000e+00  0.0000000000000000e+00 0.0000000000000000e+00 0.0000000000000000e+00  0.0000000000000000e+00 0.0000000000000000e+00 0.0000000000000000e+00  0.0000000000000000e+00 0.0000000000000000e+00 0.0000000000000000e+00  0.0000000000000000e+00 0.0000000000000000e+00 0.0000000000000000e+00  0.0000000000000000e+00 0.0000000000000000e+00 0.0000000000000000e+00  0.0000000000000000e+00 0.0000000000000000e+00 0.0000000000000000e+00  0.0000000000000000e+00 0.0000000000000000e+00 0.0000000000000000e+00  0.0000000000000000e+00 0.0000000000000000e+00 0.0000000000000000e+00  0.0000000000000000e+00 0.0000000000000000e+00 0.0000000000000000e+00  0.0000000000000000e+00 0.0000000000000000e+00 0.0000000000000000e+00  0.0000000000000000e+00 0.0000000000000000e+00 0.0000000000000000e+00  0.0000000000000000e+00 0.0000000000000000e+00 0.0000000000000000e+00  0.0000000000000000e+00 0.0000000000000000e+00 0.0000000000000000e+00  0.0000000000000000e+00 0.0000000000000000e+00 0.0000000000000000e+00  0.0000000000000000e+00 0.0000000000000000e+00 0.0000000000000000e+00  0.0000000000000000e+00 0.0000000000000000e+00 0.0000000000000000e+00  0.0000000000000000e+00 0.0000000000000000e+00 0.0000000000000000e+00  0.0000000000000000e+00 0.0000000000000000e+00 0.0000000000000000e+00  0.0000000000000000e+00 0.0000000000000000e+00 0.0000000000000000e+00  0.0000000000000000e+00 0.0000000000000000e+00 0.0000000000000000e+00  0.0000000000000000e+00 0.0000000000000000e+00 0.0000000000000000e+00  0.0000000000000000e+00 0.0000000000000000e+00 0.0000000000000000e+00  0.0000000000000000e+00 0.0000000000000000e+00 0.0000000000000000e+00  0.0000000000000000e+00 0.0000000000000000e+00 0.0000000000000000e+00  0.0000000000000000e+00 0.0000000000000000e+00 0.0000000000000000e+00  0.0000000000000000e+00 0.0000000000000000e+00 0.0000000000000000e+00  9.5825596092849810e-08 -2.0118971101986674e-06 0.0000000000000000e+00  2.6625511476908581e-07 -2.2795607022552188e-06 0.0000000000000000e+00  5.2333285988254513e-07 -2.5195517425328249e-06 0.0000000000000000e+00  8.3459762583182551e-07 -2.7851514408183372e-06 0.0000000000000000e+00  1.1365526009792453e-06 -3.1247786254002379e-06 0.0000000000000000e+00  1.4352751460874056e-06 -3.5660039075607232e-06 0.0000000000000000e+00  1.6991420148057273e-06 -4.0679537490879488e-06 0.0000000000000000e+00  1.9397476297938657e-06 -4.6550389498103760e-06 0.0000000000000000e+00  2.1824983970153722e-06 -5.3085401668563303e-06 0.0000000000000000e+00  2.3783803021527788e-06 -6.0255034664923708e-06 0.0000000000000000e+00  2.5766392549859818e-06 -6.8197681089840908e-06 0.0000000000000000e+00  2.7296890308632152e-06 -7.6680584718594667e-06 0.0000000000000000e+00  2.8767631700208185e-06 -8.5832952628720683e-06 0.0000000000000000e+00  2.9895500951961208e-06 -9.5510571078784260e-06 0.0000000000000000e+00  3.0772691202603936e-06 -1.0578680253363195e-05 0.0000000000000000e+00  3.1611765766075870e-06 -1.1660429655695039e-05 0.0000000000000000e+00  3.2026482563664927e-06 -1.2782437752161674e-05 0.0000000000000000e+00  3.2380359131374212e-06 -1.3967127682282968e-05 0.0000000000000000e+00  3.2342323008501781e-06 -1.5182729729517567e-05 0.0000000000000000e+00  3.2231281704929317e-06 -1.6454238193586822e-05 0.0000000000000000e+00  3.1776172921908724e-06 -1.7754350442292532e-05 0.0000000000000000e+00  3.1157854761016898e-06 -1.9102359592487993e-05 0.0000000000000000e+00  3.0278901378533899e-06 -2.0481837225012590e-05 0.0000000000000000e+00  2.9150857021659040e-06 -2.1896799420311115e-05 0.0000000000000000e+00  2.7925638486435954e-06 -2.3346796605197360e-05 0.0000000000000000e+00  2.6386208621232625e-06 -2.4818312992753079e-05 0.0000000000000000e+00  2.4635647205175604e-06 -2.6334190740798324e-05 0.0000000000000000e+00  2.2652023968656687e-06 -2.7861506792636804e-05 0.0000000000000000e+00  2.0455564472670530e-06 -2.9427435911431440e-05 0.0000000000000000e+00  1.8026894863672014e-06 -3.1004734541527392e-05 0.0000000000000000e+00  1.5395019562992897e-06 -3.2615021391018641e-05 0.0000000000000000e+00  1.2516204550952560e-06 -3.4232975731633681e-05 0.0000000000000000e+00  9.4512187444025173e-07 -3.5881911845469063e-05 0.0000000000000000e+00  6.1330343266337289e-07 -3.7532362394050328e-05 0.0000000000000000e+00  2.5926067357009586e-07 -3.9213454626194044e-05 0.0000000000000000e+00  -1.1688683788825526e-07 -4.0894279025996547e-05 0.0000000000000000e+00  -5.1375291066922350e-07 -4.2599690584982953e-05 0.0000000000000000e+00  -9.3349157264928131e-07 -4.4303167477265603e-05 0.0000000000000000e+00  -1.3751667655139544e-06 -4.6027895870116729e-05 0.0000000000000000e+00  -1.8409739696815396e-06 -4.7748998179204363e-05 0.0000000000000000e+00  -2.3301996314283973e-06 -4.9484468091044085e-05 0.0000000000000000e+00  -2.8388712020750030e-06 -5.1219825291979306e-05 0.0000000000000000e+00  -3.3735762734634134e-06 -5.2963356914416019e-05 0.0000000000000000e+00  -3.9209730603666648e-06 -5.4707737299438465e-05 0.0000000000000000e+00  -4.4941145986689541e-06 -5.6447880834023609e-05 0.0000000000000000e+00  -5.0722837954852054e-06 -5.8211417541248574e-05 0.0000000000000000e+00  -6.9445251915773095e-06 -5.9509752734016952e-05 0.0000000000000000e+00  -9.3281181787031714e-06 -5.8402598330035841e-05 0.0000000000000000e+00  -9.8458837026788956e-06 -5.6132799164265394e-05 0.0000000000000000e+00  -9.2575502118453025e-06 -5.4329785179046795e-05 0.0000000000000000e+00  -8.6738180249653889e-06 -5.2516530911689859e-05 0.0000000000000000e+00  -8.1131733354869838e-06 -5.0714879065143895e-05 0.0000000000000000e+00  -7.5658608838987413e-06 -4.8917587330181552e-05 0.0000000000000000e+00  -7.0439871003809650e-06 -4.7126420256996977e-05 0.0000000000000000e+00  -6.5360302671726825e-06 -4.5342721574452046e-05 0.0000000000000000e+00  -6.0525711768772787e-06 -4.3560844163913965e-05 0.0000000000000000e+00  -5.5847567535108452e-06 -4.1796713084586934e-05 0.0000000000000000e+00  -5.1394250532539307e-06 -4.0030986028356527e-05 0.0000000000000000e+00  -4.7090801046926715e-06 -3.8286487960343754e-05 0.0000000000000000e+00  -4.3016258209303341e-06 -3.6543681973228478e-05 0.0000000000000000e+00  -3.9076587962124248e-06 -3.4825153581910284e-05 0.0000000000000000e+00  -3.5367866159046291e-06 -3.3111268225660983e-05 0.0000000000000000e+00  -3.1780991597921170e-06 -3.1424870712736228e-05 0.0000000000000000e+00  -2.8434304844313301e-06 -2.9746213720575386e-05 0.0000000000000000e+00  -2.5196399315644586e-06 -2.8097302131258955e-05 0.0000000000000000e+00  -2.2213225535577062e-06 -2.6459387109235138e-05 0.0000000000000000e+00  -1.9325361309730881e-06 -2.4855893213088429e-05 0.0000000000000000e+00  -1.6695386779487572e-06 -2.3267369508309769e-05 0.0000000000000000e+00  -1.4141761187207371e-06 -2.1716407758896161e-05 0.0000000000000000e+00  -1.1860351499085391e-06 -2.0184565238516923e-05 0.0000000000000000e+00  -9.6775091371398546e-07 -1.8689792151706071e-05 0.0000000000000000e+00  -7.7108893169970384e-07 -1.7223441517339315e-05 0.0000000000000000e+00  -5.9627879645904958e-07 -1.5796521696105494e-05 0.0000000000000000e+00  -4.2354340572306598e-07 -1.4402660955918473e-05 0.0000000000000000e+00  -2.7790711095196612e-07 -1.3043978004001128e-05 0.0000000000000000e+00  -1.4363282392722851e-07 -1.1736969531951751e-05 0.0000000000000000e+00  -3.1089062961511344e-08 -1.0460283632657325e-05 0.0000000000000000e+00  6.9075437291926939e-08 -9.2418697577621076e-06 0.0000000000000000e+00  1.4807732240180883e-07 -8.0571047824711478e-06 0.0000000000000000e+00  2.1828511151323325e-07 -6.9383118688187314e-06 0.0000000000000000e+00  2.6533527016383800e-07 -5.8584259388679838e-06 0.0000000000000000e+00  2.9230068045363826e-07 -4.8469196554113014e-06 0.0000000000000000e+00  3.2195961361951993e-07 -3.8812118666086371e-06 0.0000000000000000e+00  3.2380805397390151e-07 -2.9807535115212123e-06 0.0000000000000000e+00  3.1624933110210130e-07 -2.1513566105934018e-06 0.0000000000000000e+00  2.8678122864277581e-07 -1.3787989787400681e-06 0.0000000000000000e+00  2.5305827996557507e-07 -6.8832453022305287e-07 0.0000000000000000e+00  1.9276633018501545e-07 -5.6882200709748465e-08 0.0000000000000000e+00  1.1321233932407993e-07 4.8748936904782715e-07 0.0000000000000000e+00  4.3583494623035811e-08 9.6622701932163390e-07 0.0000000000000000e+00  -5.7091345762254385e-08 1.3754686125696501e-06 0.0000000000000000e+00  -1.2952619817201891e-07 1.6943010456426927e-06 0.0000000000000000e+00  -1.7817056322483467e-07 1.8667545748697256e-06 0.0000000000000000e+00  -1.1735033194637190e-07 1.8386076742158949e-06 0.0000000000000000e+00  -3.4976696110155213e-07 -9.6849477297890919e-08 0.0000000000000000e+00  -7.1898305362377435e-06 -5.6286245303500002e-05 0.0000000000000000e+00  -6.0325744012253119e-06 -5.2897417620028530e-05 0.0000000000000000e+00  -4.4058996735463460e-06 -4.7370894303454013e-05 0.0000000000000000e+00  2.7330696191170322e-07 -4.9512171449480809e-07 0.0000000000000000e+00  -3.5027515790345547e-06 -4.3915067037171023e-05 0.0000000000000000e+00  6.5407211212580638e-07 -1.1821371913061742e-06 0.0000000000000000e+00  -2.6355133078359695e-06 -4.0443851179567170e-05 0.0000000000000000e+00  1.1477367888251357e-06 -2.9535545955235944e-06 0.0000000000000000e+00  1.3844440397871960e-06 -4.4441075551719789e-06 0.0000000000000000e+00  -1.8499097654438330e-06 -3.7017877657072223e-05 0.0000000000000000e+00  1.6199559076779954e-06 -9.2899518020472054e-06 0.0000000000000000e+00  -5.2086324669988611e-07 -3.0349533314570925e-05 0.0000000000000000e+00  1.5240863915145658e-06 -6.0957212385687319e-06 0.0000000000000000e+00  1.6046736748882958e-06 -1.1576834046656799e-05 0.0000000000000000e+00  2.3774222176829609e-08 -2.7132455996614078e-05 0.0000000000000000e+00  -1.1451683623387965e-06 -3.3648822216006916e-05 0.0000000000000000e+00  1.4946574552746612e-06 -1.4071160593879059e-05 0.0000000000000000e+00  4.8878236190573493e-07 -2.4012712647868638e-05 0.0000000000000000e+00  1.2933560185747325e-06 -1.6600564392389100e-05 0.0000000000000000e+00  8.9490673661831412e-07 -2.1085491793496361e-05 0.0000000000000000e+00  1.1184744861428872e-06 -1.8718704469646710e-05 0.0000000000000000e+00  1.6064829448279893e-06 -7.5922052288723836e-06 0.0000000000000000e+00  -5.2758885064198719e-06 -5.0218945456877311e-05 0.0000000000000000e+00  9.1396936165220392e-07 -1.9800513787022220e-06 0.0000000000000000e+00  -7.4282351717829821e-06 -5.4204388364391317e-05 0.0000000000000000e+00  -9.2363917981530565e-08 5.3359840162389481e-07 0.0000000000000000e+00  -3.7333432317829372e-06 -4.1806541923674683e-05 0.0000000000000000e+00  -4.6481852141590598e-06 -4.5310420902912829e-05 0.0000000000000000e+00  6.5430531558822673e-07 -1.5651756461133114e-06 0.0000000000000000e+00  1.5663938365248733e-06 -4.2370876271887839e-06 0.0000000000000000e+00  -1.4637646748035891e-06 -3.1578799641116684e-05 0.0000000000000000e+00  -2.8980858457239515e-06 -3.8341998619341968e-05 0.0000000000000000e+00  2.0784745379655633e-06 -1.0921160195986695e-05 0.0000000000000000e+00  -8.6298047528501986e-07 -2.8304579723582750e-05 0.0000000000000000e+00  1.8106532157388068e-06 -5.8492326264245586e-06 0.0000000000000000e+00  2.0417609303092814e-06 -1.3311980438890241e-05 0.0000000000000000e+00  -3.3944423168427808e-07 -2.5120249339148595e-05 0.0000000000000000e+00  -2.1419477787628689e-06 -3.4928473857877824e-05 0.0000000000000000e+00  2.0404527347820575e-06 -1.5972424649629587e-05 0.0000000000000000e+00  1.0780348922495857e-07 -2.2040878956670321e-05 0.0000000000000000e+00  -3.7801003191239466e-07 -4.8157678504357014e-07 0.0000000000000000e+00  -4.0635780781122630e-07 4.0417056652431026e-07 0.0000000000000000e+00  -7.1332533375357344e-06 -5.7929399954510497e-05 0.0000000000000000e+00  1.256433773350