<?xml version="1.0"?>
<VTKFile type="UnstructuredGrid"  version="0.1"  >
<UnstructuredGrid>
<Piece  NumberOfPoints="1419" NumberOfCells="2698">
<Points>
<DataArray  type="Float64"  NumberOfComponents="3"  format="ascii">0 0 0  0 0.41 0  2.5 0 0  2.5 0.41 0  0.6 0.19 0  0.6 0.21 0  0.25 0.2 0  0.15 0.2 0  0.2489897948556636 0.21 0  0.2489897948556636 0.19 0  0.6 0.2 0  0 0.3807142857143437 0  0 0.3514285714286952 0  0 0.3221428571430699 0  0 0.29285714285744 0  0 0.2635714285718054 0  0 0.2342857142861561 0  0 0.2050000000005308 0  0 0.175714285714732 0  0 0.1464285714289574 0  0 0.1171428571431897 0  0 0.08785714285737878 0  0 0.05857142857161107 0  0 0.02928571428580012 0  0.03015443760436003 0 0  0.06140001986583606 0 0  0.09377624077125973 0 0  0.1273239957535082 0 0  0.1620856860351972 0 0  0.1981052433264291 0 0  0.235428184091502 0 0  0.2741016576309132 0 0  0.3141745521465447 0 0  0.3556974926295285 0 0  0.3987229542472677 0 0  0.4433053055141081 0 0  0.4895008759286886 0 0  0.5373680609405097 0 0  0.5869673343216626 0 0  0.6383613676634521 0 0  0.6916151138468254 0 0  0.7467958595648856 0 0  0.8039733463919316 0 0  0.8632198139502143 0 0  0.9246101326867038 0 0  0.9882218810934433 0 0  1.054135445558498 0 0  1.122434100542598 0 0  1.193204177141305 0 0  1.266535089879536 0 0  1.342519516046404 0 0  1.421253448503939 0 0  1.502836389106271 0 0  1.587371439758838 0 0  1.674965418777374 0 0  1.765729001825544 0 0  1.859776908880082 0 0  1.957227977487062 0 0  2.058205329869943 0 0  2.162836591189951 0 0  2.271253957290865 0 0  2.383594446803425 0 0  2.5 0.1024999999997612 0  2.5 0.2049999999994743 0  2.5 0.3074999999997183 0  2.383594446803656 0.41 0  2.271253957291315 0.41 0  2.162836591190598 0.41 0  2.058205329870775 0.41 0  1.957227977488067 0.41 0  1.859776908881246 0.41 0  1.765729001826854 0.41 0  1.674965418778818 0.41 0  1.58737143976041 0.41 0  1.502836389107956 0.41 0  1.421253448505726 0.41 0  1.342519516048286 0.41 0  1.266535089881505 0.41 0  1.193204177143353 0.41 0  1.122434100544716 0.41 0  1.05413544556068 0.41 0  0.9882218810956305 0.41 0  0.9246101326886647 0.41 0  0.8632198139519631 0.41 0  0.8039733463934788 0.41 0  0.7467958595662458 0.41 0  0.6916151138480078 0.41 0  0.6383613676644679 0.41 0  0.5869673343225223 0.41 0  0.5373680609412221 0.41 0  0.4895008759292634 0.41 0  0.4433053055145528 0.41 0  0.3987229542475914 0.41 0  0.3556974926297398 0.41 0  0.3141745521466497 0.41 0  0.2741016576310038 0.41 0  0.2354281840915826 0.41 0  0.1981052433265003 0.41 0  0.1620856860352591 0.41 0  0.1273239957535623 0.41 0  0.09377624077128965 0.41 0  0.06140001986584975 0.41 0  0.03015443760436654 0.41 0  0.2497468076502589 0.2050254481002335 0  0.2497468076502614 0.1949745518997913 0  0.2469965252529372 0.1829317073451959 0  0.2439893735792749 0.1762316384219906 0  0.2400332147834255 0.1700443375285386 0  0.2352133972704371 0.1645032867342007 0  0.2296339016332438 0.1597280261969788 0  0.2234150974217223 0.1558215752574715 0  0.2166911463437691 0.1528682099456123 0  0.2096071079204251 0.1509316448471593 0  0.2023158100364996 0.1500536585536553 0  0.194974551899914 0.1502531923497262 0  0.1877417105387872 0.1515259415822739 0  0.1807733240461124 0.153844448527136 0  0.1742197252835808 0.15715869474974 0  0.1682222986673531 0.1613971801805478 0  0.162910430003803 0.1664684656256651 0  0.1583987151779087 0.1722631454351573 0  0.1547844879126891 0.178656207771761 0  0.1521457199348551 0.1855097315605723 0  0.1505393388476355 0.1926758619366523 0  0.1505393388476328 0.2073241380633295 0  0.1521457199348437 0.2144902684393899 0  0.1547844879126531 0.221343792228163 0  0.1583987151778488 0.2277368545647528 0  0.1629104300036858 0.2335315343742052 0  0.1682222986671726 0.2386028198193036 0  0.1742197252833576 0.2428413052501257 0  0.1807733240458683 0.2461555514727623 0  0.1877417105384929 0.2484740584176516 0  0.1949745518995776 0.2497468076502398 0  0.202315810036185 0.2499463414463592 0  0.2096071079201568 0.2490683551528932 0  0.2166911463435495 0.2471317900544655 0  0.2234150974215506 0.2441784247426195 0  0.2296339016331197 0.2402719738031125 0  0.2352133972703547 0.2354967132658811 0  0.2400332147833751 0.2299556624715287 0  0.2439893735792577 0.2237683615780412 0  0.246996525252926 0.2170682926548348 0  0.25645809709277 0.21 0  0.2639263993298655 0.21 0  0.271394701566961 0.21 0  0.2788630038040554 0.21 0  0.2863313060411479 0.21 0  0.2937996082782405 0.21 0  0.301267910515333 0.21 0  0.3087362127524279 0.21 0  0.3162045149895234 0.21 0  0.3236728172265972 0.21 0  0.3311411194636928 0.21 0  0.3386094217007701 0.21 0  0.3460777239378666 0.21 0  0.3535460261749672 0.21 0  0.3610143284120516 0.21 0  0.3684826306491596 0.21 0  0.3759509328862226 0.21 0  0.383419235123329 0.21 0  0.3908875373604028 0.21 0  0.3983558395975142 0.21 0  0.4058241418345938 0.21 0  0.4132924440716992 0.21 0  0.4207607463087888 0.21 0  0.4282290485459029 0.21 0  0.4356973507830418 0.21 0  0.4431656530201649 0.21 0  0.4506339552573136 0.21 0  0.4581022574944306 0.21 0  0.4655705597315852 0.21 0  0.4730388619686996 0.21 0  0.480507164205851 0.21 0  0.4879754664429498 0.21 0  0.4954437686800938 0.21 0  0.502912070917267 0.21 0  0.5103803731544119 0.21 0  0.5178486753915261 0.21 0  0.5253169776286404 0.21 0  0.5327852798657868 0.21 0  0.5402535821029386 0.21 0  0.54772188434007 0.21 0  0.5551901865771842 0.21 0  0.5626584888143201 0.21 0  0.5701267910514778 0.21 0  0.5775950932886138 0.21 0  0.5850633955257281 0.21 0  0.5925316977628483 0.21 0  0.6 0.2050000000000054 0  0.6 0.1950000000000217 0  0.5925316977628897 0.19 0  0.5850633955257988 0.19 0  0.5775950932887378 0.19 0  0.5701267910515998 0.19 0  0.5626584888145268 0.19 0  0.5551901865773963 0.19 0  0.547721884340339 0.19 0  0.5402535821032429 0.19 0  0.5327852798661811 0.19 0  0.5253169776290537 0.19 0  0.5178486753919799 0.19 0  0.5103803731549078 0.19 0  0.502912070917822 0.19 0  0.4954437686807294 0.19 0  0.4879754664436223 0.19 0  0.4805071642065402 0.19 0  0.4730388619694271 0.19 0  0.4655705597323621 0.19 0  0.4581022574952563 0.19 0  0.4506339552581777 0.19 0  0.4431656530210671 0.19 0  0.4356973507839815 0.19 0  0.4282290485468779 0.19 0  0.4207607463097617 0.19 0  0.4132924440726327 0.19 0  0.4058241418354857 0.19 0  0.3983558395983636 0.19 0  0.3908875373612097 0.19 0  0.3834192351240934 0.19 0  0.3759509328869369 0.19 0  0.3684826306498175 0.19 0  0.361014328412667 0.19 0  0.3535460261755617 0.19 0  0.3460777239384295 0.19 0  0.3386094217012945 0.19 0  0.3311411194641595 0.19 0  0.3236728172270245 0.19 0  0.3162045149898895 0.19 0  0.3087362127527544 0.19 0  0.3012679105156187 0.19 0  0.2937996082784807 0.19 0  0.2863313060413428 0.19 0  0.2788630038042048 0.19 0  0.2713947015670686 0.19 0  0.2639263993299336 0.19 0  0.2564580970927985 0.19 0  0.2607803159922026 0.2000727136295815 0  0.5887803774232762 0.2001272386983733 0  0.5745072403740523 0.2002044435018727 0  0.5511891430099709 0.2001122610077113 0  0.2751288526855082 0.20000000000002 0  0.5365194309847112 0.1999999999999436 0  0.2894621222999649 0.1998691686390484 0  0.5215828265105155 0.1999999999999228 0  0.3127789816668748 0.1998657885438805 0  0.3274069683451451 0.2000000000000796 0  0.5066462220363641 0.199999999999908 0  0.3650630746574081 0.199866017807523 0  0.476773013087985 0.1999999999998713 0  0.3417402379596385 0.1998691686391011 0  0.3796850840047755 0.200000000000134 0  0.4618364086138087 0.1999999999998546 0  0.4917096175621762 0.1999999999998808 0  0.3946216884789568 0.2000000000001512 0  0.446899804139621 0.1999999999998389 0  0.4089549580935208 0.1998691686391595 0  0.4322718174608562 0.200127451265745 0  0.4201487168029707 0.1999966199048527 0  0.3528922713220932 0.2000185703532356 0  0.5633122436674589 0.1999814296467508 0  0.3006558810093873 0.1999966199048318 0  0.5815926498168407 0.1966545283159175 0  0.2677053789419034 0.1964246479135325 0  0.5290511287476175 0.1970915826863981 0  0.5439877332217911 0.197091582686394 0  0.2825131256993216 0.2035478995978015 0  0.3199386661080599 0.202908417313604 0  0.4842413153250809 0.1970915826863873 0  0.5141145242734466 0.1970915826863843 0  0.3722167817676917 0.2029084173136195 0  0.4693047108508938 0.1970915826863783 0  0.3348752705822316 0.202908417313609 0  0.3871533862418661 0.2029084173136212 0  0.4543681063767183 0.1970915826863795 0  0.4991779197992749 0.1970915826863902 0  0.4020059614928624 0.203547899597858 0  0.4394315019025246 0.1970915826863714 0  0.2550657455369551 0.2034088125358657 0  0.2548908499171161 0.1966940311614271 0  0.5946539510196798 0.2024302972968126 0  0.267698176732111 0.2039977513680092 0  0.4261685417851465 0.196409292431739 0  0.3590076176283495 0.196411355804271 0  0.5571672426447437 0.2036011176410121 0  0.3066757059912147 0.1964092924317024 0  0.594380730180568 0.1966558399668133 0  0.4842413153245942 0.2040749161535287 0  0.4693047108503577 0.2040749161535231 0  0.3871533862424271 0.1959250838464788 0  0.372246743208829 0.1959123236376545 0  0.5141145242731028 0.2040749161535395 0  0.4543681063761134 0.2040749161535186 0  0.4019979587101454 0.1959834479682427 0  0.4394608940728603 0.2040870543693135 0  0.5439623148931173 0.2040856076781014 0  0.5290511287473298 0.2040749161535501 0  0.4991779197988497 0.2040749161535382 0  0.3347912413592433 0.1959225448935183 0  0.3199680582793816 0.1959123018030061 0  0.2825051229162361 0.1959834479681729 0  0.3590471196690275 0.2036304442587945 0  0.5571594006495384 0.1963685282145804 0  0.3067669986803285 0.203627750582736 0  0.4262598344738712 0.2036568242185335 0  0.5814408164431408 0.2041285596160068 0  0.5688286748170428 0.1961819304477386 0  0.4145905603063645 0.2038180695522843 0  0.3473758401724931 0.2038180695522752 0  0.2950977245128307 0.2038180695522663 0  0.5688286748170693 0.203818069552238 0  0.2950977245127906 0.1961819304477774 0  0.3473758401723931 0.1961819304478349 0  0.4145905603061963 0.1961819304479011 0  0.2601812407614425 0.2056861609747042
[...]
<PointData  Vectors="f_40-1"> 
<DataArray  type="Float64"  Name="f_40-1"  NumberOfComponents="3" format="ascii">0.0000000000000000e+00 0.0000000000000000e+00 0.0000000000000000e+00  0.0000000000000000e+00 0.0000000000000000e+00 0.0000000000000000e+00  0.0000000000000000e+00 0.0000000000000000e+00 0.0000000000000000e+00  0.0000000000000000e+00 0.0000000000000000e+00 0.0000000000000000e+00  -1.0242883618022516e-05 -4.9770770396547310e-05 0.0000000000000000e+00  -6.1025308917891941e-06 -5.1902568922024073e-05 0.0000000000000000e+00  0.0000000000000000e+00 0.0000000000000000e+00 0.0000000000000000e+00  0.0000000000000000e+00 0.0000000000000000e+00 0.0000000000000000e+00  0.0000000000000000e+00 0.0000000000000000e+00 0.0000000000000000e+00  0.0000000000000000e+00 0.0000000000000000e+00 0.0000000000000000e+00  -8.3197993953263194e-06 -5.0837523913104904e-05 0.0000000000000000e+00  0.0000000000000000e+00 0.0000000000000000e+00 0.0000000000000000e+00  0.0000000000000000e+00 0.0000000000000000e+00 0.0000000000000000e+00  0.0000000000000000e+00 0.0000000000000000e+00 0.0000000000000000e+00  0.0000000000000000e+00 0.0000000000000000e+00 0.0000000000000000e+00  0.0000000000000000e+00 0.0000000000000000e+00 0.0000000000000000e+00  0.0000000000000000e+00 0.0000000000000000e+00 0.0000000000000000e+00  0.0000000000000000e+00 0.0000000000000000e+00 0.0000000000000000e+00  0.0000000000000000e+00 0.0000000000000000e+00 0.0000000000000000e+00  0.0000000000000000e+00 0.0000000000000000e+00 0.0000000000000000e+00  0.0000000000000000e+00 0.0000000000000000e+00 0.0000000000000000e+00  0.0000000000000000e+00 0.0000000000000000e+00 0.0000000000000000e+00  0.0000000000000000e+00 0.0000000000000000e+00 0.0000000000000000e+00  0.0000000000000000e+00 0.0000000000000000e+00 0.0000000000000000e+00  0.0000000000000000e+00 0.0000000000000000e+00 0.0000000000000000e+00  0.0000000000000000e+00 0.0000000000000000e+00 0.0000000000000000e+00  0.0000000000000000e+00 0.0000000000000000e+00 0.0000000000000000e+00  0.0000000000000000e+00 0.0000000000000000e+00 0.0000000000000000e+00  0.0000000000000000e+00 0.0000000000000000e+00 0.0000000000000000e+00  0.0000000000000000e+00 0.0000000000000000e+00 0.0000000000000000e+00  0.0000000000000000e+00 0.0000000000000000e+00 0.0000000000000000e+00  0.0000000000000000e+00 0.0000000000000000e+00 0.0000000000000000e+00  0.0000000000000000e+00 0.0000000000000000e+00 0.0000000000000000e+00  0.0000000000000000e+00 0.0000000000000000e+00 0.0000000000000000e+00  0.0000000000000000e+00 0.0000000000000000e+00 0.0000000000000000e+00  0.0000000000000000e+00 0.0000000000000000e+00 0.0000000000000000e+00  0.0000000000000000e+00 0.0000000000000000e+00 0.0000000000000000e+00  0.0000000000000000e+00 0.0000000000000000e+00 0.0000000000000000e+00  0.0000000000000000e+00 0.0000000000000000e+00 0.0000000000000000e+00  0.0000000000000000e+00 0.0000000000000000e+00 0.0000000000000000e+00  0.0000000000000000e+00 0.0000000000000000e+00 0.0000000000000000e+00  0.0000000000000000e+00 0.0000000000000000e+00 0.0000000000000000e+00  0.0000000000000000e+00 0.0000000000000000e+00 0.0000000000000000e+00  0.0000000000000000e+00 0.0000000000000000e+00 0.0000000000000000e+00  0.0000000000000000e+00 0.0000000000000000e+00 0.0000000000000000e+00  0.0000000000000000e+00 0.0000000000000000e+00 0.0000000000000000e+00  0.0000000000000000e+00 0.0000000000000000e+00 0.0000000000000000e+00  0.0000000000000000e+00 0.0000000000000000e+00 0.0000000000000000e+00  0.0000000000000000e+00 0.0000000000000000e+00 0.0000000000000000e+00  0.0000000000000000e+00 0.0000000000000000e+00 0.0000000000000000e+00  0.0000000000000000e+00 0.0000000000000000e+00 0.0000000000000000e+00  0.0000000000000000e+00 0.0000000000000000e+00 0.0000000000000000e+00  0.0000000000000000e+00 0.0000000000000000e+00 0.0000000000000000e+00  0.0000000000000000e+00 0.0000000000000000e+00 0.0000000000000000e+00  0.0000000000000000e+00 0.0000000000000000e+00 0.0000000000000000e+00  0.0000000000000000e+00 0.0000000000000000e+00 0.0000000000000000e+00  0.0000000000000000e+00 0.0000000000000000e+00 0.0000000000000000e+00  0.0000000000000000e+00 0.0000000000000000e+00 0.0000000000000000e+00  0.0000000000000000e+00 0.0000000000000000e+00 0.0000000000000000e+00  0.0000000000000000e+00 0.0000000000000000e+00 0.0000000000000000e+00  0.0000000000000000e+00 0.0000000000000000e+00 0.0000000000000000e+00  0.0000000000000000e+00 0.0000000000000000e+00 0.0000000000000000e+00  0.0000000000000000e+00 0.0000000000000000e+00 0.0000000000000000e+00  0.0000000000000000e+00 0.0000000000000000e+00 0.0000000000000000e+00  0.0000000000000000e+00 0.0000000000000000e+00 0.0000000000000000e+00  0.0000000000000000e+00 0.0000000000000000e+00 0.0000000000000000e+00  0.0000000000000000e+00 0.0000000000000000e+00 0.0000000000000000e+00  0.0000000000000000e+00 0.0000000000000000e+00 0.0000000000000000e+00  0.0000000000000000e+00 0.0000000000000000e+00 0.0000000000000000e+00  0.0000000000000000e+00 0.0000000000000000e+00 0.0000000000000000e+00  0.0000000000000000e+00 0.0000000000000000e+00 0.0000000000000000e+00  0.0000000000000000e+00 0.0000000000000000e+00 0.0000000000000000e+00  0.0000000000000000e+00 0.0000000000000000e+00 0.0000000000000000e+00  0.0000000000000000e+00 0.0000000000000000e+00 0.0000000000000000e+00  0.0000000000000000e+00 0.0000000000000000e+00 0.0000000000000000e+00  0.0000000000000000e+00 0.0000000000000000e+00 0.0000000000000000e+00  0.0000000000000000e+00 0.0000000000000000e+00 0.0000000000000000e+00  0.0000000000000000e+00 0.0000000000000000e+00 0.0000000000000000e+00  0.0000000000000000e+00 0.0000000000000000e+00 0.0000000000000000e+00  0.0000000000000000e+00 0.0000000000000000e+00 0.0000000000000000e+00  0.0000000000000000e+00 0.0000000000000000e+00 0.0000000000000000e+00  0.0000000000000000e+00 0.0000000000000000e+00 0.0000000000000000e+00  0.0000000000000000e+00 0.0000000000000000e+00 0.0000000000000000e+00  0.0000000000000000e+00 0.0000000000000000e+00 0.0000000000000000e+00  0.0000000000000000e+00 0.0000000000000000e+00 0.0000000000000000e+00  0.0000000000000000e+00 0.0000000000000000e+00 0.0000000000000000e+00  0.0000000000000000e+00 0.0000000000000000e+00 0.0000000000000000e+00  0.0000000000000000e+00 0.0000000000000000e+00 0.0000000000000000e+00  0.0000000000000000e+00 0.0000000000000000e+00 0.0000000000000000e+00  0.0000000000000000e+00 0.0000000000000000e+00 0.0000000000000000e+00  0.0000000000000000e+00 0.0000000000000000e+00 0.0000000000000000e+00  0.0000000000000000e+00 0.0000000000000000e+00 0.0000000000000000e+00  0.0000000000000000e+00 0.0000000000000000e+00 0.0000000000000000e+00  0.0000000000000000e+00 0.0000000000000000e+00 0.0000000000000000e+00  0.0000000000000000e+00 0.0000000000000000e+00 0.0000000000000000e+00  0.0000000000000000e+00 0.0000000000000000e+00 0.0000000000000000e+00  0.0000000000000000e+00 0.0000000000000000e+00 0.0000000000000000e+00  0.0000000000000000e+00 0.0000000000000000e+00 0.0000000000000000e+00  0.0000000000000000e+00 0.0000000000000000e+00 0.0000000000000000e+00  0.0000000000000000e+00 0.0000000000000000e+00 0.0000000000000000e+00  0.0000000000000000e+00 0.0000000000000000e+00 0.0000000000000000e+00  0.0000000000000000e+00 0.0000000000000000e+00 0.0000000000000000e+00  0.0000000000000000e+00 0.0000000000000000e+00 0.0000000000000000e+00  0.0000000000000000e+00 0.0000000000000000e+00 0.0000000000000000e+00  0.0000000000000000e+00 0.0000000000000000e+00 0.0000000000000000e+00  0.0000000000000000e+00 0.0000000000000000e+00 0.0000000000000000e+00  0.0000000000000000e+00 0.0000000000000000e+00 0.0000000000000000e+00  0.0000000000000000e+00 0.0000000000000000e+00 0.0000000000000000e+00  0.0000000000000000e+00 0.0000000000000000e+00 0.0000000000000000e+00  0.0000000000000000e+00 0.0000000000000000e+00 0.0000000000000000e+00  0.0000000000000000e+00 0.0000000000000000e+00 0.0000000000000000e+00  0.0000000000000000e+00 0.0000000000000000e+00 0.0000000000000000e+00  0.0000000000000000e+00 0.0000000000000000e+00 0.0000000000000000e+00  0.0000000000000000e+00 0.0000000000000000e+00 0.0000000000000000e+00  0.0000000000000000e+00 0.0000000000000000e+00 0.0000000000000000e+00  0.0000000000000000e+00 0.0000000000000000e+00 0.0000000000000000e+00  0.0000000000000000e+00 0.0000000000000000e+00 0.0000000000000000e+00  0.0000000000000000e+00 0.0000000000000000e+00 0.0000000000000000e+00  0.0000000000000000e+00 0.0000000000000000e+00 0.0000000000000000e+00  0.0000000000000000e+00 0.0000000000000000e+00 0.0000000000000000e+00  0.0000000000000000e+00 0.0000000000000000e+00 0.0000000000000000e+00  0.0000000000000000e+00 0.0000000000000000e+00 0.0000000000000000e+00  0.0000000000000000e+00 0.0000000000000000e+00 0.0000000000000000e+00  0.0000000000000000e+00 0.0000000000000000e+00 0.0000000000000000e+00  0.0000000000000000e+00 0.0000000000000000e+00 0.0000000000000000e+00  0.0000000000000000e+00 0.0000000000000000e+00 0.0000000000000000e+00  0.0000000000000000e+00 0.0000000000000000e+00 0.0000000000000000e+00  0.0000000000000000e+00 0.0000000000000000e+00 0.0000000000000000e+00  0.0000000000000000e+00 0.0000000000000000e+00 0.0000000000000000e+00  0.0000000000000000e+00 0.0000000000000000e+00 0.0000000000000000e+00  0.0000000000000000e+00 0.0000000000000000e+00 0.0000000000000000e+00  0.0000000000000000e+00 0.0000000000000000e+00 0.0000000000000000e+00  0.0000000000000000e+00 0.0000000000000000e+00 0.0000000000000000e+00  0.0000000000000000e+00 0.0000000000000000e+00 0.0000000000000000e+00  0.0000000000000000e+00 0.0000000000000000e+00 0.0000000000000000e+00  0.0000000000000000e+00 0.0000000000000000e+00 0.0000000000000000e+00  0.0000000000000000e+00 0.0000000000000000e+00 0.0000000000000000e+00  0.0000000000000000e+00 0.0000000000000000e+00 0.0000000000000000e+00  0.0000000000000000e+00 0.0000000000000000e+00 0.0000000000000000e+00  0.0000000000000000e+00 0.0000000000000000e+00 0.0000000000000000e+00  0.0000000000000000e+00 0.0000000000000000e+00 0.0000000000000000e+00  0.0000000000000000e+00 0.0000000000000000e+00 0.0000000000000000e+00  0.0000000000000000e+00 0.0000000000000000e+00 0.0000000000000000e+00  6.6169304878530284e-08 -1.8984627425548990e-06 0.0000000000000000e+00  2.0082085968776893e-07 -2.1407223192104342e-06 0.0000000000000000e+00  4.1816179487674467e-07 -2.3492938488653685e-06 0.0000000000000000e+00  6.8570617611914949e-07 -2.5743355008726668e-06 0.0000000000000000e+00  9.4617062084507342e-07 -2.8628549901879191e-06 0.0000000000000000e+00  1.2022044312776654e-06 -3.2402771945975963e-06 0.0000000000000000e+00  1.4273453067413742e-06 -3.6697567312072570e-06 0.0000000000000000e+00  1.6308344557912991e-06 -4.1725464594364188e-06 0.0000000000000000e+00  1.8352035653775467e-06 -4.7325765176947903e-06 0.0000000000000000e+00  1.9977378831567107e-06 -5.3468998523742949e-06 0.0000000000000000e+00  2.1610550996559036e-06 -6.0283961157404467e-06 0.0000000000000000e+00  2.2840825875769458e-06 -6.7557853156686147e-06 0.0000000000000000e+00  2.4004496812655665e-06 -7.5411351171047897e-06 0.0000000000000000e+00  2.4862197399989201e-06 -8.3719020494805434e-06 0.0000000000000000e+00  2.5486963852665542e-06 -9.2540103447621256e-06 0.0000000000000000e+00  2.6069004992885356e-06 -1.0183237094064885e-05 0.0000000000000000e+00  2.6269196731238806e-06 -1.1146481896064343e-05 0.0000000000000000e+00  2.6403245160361441e-06 -1.2164766204438898e-05 0.0000000000000000e+00  2.6185159211417836e-06 -1.3208795228259551e-05 0.0000000000000000e+00  2.5891284854169907e-06 -1.4302072442674753e-05 0.0000000000000000e+00  2.5285899508624333e-06 -1.5419184221827161e-05 0.0000000000000000e+00  2.4523682914409479e-06 -1.6578192760919500e-05 0.0000000000000000e+00  2.3526668522619386e-06 -1.7764538922333651e-05 0.0000000000000000e+00  2.2297715753305192e-06 -1.8981278235690659e-05 0.0000000000000000e+00  2.0974884973881235e-06 -2.0228958623232525e-05 0.0000000000000000e+00  1.9364567138830136e-06 -2.1494484802835095e-05 0.0000000000000000e+00  1.7556708117218816e-06 -2.2799579423284936e-05 0.0000000000000000e+00  1.5534766935393062e-06 -2.4113693139346075e-05 0.0000000000000000e+00  1.3314019189365140e-06 -2.5462200340352300e-05 0.0000000000000000e+00  1.0879599027692838e-06 -2.6820005139339509e-05 0.0000000000000000e+00  8.2557583985828822e-07 -2.8207216464566892e-05 0.0000000000000000e+00  5.4037509250987562e-07 -2.9600556480917290e-05 0.0000000000000000e+00  2.3786558328795069e-07 -3.1021748412909994e-05 0.0000000000000000e+00  -8.8064768194599659e-08 -3.2443493128467823e-05 0.0000000000000000e+00  -4.3471834429073299e-07 -3.3893014492997313e-05 0.0000000000000000e+00  -8.0180466222258762e-07 -3.5341713581380928e-05 0.0000000000000000e+00  -1.1881725199130819e-06 -3.6812761804122998e-05 0.0000000000000000e+00  -1.5957361735662668e-06 -3.8281636569990054e-05 0.0000000000000000e+00  -2.0237385696735774e-06 -3.9769913617509240e-05 0.0000000000000000e+00  -2.4741502737913654e-06 -4.1254602384742445e-05 0.0000000000000000e+00  -2.9463658661146475e-06 -4.2752425950651852e-05 0.0000000000000000e+00  -3.4366097032343257e-06 -4.4250052060306307e-05 0.0000000000000000e+00  -3.9511304191780129e-06 -4.5755177111168686e-05 0.0000000000000000e+00  -4.4774416953427119e-06 -4.7261046165094412e-05 0.0000000000000000e+00  -5.0276319944606628e-06 -4.8763047142269167e-05 0.0000000000000000e+00  -5.5823390030899431e-06 -5.0287015624297864e-05 0.0000000000000000e+00  -7.2625445845745673e-06 -5.1365819609362842e-05 0.0000000000000000e+00  -9.3235882405742965e-06 -5.0309598291720856e-05 0.0000000000000000e+00  -9.7105243848890813e-06 -4.8302578563415194e-05 0.0000000000000000e+00  -9.1464035292766729e-06 -4.6742038295775528e-05 0.0000000000000000e+00  -8.5864281364473376e-06 -4.5171891913009261e-05 0.0000000000000000e+00  -8.0479629333942337e-06 -4.3612405603991991e-05 0.0000000000000000e+00  -7.5219391664780458e-06 -4.2056921637623775e-05 0.0000000000000000e+00  -7.0197492201764007e-06 -4.0507014289135112e-05 0.0000000000000000e+00  -6.5306493690295585e-06 -3.8963899121036372e-05 0.0000000000000000e+00  -6.0644263303621933e-06 -3.7422296190571935e-05 0.0000000000000000e+00  -5.6130141268050736e-06 -3.5896911894113419e-05 0.0000000000000000e+00  -5.1825799927447601e-06 -3.4369690417304886e-05 0.0000000000000000e+00  -4.7664610997241899e-06 -3.2861828282304556e-05 0.0000000000000000e+00  -4.3716628702459650e-06 -3.1355040869744499e-05 0.0000000000000000e+00  -3.9898515354837538e-06 -2.9870238246095555e-05 0.0000000000000000e+00  -3.6295141440487974e-06 -2.8388998635389378e-05 0.0000000000000000e+00  -3.2810522512483174e-06 -2.6932515476455275e-05 0.0000000000000000e+00  -2.9548546095617165e-06 -2.5482241401524026e-05 0.0000000000000000e+00  -2.6394402126137324e-06 -2.4058594785609412e-05 0.0000000000000000e+00  -2.3475694289239662e-06 -2.2643963640719771e-05 0.0000000000000000e+00  -2.0653021315776796e-06 -2.1260041834597845e-05 0.0000000000000000e+00  -1.8067914419180418e-06 -1.9888512132578651e-05 0.0000000000000000e+00  -1.5562553253355549e-06 -1.8550324798367469e-05 0.0000000000000000e+00  -1.3307112061786289e-06 -1.7228111085050834e-05 0.0000000000000000e+00  -1.1152786050383932e-06 -1.5938452351926752e-05 0.0000000000000000e+00  -9.1966131814198647e-07 -1.4673409460853475e-05 0.0000000000000000e+00  -7.4468791758356149e-07 -1.3442454193253960e-05 0.0000000000000000e+00  -5.7243113897463380e-07 -1.2240403151908719e-05 0.0000000000000000e+00  -4.2528004729054068e-07 -1.1068229394190365e-05 0.0000000000000000e+00  -2.8931205485678809e-07 -9.9416638214932239e-06 0.0000000000000000e+00  -1.7357600613479390e-07 -8.8402658609394427e-06 0.0000000000000000e+00  -6.9970708929782863e-08 -7.7902481445662658e-06 0.0000000000000000e+00  1.3955254153514000e-08 -6.7682979510454534e-06 0.0000000000000000e+00  8.8691714585699360e-08 -5.8040162117686615e-06 0.0000000000000000e+00  1.4246699566906281e-07 -4.8729023125165227e-06 0.0000000000000000e+00  1.7723459030611427e-07 -4.0010031436260043e-06 0.0000000000000000e+00  2.1331323047224849e-07 -3.1685428171577680e-06 0.0000000000000000e+00  2.2381646193749485e-07 -2.3921380862106794e-06 0.0000000000000000e+00  2.2481293591977576e-07 -1.6776227923635158e-06 0.0000000000000000e+00  2.0558275352440569e-07 -1.0114313838936399e-06 0.0000000000000000e+00  1.8114473365053256e-07 -4.1631173393722654e-07 0.0000000000000000e+00  1.3287019018036712e-07 1.2806679136247988e-07 0.0000000000000000e+00  6.6365698364158764e-08 5.9754534887825984e-07 0.0000000000000000e+00  7.5126314168168473e-09 1.0103394441574455e-06 0.0000000000000000e+00  -7.9816698959955326e-08 1.3649087528812008e-06 0.0000000000000000e+00  -1.4186206078534289e-07 1.6411665159771650e-06 0.0000000000000000e+00  -1.8039482757301620e-07 1.7862225565885592e-06 0.0000000000000000e+00  -1.1725684029921322e-07 1.7486627956264144e-06 0.0000000000000000e+00  -3.5589147662397169e-07 -8.4366783345606050e-08 0.0000000000000000e+00  -7.3893692722515809e-06 -4.8529630096592336e-05 0.0000000000000000e+00  -6.2814388200531084e-06 -4.5600409231736975e-05 0.0000000000000000e+00  -4.7138968466786484e-06 -4.0823150678725795e-05 0.0000000000000000e+00  2.0234192767206807e-07 -4.2479194038376329e-07 0.0000000000000000e+00  -3.8390457105843901e-06 -3.7836339352737807e-05 0.0000000000000000e+00  5.3122548169934946e-07 -1.0121498832566127e-06 0.0000000000000000e+00  -2.9990801743229560e-06 -3.4838493860043749e-05 0.0000000000000000e+00  9.4721001987745788e-07 -2.5343048725385786e-06 0.0000000000000000e+00  1.1387749772440672e-06 -3.8179802649904696e-06 0.0000000000000000e+00  -2.2354069216913786e-06 -3.1880945136100480e-05 0.0000000000000000e+00  1.2865694783421570e-06 -7.9841095371921813e-06 0.0000000000000000e+00  -9.3444928410550373e-07 -2.6127765656163880e-05 0.0000000000000000e+00  1.2423522510739134e-06 -5.2360656155549989e-06 0.0000000000000000e+00  1.2422382660764467e-06 -9.9542792093177941e-06 0.0000000000000000e+00  -3.9607650850226070e-07 -2.3353778101029563e-05 0.0000000000000000e+00  -1.5473228183344071e-06 -2.8973690394135133e-05 0.0000000000000000e+00  1.1102175536019914e-06 -1.2101361756649665e-05 0.0000000000000000e+00  6.7842811042265895e-08 -2.0664672980031495e-05 0.0000000000000000e+00  8.9580130889853302e-07 -1.4277287694219004e-05 0.0000000000000000e+00  4.7421431602031407e-07 -1.8144066838207879e-05 0.0000000000000000e+00  7.0879849906615873e-07 -1.6103458245704188e-05 0.0000000000000000e+00  1.2961842130469328e-06 -6.5258282986940006e-06 0.0000000000000000e+00  -5.5485644247261379e-06 -4.3283049352078961e-05 0.0000000000000000e+00  7.5171872006228241e-07 -1.6999688174314230e-06 0.0000000000000000e+00  -7.5404886596254869e-06 -4.6696499943675381e-05 0.0000000000000000e+00  -1.1852857182390471e-07 5.2790747246478536e-07 0.0000000000000000e+00  -3.9919856922477709e-06 -3.5982898030509658e-05 0.0000000000000000e+00  -4.8761643117293824e-06 -3.9010617086654054e-05 0.0000000000000000e+00  5.3109465535604794e-07 -1.4078236069341384e-06 0.0000000000000000e+00  1.3018643989778534e-06 -3.6895296210229734e-06 0.0000000000000000e+00  -1.7842872912906756e-06 -2.7151929473193634e-05 0.0000000000000000e+00  -3.1823254845618769e-06 -3.2990311785828046e-05 0.0000000000000000e+00  1.6665276519018052e-06 -9.4352710733941394e-06 0.0000000000000000e+00  -1.1943929174171991e-06 -2.4327025939017918e-05 0.0000000000000000e+00  1.4972660287508478e-06 -5.0746622287781900e-06 0.0000000000000000e+00  1.6004918760501782e-06 -1.1491966726788716e-05 0.0000000000000000e+00  -6.7694600543333544e-07 -2.1580659191851613e-05 0.0000000000000000e+00  -2.4467731720286599e-06 -3.0042985404988593e-05 0.0000000000000000e+00  1.5596219570747987e-06 -1.3790759860811642e-05 0.0000000000000000e+00  -2.3104376796656353e-07 -1.8925688780139809e-05 0.0000000000000000e+00  -3.7141961247171338e-07 -4.5453731832223521e-07 0.0000000000000000e+00  -3.9477427935692909e-07 3.8390770349134188e-07 0.0000000000000000e+00  -7.3860277616810529e-06 -4.9972338959721248e-05 0.0000000000000000e+00  6.92292873