<?xml version="1.0"?>
<VTKFile type="UnstructuredGrid"  version="0.1"  >
<UnstructuredGrid>
<Piece  NumberOfPoints="1419" NumberOfCells="2698">
<Points>
<DataArray  type="Float64"  NumberOfComponents="3"  format="ascii">0 0 0  0 0.41 0  2.5 0 0  2.5 0.41 0  0.6 0.19 0  0.6 0.21 0  0.25 0.2 0  0.15 0.2 0  0.2489897948556636 0.21 0  0.2489897948556636 0.19 0  0.6 0.2 0  0 0.3807142857143437 0  0 0.3514285714286952 0  0 0.3221428571430699 0  0 0.29285714285744 0  0 0.2635714285718054 0  0 0.2342857142861561 0  0 0.2050000000005308 0  0 0.175714285714732 0  0 0.1464285714289574 0  0 0.1171428571431897 0  0 0.08785714285737878 0  0 0.05857142857161107 0  0 0.02928571428580012 0  0.03015443760436003 0 0  0.06140001986583606 0 0  0.09377624077125973 0 0  0.1273239957535082 0 0  0.1620856860351972 0 0  0.1981052433264291 0 0  0.235428184091502 0 0  0.2741016576309132 0 0  0.3141745521465447 0 0  0.3556974926295285 0 0  0.3987229542472677 0 0  0.4433053055141081 0 0  0.4895008759286886 0 0  0.5373680609405097 0 0  0.5869673343216626 0 0  0.6383613676634521 0 0  0.6916151138468254 0 0  0.7467958595648856 0 0  0.8039733463919316 0 0  0.8632198139502143 0 0  0.9246101326867038 0 0  0.9882218810934433 0 0  1.054135445558498 0 0  1.122434100542598 0 0  1.193204177141305 0 0  1.266535089879536 0 0  1.342519516046404 0 0  1.421253448503939 0 0  1.502836389106271 0 0  1.587371439758838 0 0  1.674965418777374 0 0  1.765729001825544 0 0  1.859776908880082 0 0  1.957227977487062 0 0  2.058205329869943 0 0  2.162836591189951 0 0  2.271253957290865 0 0  2.383594446803425 0 0  2.5 0.1024999999997612 0  2.5 0.2049999999994743 0  2.5 0.3074999999997183 0  2.383594446803656 0.41 0  2.271253957291315 0.41 0  2.162836591190598 0.41 0  2.058205329870775 0.41 0  1.957227977488067 0.41 0  1.859776908881246 0.41 0  1.765729001826854 0.41 0  1.674965418778818 0.41 0  1.58737143976041 0.41 0  1.502836389107956 0.41 0  1.421253448505726 0.41 0  1.342519516048286 0.41 0  1.266535089881505 0.41 0  1.193204177143353 0.41 0  1.122434100544716 0.41 0  1.05413544556068 0.41 0  0.9882218810956305 0.41 0  0.9246101326886647 0.41 0  0.8632198139519631 0.41 0  0.8039733463934788 0.41 0  0.7467958595662458 0.41 0  0.6916151138480078 0.41 0  0.6383613676644679 0.41 0  0.5869673343225223 0.41 0  0.5373680609412221 0.41 0  0.4895008759292634 0.41 0  0.4433053055145528 0.41 0  0.3987229542475914 0.41 0  0.3556974926297398 0.41 0  0.3141745521466497 0.41 0  0.2741016576310038 0.41 0  0.2354281840915826 0.41 0  0.1981052433265003 0.41 0  0.1620856860352591 0.41 0  0.1273239957535623 0.41 0  0.09377624077128965 0.41 0  0.06140001986584975 0.41 0  0.03015443760436654 0.41 0  0.2497468076502589 0.2050254481002335 0  0.2497468076502614 0.1949745518997913 0  0.2469965252529372 0.1829317073451959 0  0.2439893735792749 0.1762316384219906 0  0.2400332147834255 0.1700443375285386 0  0.2352133972704371 0.1645032867342007 0  0.2296339016332438 0.1597280261969788 0  0.2234150974217223 0.1558215752574715 0  0.2166911463437691 0.1528682099456123 0  0.2096071079204251 0.1509316448471593 0  0.2023158100364996 0.1500536585536553 0  0.194974551899914 0.1502531923497262 0  0.1877417105387872 0.1515259415822739 0  0.1807733240461124 0.153844448527136 0  0.1742197252835808 0.15715869474974 0  0.1682222986673531 0.1613971801805478 0  0.162910430003803 0.1664684656256651 0  0.1583987151779087 0.1722631454351573 0  0.1547844879126891 0.178656207771761 0  0.1521457199348551 0.1855097315605723 0  0.1505393388476355 0.1926758619366523 0  0.1505393388476328 0.2073241380633295 0  0.1521457199348437 0.2144902684393899 0  0.1547844879126531 0.221343792228163 0  0.1583987151778488 0.2277368545647528 0  0.1629104300036858 0.2335315343742052 0  0.1682222986671726 0.2386028198193036 0  0.1742197252833576 0.2428413052501257 0  0.1807733240458683 0.2461555514727623 0  0.1877417105384929 0.2484740584176516 0  0.1949745518995776 0.2497468076502398 0  0.202315810036185 0.2499463414463592 0  0.2096071079201568 0.2490683551528932 0  0.2166911463435495 0.2471317900544655 0  0.2234150974215506 0.2441784247426195 0  0.2296339016331197 0.2402719738031125 0  0.2352133972703547 0.2354967132658811 0  0.2400332147833751 0.2299556624715287 0  0.2439893735792577 0.2237683615780412 0  0.246996525252926 0.2170682926548348 0  0.25645809709277 0.21 0  0.2639263993298655 0.21 0  0.271394701566961 0.21 0  0.2788630038040554 0.21 0  0.2863313060411479 0.21 0  0.2937996082782405 0.21 0  0.301267910515333 0.21 0  0.3087362127524279 0.21 0  0.3162045149895234 0.21 0  0.3236728172265972 0.21 0  0.3311411194636928 0.21 0  0.3386094217007701 0.21 0  0.3460777239378666 0.21 0  0.3535460261749672 0.21 0  0.3610143284120516 0.21 0  0.3684826306491596 0.21 0  0.3759509328862226 0.21 0  0.383419235123329 0.21 0  0.3908875373604028 0.21 0  0.3983558395975142 0.21 0  0.4058241418345938 0.21 0  0.4132924440716992 0.21 0  0.4207607463087888 0.21 0  0.4282290485459029 0.21 0  0.4356973507830418 0.21 0  0.4431656530201649 0.21 0  0.4506339552573136 0.21 0  0.4581022574944306 0.21 0  0.4655705597315852 0.21 0  0.4730388619686996 0.21 0  0.480507164205851 0.21 0  0.4879754664429498 0.21 0  0.4954437686800938 0.21 0  0.502912070917267 0.21 0  0.5103803731544119 0.21 0  0.5178486753915261 0.21 0  0.5253169776286404 0.21 0  0.5327852798657868 0.21 0  0.5402535821029386 0.21 0  0.54772188434007 0.21 0  0.5551901865771842 0.21 0  0.5626584888143201 0.21 0  0.5701267910514778 0.21 0  0.5775950932886138 0.21 0  0.5850633955257281 0.21 0  0.5925316977628483 0.21 0  0.6 0.2050000000000054 0  0.6 0.1950000000000217 0  0.5925316977628897 0.19 0  0.5850633955257988 0.19 0  0.5775950932887378 0.19 0  0.5701267910515998 0.19 0  0.5626584888145268 0.19 0  0.5551901865773963 0.19 0  0.547721884340339 0.19 0  0.5402535821032429 0.19 0  0.5327852798661811 0.19 0  0.5253169776290537 0.19 0  0.5178486753919799 0.19 0  0.5103803731549078 0.19 0  0.502912070917822 0.19 0  0.4954437686807294 0.19 0  0.4879754664436223 0.19 0  0.4805071642065402 0.19 0  0.4730388619694271 0.19 0  0.4655705597323621 0.19 0  0.4581022574952563 0.19 0  0.4506339552581777 0.19 0  0.4431656530210671 0.19 0  0.4356973507839815 0.19 0  0.4282290485468779 0.19 0  0.4207607463097617 0.19 0  0.4132924440726327 0.19 0  0.4058241418354857 0.19 0  0.3983558395983636 0.19 0  0.3908875373612097 0.19 0  0.3834192351240934 0.19 0  0.3759509328869369 0.19 0  0.3684826306498175 0.19 0  0.361014328412667 0.19 0  0.3535460261755617 0.19 0  0.3460777239384295 0.19 0  0.3386094217012945 0.19 0  0.3311411194641595 0.19 0  0.3236728172270245 0.19 0  0.3162045149898895 0.19 0  0.3087362127527544 0.19 0  0.3012679105156187 0.19 0  0.2937996082784807 0.19 0  0.2863313060413428 0.19 0  0.2788630038042048 0.19 0  0.2713947015670686 0.19 0  0.2639263993299336 0.19 0  0.2564580970927985 0.19 0  0.2607803159922026 0.2000727136295815 0  0.5887803774232762 0.2001272386983733 0  0.5745072403740523 0.2002044435018727 0  0.5511891430099709 0.2001122610077113 0  0.2751288526855082 0.20000000000002 0  0.5365194309847112 0.1999999999999436 0  0.2894621222999649 0.1998691686390484 0  0.5215828265105155 0.1999999999999228 0  0.3127789816668748 0.1998657885438805 0  0.3274069683451451 0.2000000000000796 0  0.5066462220363641 0.199999999999908 0  0.3650630746574081 0.199866017807523 0  0.476773013087985 0.1999999999998713 0  0.3417402379596385 0.1998691686391011 0  0.3796850840047755 0.200000000000134 0  0.4618364086138087 0.1999999999998546 0  0.4917096175621762 0.1999999999998808 0  0.3946216884789568 0.2000000000001512 0  0.446899804139621 0.1999999999998389 0  0.4089549580935208 0.1998691686391595 0  0.4322718174608562 0.200127451265745 0  0.4201487168029707 0.1999966199048527 0  0.3528922713220932 0.2000185703532356 0  0.5633122436674589 0.1999814296467508 0  0.3006558810093873 0.1999966199048318 0  0.5815926498168407 0.1966545283159175 0  0.2677053789419034 0.1964246479135325 0  0.5290511287476175 0.1970915826863981 0  0.5439877332217911 0.197091582686394 0  0.2825131256993216 0.2035478995978015 0  0.3199386661080599 0.202908417313604 0  0.4842413153250809 0.1970915826863873 0  0.5141145242734466 0.1970915826863843 0  0.3722167817676917 0.2029084173136195 0  0.4693047108508938 0.1970915826863783 0  0.3348752705822316 0.202908417313609 0  0.3871533862418661 0.2029084173136212 0  0.4543681063767183 0.1970915826863795 0  0.4991779197992749 0.1970915826863902 0  0.4020059614928624 0.203547899597858 0  0.4394315019025246 0.1970915826863714 0  0.2550657455369551 0.2034088125358657 0  0.2548908499171161 0.1966940311614271 0  0.5946539510196798 0.2024302972968126 0  0.267698176732111 0.2039977513680092 0  0.4261685417851465 0.196409292431739 0  0.3590076176283495 0.196411355804271 0  0.5571672426447437 0.2036011176410121 0  0.3066757059912147 0.1964092924317024 0  0.594380730180568 0.1966558399668133 0  0.4842413153245942 0.2040749161535287 0  0.4693047108503577 0.2040749161535231 0  0.3871533862424271 0.1959250838464788 0  0.372246743208829 0.1959123236376545 0  0.5141145242731028 0.2040749161535395 0  0.4543681063761134 0.2040749161535186 0  0.4019979587101454 0.1959834479682427 0  0.4394608940728603 0.2040870543693135 0  0.5439623148931173 0.2040856076781014 0  0.5290511287473298 0.2040749161535501 0  0.4991779197988497 0.2040749161535382 0  0.3347912413592433 0.1959225448935183 0  0.3199680582793816 0.1959123018030061 0  0.2825051229162361 0.1959834479681729 0  0.3590471196690275 0.2036304442587945 0  0.5571594006495384 0.1963685282145804 0  0.3067669986803285 0.203627750582736 0  0.4262598344738712 0.2036568242185335 0  0.5814408164431408 0.2041285596160068 0  0.5688286748170428 0.1961819304477386 0  0.4145905603063645 0.2038180695522843 0  0.3473758401724931 0.2038180695522752 0  0.2950977245128307 0.2038180695522663 0  0.5688286748170693 0.203818069552238 0  0.2950977245127906 0.1961819304477774 0  0.3473758401723931 0.1961819304478349 0  0.4145905603061963 0.1961819304479011 0  0.2601812407614425 0.2056861609747042
[...]
<PointData  Vectors="f_40-1"> 
<DataArray  type="Float64"  Name="f_40-1"  NumberOfComponents="3" format="ascii">0.0000000000000000e+00 0.0000000000000000e+00 0.0000000000000000e+00  0.0000000000000000e+00 0.0000000000000000e+00 0.0000000000000000e+00  0.0000000000000000e+00 0.0000000000000000e+00 0.0000000000000000e+00  0.0000000000000000e+00 0.0000000000000000e+00 0.0000000000000000e+00  -1.0250397390053915e-05 -5.0105901665564954e-05 0.0000000000000000e+00  -6.0831227191843849e-06 -5.2242230984332863e-05 0.0000000000000000e+00  0.0000000000000000e+00 0.0000000000000000e+00 0.0000000000000000e+00  0.0000000000000000e+00 0.0000000000000000e+00 0.0000000000000000e+00  0.0000000000000000e+00 0.0000000000000000e+00 0.0000000000000000e+00  0.0000000000000000e+00 0.0000000000000000e+00 0.0000000000000000e+00  -8.3143306739294704e-06 -5.1174920690706137e-05 0.0000000000000000e+00  0.0000000000000000e+00 0.0000000000000000e+00 0.0000000000000000e+00  0.0000000000000000e+00 0.0000000000000000e+00 0.0000000000000000e+00  0.0000000000000000e+00 0.0000000000000000e+00 0.0000000000000000e+00  0.0000000000000000e+00 0.0000000000000000e+00 0.0000000000000000e+00  0.0000000000000000e+00 0.0000000000000000e+00 0.0000000000000000e+00  0.0000000000000000e+00 0.0000000000000000e+00 0.0000000000000000e+00  0.0000000000000000e+00 0.0000000000000000e+00 0.0000000000000000e+00  0.0000000000000000e+00 0.0000000000000000e+00 0.0000000000000000e+00  0.0000000000000000e+00 0.0000000000000000e+00 0.0000000000000000e+00  0.0000000000000000e+00 0.0000000000000000e+00 0.0000000000000000e+00  0.0000000000000000e+00 0.0000000000000000e+00 0.0000000000000000e+00  0.0000000000000000e+00 0.0000000000000000e+00 0.0000000000000000e+00  0.0000000000000000e+00 0.0000000000000000e+00 0.0000000000000000e+00  0.0000000000000000e+00 0.0000000000000000e+00 0.0000000000000000e+00  0.0000000000000000e+00 0.0000000000000000e+00 0.0000000000000000e+00  0.0000000000000000e+00 0.0000000000000000e+00 0.0000000000000000e+00  0.0000000000000000e+00 0.0000000000000000e+00 0.0000000000000000e+00  0.0000000000000000e+00 0.0000000000000000e+00 0.0000000000000000e+00  0.0000000000000000e+00 0.0000000000000000e+00 0.0000000000000000e+00  0.0000000000000000e+00 0.0000000000000000e+00 0.0000000000000000e+00  0.0000000000000000e+00 0.0000000000000000e+00 0.0000000000000000e+00  0.0000000000000000e+00 0.0000000000000000e+00 0.0000000000000000e+00  0.0000000000000000e+00 0.0000000000000000e+00 0.0000000000000000e+00  0.0000000000000000e+00 0.0000000000000000e+00 0.0000000000000000e+00  0.0000000000000000e+00 0.0000000000000000e+00 0.0000000000000000e+00  0.0000000000000000e+00 0.0000000000000000e+00 0.0000000000000000e+00  0.0000000000000000e+00 0.0000000000000000e+00 0.0000000000000000e+00  0.0000000000000000e+00 0.0000000000000000e+00 0.0000000000000000e+00  0.0000000000000000e+00 0.0000000000000000e+00 0.0000000000000000e+00  0.0000000000000000e+00 0.0000000000000000e+00 0.0000000000000000e+00  0.0000000000000000e+00 0.0000000000000000e+00 0.0000000000000000e+00  0.0000000000000000e+00 0.0000000000000000e+00 0.0000000000000000e+00  0.0000000000000000e+00 0.0000000000000000e+00 0.0000000000000000e+00  0.0000000000000000e+00 0.0000000000000000e+00 0.0000000000000000e+00  0.0000000000000000e+00 0.0000000000000000e+00 0.0000000000000000e+00  0.0000000000000000e+00 0.0000000000000000e+00 0.0000000000000000e+00  0.0000000000000000e+00 0.0000000000000000e+00 0.0000000000000000e+00  0.0000000000000000e+00 0.0000000000000000e+00 0.0000000000000000e+00  0.0000000000000000e+00 0.0000000000000000e+00 0.0000000000000000e+00  0.0000000000000000e+00 0.0000000000000000e+00 0.0000000000000000e+00  0.0000000000000000e+00 0.0000000000000000e+00 0.0000000000000000e+00  0.0000000000000000e+00 0.0000000000000000e+00 0.0000000000000000e+00  0.0000000000000000e+00 0.0000000000000000e+00 0.0000000000000000e+00  0.0000000000000000e+00 0.0000000000000000e+00 0.0000000000000000e+00  0.0000000000000000e+00 0.0000000000000000e+00 0.0000000000000000e+00  0.0000000000000000e+00 0.0000000000000000e+00 0.0000000000000000e+00  0.0000000000000000e+00 0.0000000000000000e+00 0.0000000000000000e+00  0.0000000000000000e+00 0.0000000000000000e+00 0.0000000000000000e+00  0.0000000000000000e+00 0.0000000000000000e+00 0.0000000000000000e+00  0.0000000000000000e+00 0.0000000000000000e+00 0.0000000000000000e+00  0.0000000000000000e+00 0.0000000000000000e+00 0.0000000000000000e+00  0.0000000000000000e+00 0.0000000000000000e+00 0.0000000000000000e+00  0.0000000000000000e+00 0.0000000000000000e+00 0.0000000000000000e+00  0.0000000000000000e+00 0.0000000000000000e+00 0.0000000000000000e+00  0.0000000000000000e+00 0.0000000000000000e+00 0.0000000000000000e+00  0.0000000000000000e+00 0.0000000000000000e+00 0.0000000000000000e+00  0.0000000000000000e+00 0.0000000000000000e+00 0.0000000000000000e+00  0.0000000000000000e+00 0.0000000000000000e+00 0.0000000000000000e+00  0.0000000000000000e+00 0.0000000000000000e+00 0.0000000000000000e+00  0.0000000000000000e+00 0.0000000000000000e+00 0.0000000000000000e+00  0.0000000000000000e+00 0.0000000000000000e+00 0.0000000000000000e+00  0.0000000000000000e+00 0.0000000000000000e+00 0.0000000000000000e+00  0.0000000000000000e+00 0.0000000000000000e+00 0.0000000000000000e+00  0.0000000000000000e+00 0.0000000000000000e+00 0.0000000000000000e+00  0.0000000000000000e+00 0.0000000000000000e+00 0.0000000000000000e+00  0.0000000000000000e+00 0.0000000000000000e+00 0.0000000000000000e+00  0.0000000000000000e+00 0.0000000000000000e+00 0.0000000000000000e+00  0.0000000000000000e+00 0.0000000000000000e+00 0.0000000000000000e+00  0.0000000000000000e+00 0.0000000000000000e+00 0.0000000000000000e+00  0.0000000000000000e+00 0.0000000000000000e+00 0.0000000000000000e+00  0.0000000000000000e+00 0.0000000000000000e+00 0.0000000000000000e+00  0.0000000000000000e+00 0.0000000000000000e+00 0.0000000000000000e+00  0.0000000000000000e+00 0.0000000000000000e+00 0.0000000000000000e+00  0.0000000000000000e+00 0.0000000000000000e+00 0.0000000000000000e+00  0.0000000000000000e+00 0.0000000000000000e+00 0.0000000000000000e+00  0.0000000000000000e+00 0.0000000000000000e+00 0.0000000000000000e+00  0.0000000000000000e+00 0.0000000000000000e+00 0.0000000000000000e+00  0.0000000000000000e+00 0.0000000000000000e+00 0.0000000000000000e+00  0.0000000000000000e+00 0.0000000000000000e+00 0.0000000000000000e+00  0.0000000000000000e+00 0.0000000000000000e+00 0.0000000000000000e+00  0.0000000000000000e+00 0.0000000000000000e+00 0.0000000000000000e+00  0.0000000000000000e+00 0.0000000000000000e+00 0.0000000000000000e+00  0.0000000000000000e+00 0.0000000000000000e+00 0.0000000000000000e+00  0.0000000000000000e+00 0.0000000000000000e+00 0.0000000000000000e+00  0.0000000000000000e+00 0.0000000000000000e+00 0.0000000000000000e+00  0.0000000000000000e+00 0.0000000000000000e+00 0.0000000000000000e+00  0.0000000000000000e+00 0.0000000000000000e+00 0.0000000000000000e+00  0.0000000000000000e+00 0.0000000000000000e+00 0.0000000000000000e+00  0.0000000000000000e+00 0.0000000000000000e+00 0.0000000000000000e+00  0.0000000000000000e+00 0.0000000000000000e+00 0.0000000000000000e+00  0.0000000000000000e+00 0.0000000000000000e+00 0.0000000000000000e+00  0.0000000000000000e+00 0.0000000000000000e+00 0.0000000000000000e+00  0.0000000000000000e+00 0.0000000000000000e+00 0.0000000000000000e+00  0.0000000000000000e+00 0.0000000000000000e+00 0.0000000000000000e+00  0.0000000000000000e+00 0.0000000000000000e+00 0.0000000000000000e+00  0.0000000000000000e+00 0.0000000000000000e+00 0.0000000000000000e+00  0.0000000000000000e+00 0.0000000000000000e+00 0.0000000000000000e+00  0.0000000000000000e+00 0.0000000000000000e+00 0.0000000000000000e+00  0.0000000000000000e+00 0.0000000000000000e+00 0.0000000000000000e+00  0.0000000000000000e+00 0.0000000000000000e+00 0.0000000000000000e+00  0.0000000000000000e+00 0.0000000000000000e+00 0.0000000000000000e+00  0.0000000000000000e+00 0.0000000000000000e+00 0.0000000000000000e+00  0.0000000000000000e+00 0.0000000000000000e+00 0.0000000000000000e+00  0.0000000000000000e+00 0.0000000000000000e+00 0.0000000000000000e+00  0.0000000000000000e+00 0.0000000000000000e+00 0.0000000000000000e+00  0.0000000000000000e+00 0.0000000000000000e+00 0.0000000000000000e+00  0.0000000000000000e+00 0.0000000000000000e+00 0.0000000000000000e+00  0.0000000000000000e+00 0.0000000000000000e+00 0.0000000000000000e+00  0.0000000000000000e+00 0.0000000000000000e+00 0.0000000000000000e+00  0.0000000000000000e+00 0.0000000000000000e+00 0.0000000000000000e+00  0.0000000000000000e+00 0.0000000000000000e+00 0.0000000000000000e+00  0.0000000000000000e+00 0.0000000000000000e+00 0.0000000000000000e+00  0.0000000000000000e+00 0.0000000000000000e+00 0.0000000000000000e+00  0.0000000000000000e+00 0.0000000000000000e+00 0.0000000000000000e+00  0.0000000000000000e+00 0.0000000000000000e+00 0.0000000000000000e+00  0.0000000000000000e+00 0.0000000000000000e+00 0.0000000000000000e+00  0.0000000000000000e+00 0.0000000000000000e+00 0.0000000000000000e+00  0.0000000000000000e+00 0.0000000000000000e+00 0.0000000000000000e+00  0.0000000000000000e+00 0.0000000000000000e+00 0.0000000000000000e+00  0.0000000000000000e+00 0.0000000000000000e+00 0.0000000000000000e+00  0.0000000000000000e+00 0.0000000000000000e+00 0.0000000000000000e+00  0.0000000000000000e+00 0.0000000000000000e+00 0.0000000000000000e+00  0.0000000000000000e+00 0.0000000000000000e+00 0.0000000000000000e+00  0.0000000000000000e+00 0.0000000000000000e+00 0.0000000000000000e+00  0.0000000000000000e+00 0.0000000000000000e+00 0.0000000000000000e+00  0.0000000000000000e+00 0.0000000000000000e+00 0.0000000000000000e+00  0.0000000000000000e+00 0.0000000000000000e+00 0.0000000000000000e+00  0.0000000000000000e+00 0.0000000000000000e+00 0.0000000000000000e+00  0.0000000000000000e+00 0.0000000000000000e+00 0.0000000000000000e+00  0.0000000000000000e+00 0.0000000000000000e+00 0.0000000000000000e+00  0.0000000000000000e+00 0.0000000000000000e+00 0.0000000000000000e+00  0.0000000000000000e+00 0.0000000000000000e+00 0.0000000000000000e+00  6.7396522630274282e-08 -1.9033685642843326e-06 0.0000000000000000e+00  2.0353534928119093e-07 -2.1466926025922321e-06 0.0000000000000000e+00  4.2253788281338728e-07 -2.3565636117471862e-06 0.0000000000000000e+00  6.9191270667869090e-07 -2.5832757069025603e-06 0.0000000000000000e+00  9.5411580749995077e-07 -2.8739013934870177e-06 0.0000000000000000e+00  1.2119350685113148e-06 -3.2539576111255813e-06 0.0000000000000000e+00  1.4386957931455878e-06 -3.6864300559668193e-06 0.0000000000000000e+00  1.6437357315031428e-06 -4.1927029080945683e-06 0.0000000000000000e+00  1.8497067617061611e-06 -4.7565968068534568e-06 0.0000000000000000e+00  2.0136323382943324e-06 -5.3751639496197081e-06 0.0000000000000000e+00  2.1784054921702945e-06 -6.0613254513493342e-06 0.0000000000000000e+00  2.3026830765891034e-06 -6.7937169131045151e-06 0.0000000000000000e+00  2.4203271192757704e-06 -7.5844430564434362e-06 0.0000000000000000e+00  2.5072195844073951e-06 -8.4208822433366043e-06 0.0000000000000000e+00  2.5707430638807036e-06 -9.3090172518149145e-06 0.0000000000000000e+00  2.6300123395045955e-06 -1.0244563339112907e-05 0.0000000000000000e+00  2.6509178572998515e-06 -1.1214386957071627e-05 0.0000000000000000e+00  2.6652299450449389e-06 -1.2239570259844634e-05 0.0000000000000000e+00  2.6441611481741281e-06 -1.3290713210813045e-05 0.0000000000000000e+00  2.6155240830381389e-06 -1.4391383938192189e-05 0.0000000000000000e+00  2.5555984072650141e-06 -1.5516088017092409e-05 0.0000000000000000e+00  2.4799615755093531e-06 -1.6682940883941251e-05 0.0000000000000000e+00  2.3807358573288600e-06 -1.7877304830575151e-05 0.0000000000000000e+00  2.2582430146369542e-06 -1.9102275403802093e-05 0.0000000000000000e+00  2.1263477763118779e-06 -2.0358359746455739e-05 0.0000000000000000e+00  1.9655903314393844e-06 -2.1632443640998675e-05 0.0000000000000000e+00  1.7850204116515558e-06 -2.2946298708458579e-05 0.0000000000000000e+00  1.5829614845458386e-06 -2.4269274025637638e-05 0.0000000000000000e+00  1.3609617210401588e-06 -2.5626821384256568e-05 0.0000000000000000e+00  1.1175156846857391e-06 -2.6993753251930767e-05 0.0000000000000000e+00  8.5506852412273935e-07 -2.8390243331755628e-05 0.0000000000000000e+00  5.6972446050706931e-07 -2.9792926607699690e-05 0.0000000000000000e+00  2.6701558866404223e-07 -3.1223594683435365e-05 0.0000000000000000e+00  -5.9195287730209022e-08 -3.2654855544021115e-05 0.0000000000000000e+00  -4.0619376071488738e-07 -3.4114014873141624e-05 0.0000000000000000e+00  -7.7369644562961136e-07 -3.5572374827223036e-05 0.0000000000000000e+00  -1.1605422509183801e-06 -3.7053179162636420e-05 0.0000000000000000e+00  -1.5686555972465375e-06 -3.8531819738238363e-05 0.0000000000000000e+00  -1.9972719177792563e-06 -4.0029941399254556e-05 0.0000000000000000e+00  -2.4483712966024613e-06 -4.1524472780540301e-05 0.0000000000000000e+00  -2.9213437892767560e-06 -4.3032191444062850e-05 0.0000000000000000e+00  -3.4124051330470705e-06 -4.4539716089651079e-05 0.0000000000000000e+00  -3.9278185669071271e-06 -4.6054768362278001e-05 0.0000000000000000e+00  -4.4550610537463825e-06 -4.7570568900692824e-05 0.0000000000000000e+00  -5.0062622065485285e-06 -4.9082485620729280e-05 0.0000000000000000e+00  -5.5620006535255831e-06 -5.0616432106690189e-05 0.0000000000000000e+00  -7.2502696904901642e-06 -5.1704334283411470e-05 0.0000000000000000e+00  -9.3247479430767876e-06 -5.0645879155282767e-05 0.0000000000000000e+00  -9.7170694575991659e-06 -4.8627868003170669e-05 0.0000000000000000e+00  -9.1518850853815752e-06 -4.7057226846471044e-05 0.0000000000000000e+00  -8.5908645226136288e-06 -4.5476951821998222e-05 0.0000000000000000e+00  -8.0514216563753664e-06 -4.3907376969695576e-05 0.0000000000000000e+00  -7.5244583195571120e-06 -4.2341819641394165e-05 0.0000000000000000e+00  -7.0213976983828319e-06 -4.0781862136496384e-05 0.0000000000000000e+00  -6.5314627537647995e-06 -3.9228725496396233e-05 0.0000000000000000e+00  -6.0644741414635407e-06 -3.7677113945808374e-05 0.0000000000000000e+00  -5.6123324290097420e-06 -3.6141786099538516e-05 0.0000000000000000e+00  -5.1812332921189663e-06 -3.4604630862348983e-05 0.0000000000000000e+00  -4.7644786672766000e-06 -3.3086914652188537e-05 0.0000000000000000e+00  -4.3691119517690645e-06 -3.1570298872376308e-05 0.0000000000000000e+00  -3.9867541504572678e-06 -3.0075765314865740e-05 0.0000000000000000e+00  -3.6259397602755090e-06 -2.8584839924691118e-05 0.0000000000000000e+00  -3.2770148919244920e-06 -2.7118786994769426e-05 0.0000000000000000e+00  -2.9504293741218569e-06 -2.5659007342634424e-05 0.0000000000000000e+00  -2.6346321609705917e-06 -2.4225987411639302e-05 0.0000000000000000e+00  -2.3424610605967087e-06 -2.2802066032264258e-05 0.0000000000000000e+00  -2.0598915002579500e-06 -2.1409011207468646e-05 0.0000000000000000e+00  -1.8011654027546190e-06 -2.0028456538179530e-05 0.0000000000000000e+00  -1.5504008453250563e-06 -1.8681422714023449e-05 0.0000000000000000e+00  -1.3247234157199330e-06 -1.7350494332135533e-05 0.0000000000000000e+00  -1.1091483520812520e-06 -1.6052311301833789e-05 0.0000000000000000e+00  -9.1346566325542467e-07 -1.4778904091112979e-05 0.0000000000000000e+00  -7.3847933747958848e-07 -1.3539808805020136e-05 0.0000000000000000e+00  -5.6618380390428696e-07 -1.2329792409761932e-05 0.0000000000000000e+00  -4.1907949337377217e-07 -1.1149874852370058e-05 0.0000000000000000e+00  -2.8316746704365458e-07 -1.0015820666851358e-05 0.0000000000000000e+00  -1.6755191170673135e-07 -8.9071485198507499e-06 0.0000000000000000e+00  -6.4079363266224819e-08 -7.8501459845333398e-06 0.0000000000000000e+00  1.9649989799256058e-08 -6.8214427431163876e-06 0.0000000000000000e+00  9.4204047657463201e-08 -5.8507553102444705e-06 0.0000000000000000e+00  1.4770391239827022e-07 -4.9134744273603915e-06 0.0000000000000000e+00  1.8214895407555835e-07 -4.0357902502562575e-06 0.0000000000000000e+00  2.1796102612879058e-07 -3.1978095460027014e-06 0.0000000000000000e+00  2.2810227353707498e-07 -2.4162663045448186e-06 0.0000000000000000e+00  2.2873869242651634e-07 -1.6969945858086973e-06 0.0000000000000000e+00  2.0907631682964576e-07 -1.0263991480860405e-06 0.0000000000000000e+00  1.8424302352914831e-07 -4.2733286541697078e-07 0.0000000000000000e+00  1.3545805209422434e-07 1.2064889276572151e-07 0.0000000000000000e+00  6.8397422221512042e-08 5.9322658849606737e-07 0.0000000000000000e+00  9.0804245661367020e-09 1.0087490770076180e-06 0.0000000000000000e+00  -7.8822871335234728e-08 1.3655826281692878e-06 0.0000000000000000e+00  -1.4132001077176079e-07 1.6436028467144267e-06 0.0000000000000000e+00  -1.8029021344073074e-07 1.7897872822795311e-06 0.0000000000000000e+00  -1.1725835211333132e-07 1.7525984967183087e-06 0.0000000000000000e+00  -3.5567350436983000e-07 -8.4882801156682089e-08 0.0000000000000000e+00  -7.3819438139477503e-06 -4.8851956584974579e-05 0.0000000000000000e+00  -6.2718494126938571e-06 -4.5903593416924571e-05 0.0000000000000000e+00  -4.7016839841582035e-06 -4.1095128343240839e-05 0.0000000000000000e+00  2.0531448461687230e-07 -4.2769417945944756e-07 0.0000000000000000e+00  -3.8255620764630927e-06 -3.8088783831559092e-05 0.0000000000000000e+00  5.3638674328318561e-07 -1.0191659524006081e-06 0.0000000000000000e+00  -2.9843733342663684e-06 -3.5071227680153156e-05 0.0000000000000000e+00  9.5563356722982027e-07 -2.5516270819221802e-06 0.0000000000000000e+00  1.1490856945161155e-06 -3.8438648255615332e-06 0.0000000000000000e+00  -2.2197062086937710e-06 -3.2094177804174726e-05 0.0000000000000000e+00  1.3005244206929966e-06 -8.0381433509254107e-06 0.0000000000000000e+00  -9.1743816153829625e-07 -2.6302913096064409e-05 0.0000000000000000e+00  1.2541670656335722e-06 -5.2716149222409480e-06 0.0000000000000000e+00  1.2573869554706365e-06 -1.0021445508368140e-05 0.0000000000000000e+00  -3.7874443024400567e-07 -2.3510495204313052e-05 0.0000000000000000e+00  -1.5308546559281588e-06 -2.9167702111586837e-05 0.0000000000000000e+00  1.1262603461514538e-06 -1.2182931783352751e-05 0.0000000000000000e+00  8.5273429674369152e-08 -2.0803484989106754e-05 0.0000000000000000e+00  9.1236304516371361e-07 -1.4373525933913558e-05 0.0000000000000000e+00  4.9167996706195438e-07 -1.8265982290165602e-05 0.0000000000000000e+00  7.2583772905165150e-07 -1.6211822467387020e-05 0.0000000000000000e+00  1.3091841439867549e-06 -6.5699427651905058e-06 0.0000000000000000e+00  -5.5379047787450817e-06 -4.3571191155135869e-05 0.0000000000000000e+00  7.5853532230062643e-07 -1.7115388426828789e-06 0.0000000000000000e+00  -7.5366422562457225e-06 -4.7008430730212241e-05 0.0000000000000000e+00  -1.1743904866967313e-07 5.2823425698638241e-07 0.0000000000000000e+00  -3.9816906073972261e-06 -3.6224685427249840e-05 0.0000000000000000e+00  -4.8672375427681782e-06 -3.9272233970867867e-05 0.0000000000000000e+00  5.3625043638799672e-07 -1.4144025315522281e-06 0.0000000000000000e+00  1.3129467031996345e-06 -3.7122238101736443e-06 0.0000000000000000e+00  -1.7711811652244445e-06 -2.7335570761619094e-05 0.0000000000000000e+00  -3.1708797297963258e-06 -3.3212447815047956e-05 0.0000000000000000e+00  1.6837353709159493e-06 -9.4968244116403849e-06 0.0000000000000000e+00  -1.1807686427736640e-06 -2.4491973203157452e-05 0.0000000000000000e+00  1.5103869748467801e-06 -5.1067502465027286e-06 0.0000000000000000e+00  1.6189023596026983e-06 -1.1567374418853267e-05 0.0000000000000000e+00  -6.6301025148077692e-07 -2.1727391619227783e-05 0.0000000000000000e+00  -2.4343920979543236e-06 -3.0245713797286997e-05 0.0000000000000000e+00  1.5796532459764816e-06 -1.3881182844258675e-05 0.0000000000000000e+00  -2.1700089305926026e-07 -1.9054778149573085e-05 0.0000000000000000e+00  -3.7173477082339427e-07 -4.5570702642835415e-07 0.0000000000000000e+00  -3.9529496781405505e-07 3.8479308668209426e-07 0.0000000000000000e+00  -7.3764316058458052e-06 -5.0303038410920802e-05 0.0000000000000000e+00  7.15690459