<?xml version="1.0"?>
<VTKFile type="UnstructuredGrid"  version="0.1"  >
<UnstructuredGrid>
<Piece  NumberOfPoints="1419" NumberOfCells="2698">
<Points>
<DataArray  type="Float64"  NumberOfComponents="3"  format="ascii">0 0 0  0 0.41 0  2.5 0 0  2.5 0.41 0  0.6 0.19 0  0.6 0.21 0  0.25 0.2 0  0.15 0.2 0  0.2489897948556636 0.21 0  0.2489897948556636 0.19 0  0.6 0.2 0  0 0.3807142857143437 0  0 0.3514285714286952 0  0 0.3221428571430699 0  0 0.29285714285744 0  0 0.2635714285718054 0  0 0.2342857142861561 0  0 0.2050000000005308 0  0 0.175714285714732 0  0 0.1464285714289574 0  0 0.1171428571431897 0  0 0.08785714285737878 0  0 0.05857142857161107 0  0 0.02928571428580012 0  0.03015443760436003 0 0  0.06140001986583606 0 0  0.09377624077125973 0 0  0.1273239957535082 0 0  0.1620856860351972 0 0  0.1981052433264291 0 0  0.235428184091502 0 0  0.2741016576309132 0 0  0.3141745521465447 0 0  0.3556974926295285 0 0  0.3987229542472677 0 0  0.4433053055141081 0 0  0.4895008759286886 0 0  0.5373680609405097 0 0  0.5869673343216626 0 0  0.6383613676634521 0 0  0.6916151138468254 0 0  0.7467958595648856 0 0  0.8039733463919316 0 0  0.8632198139502143 0 0  0.9246101326867038 0 0  0.9882218810934433 0 0  1.054135445558498 0 0  1.122434100542598 0 0  1.193204177141305 0 0  1.266535089879536 0 0  1.342519516046404 0 0  1.421253448503939 0 0  1.502836389106271 0 0  1.587371439758838 0 0  1.674965418777374 0 0  1.765729001825544 0 0  1.859776908880082 0 0  1.957227977487062 0 0  2.058205329869943 0 0  2.162836591189951 0 0  2.271253957290865 0 0  2.383594446803425 0 0  2.5 0.1024999999997612 0  2.5 0.2049999999994743 0  2.5 0.3074999999997183 0  2.383594446803656 0.41 0  2.271253957291315 0.41 0  2.162836591190598 0.41 0  2.058205329870775 0.41 0  1.957227977488067 0.41 0  1.859776908881246 0.41 0  1.765729001826854 0.41 0  1.674965418778818 0.41 0  1.58737143976041 0.41 0  1.502836389107956 0.41 0  1.421253448505726 0.41 0  1.342519516048286 0.41 0  1.266535089881505 0.41 0  1.193204177143353 0.41 0  1.122434100544716 0.41 0  1.05413544556068 0.41 0  0.9882218810956305 0.41 0  0.9246101326886647 0.41 0  0.8632198139519631 0.41 0  0.8039733463934788 0.41 0  0.7467958595662458 0.41 0  0.6916151138480078 0.41 0  0.6383613676644679 0.41 0  0.5869673343225223 0.41 0  0.5373680609412221 0.41 0  0.4895008759292634 0.41 0  0.4433053055145528 0.41 0  0.3987229542475914 0.41 0  0.3556974926297398 0.41 0  0.3141745521466497 0.41 0  0.2741016576310038 0.41 0  0.2354281840915826 0.41 0  0.1981052433265003 0.41 0  0.1620856860352591 0.41 0  0.1273239957535623 0.41 0  0.09377624077128965 0.41 0  0.06140001986584975 0.41 0  0.03015443760436654 0.41 0  0.2497468076502589 0.2050254481002335 0  0.2497468076502614 0.1949745518997913 0  0.2469965252529372 0.1829317073451959 0  0.2439893735792749 0.1762316384219906 0  0.2400332147834255 0.1700443375285386 0  0.2352133972704371 0.1645032867342007 0  0.2296339016332438 0.1597280261969788 0  0.2234150974217223 0.1558215752574715 0  0.2166911463437691 0.1528682099456123 0  0.2096071079204251 0.1509316448471593 0  0.2023158100364996 0.1500536585536553 0  0.194974551899914 0.1502531923497262 0  0.1877417105387872 0.1515259415822739 0  0.1807733240461124 0.153844448527136 0  0.1742197252835808 0.15715869474974 0  0.1682222986673531 0.1613971801805478 0  0.162910430003803 0.1664684656256651 0  0.1583987151779087 0.1722631454351573 0  0.1547844879126891 0.178656207771761 0  0.1521457199348551 0.1855097315605723 0  0.1505393388476355 0.1926758619366523 0  0.1505393388476328 0.2073241380633295 0  0.1521457199348437 0.2144902684393899 0  0.1547844879126531 0.221343792228163 0  0.1583987151778488 0.2277368545647528 0  0.1629104300036858 0.2335315343742052 0  0.1682222986671726 0.2386028198193036 0  0.1742197252833576 0.2428413052501257 0  0.1807733240458683 0.2461555514727623 0  0.1877417105384929 0.2484740584176516 0  0.1949745518995776 0.2497468076502398 0  0.202315810036185 0.2499463414463592 0  0.2096071079201568 0.2490683551528932 0  0.2166911463435495 0.2471317900544655 0  0.2234150974215506 0.2441784247426195 0  0.2296339016331197 0.2402719738031125 0  0.2352133972703547 0.2354967132658811 0  0.2400332147833751 0.2299556624715287 0  0.2439893735792577 0.2237683615780412 0  0.246996525252926 0.2170682926548348 0  0.25645809709277 0.21 0  0.2639263993298655 0.21 0  0.271394701566961 0.21 0  0.2788630038040554 0.21 0  0.2863313060411479 0.21 0  0.2937996082782405 0.21 0  0.301267910515333 0.21 0  0.3087362127524279 0.21 0  0.3162045149895234 0.21 0  0.3236728172265972 0.21 0  0.3311411194636928 0.21 0  0.3386094217007701 0.21 0  0.3460777239378666 0.21 0  0.3535460261749672 0.21 0  0.3610143284120516 0.21 0  0.3684826306491596 0.21 0  0.3759509328862226 0.21 0  0.383419235123329 0.21 0  0.3908875373604028 0.21 0  0.3983558395975142 0.21 0  0.4058241418345938 0.21 0  0.4132924440716992 0.21 0  0.4207607463087888 0.21 0  0.4282290485459029 0.21 0  0.4356973507830418 0.21 0  0.4431656530201649 0.21 0  0.4506339552573136 0.21 0  0.4581022574944306 0.21 0  0.4655705597315852 0.21 0  0.4730388619686996 0.21 0  0.480507164205851 0.21 0  0.4879754664429498 0.21 0  0.4954437686800938 0.21 0  0.502912070917267 0.21 0  0.5103803731544119 0.21 0  0.5178486753915261 0.21 0  0.5253169776286404 0.21 0  0.5327852798657868 0.21 0  0.5402535821029386 0.21 0  0.54772188434007 0.21 0  0.5551901865771842 0.21 0  0.5626584888143201 0.21 0  0.5701267910514778 0.21 0  0.5775950932886138 0.21 0  0.5850633955257281 0.21 0  0.5925316977628483 0.21 0  0.6 0.2050000000000054 0  0.6 0.1950000000000217 0  0.5925316977628897 0.19 0  0.5850633955257988 0.19 0  0.5775950932887378 0.19 0  0.5701267910515998 0.19 0  0.5626584888145268 0.19 0  0.5551901865773963 0.19 0  0.547721884340339 0.19 0  0.5402535821032429 0.19 0  0.5327852798661811 0.19 0  0.5253169776290537 0.19 0  0.5178486753919799 0.19 0  0.5103803731549078 0.19 0  0.502912070917822 0.19 0  0.4954437686807294 0.19 0  0.4879754664436223 0.19 0  0.4805071642065402 0.19 0  0.4730388619694271 0.19 0  0.4655705597323621 0.19 0  0.4581022574952563 0.19 0  0.4506339552581777 0.19 0  0.4431656530210671 0.19 0  0.4356973507839815 0.19 0  0.4282290485468779 0.19 0  0.4207607463097617 0.19 0  0.4132924440726327 0.19 0  0.4058241418354857 0.19 0  0.3983558395983636 0.19 0  0.3908875373612097 0.19 0  0.3834192351240934 0.19 0  0.3759509328869369 0.19 0  0.3684826306498175 0.19 0  0.361014328412667 0.19 0  0.3535460261755617 0.19 0  0.3460777239384295 0.19 0  0.3386094217012945 0.19 0  0.3311411194641595 0.19 0  0.3236728172270245 0.19 0  0.3162045149898895 0.19 0  0.3087362127527544 0.19 0  0.3012679105156187 0.19 0  0.2937996082784807 0.19 0  0.2863313060413428 0.19 0  0.2788630038042048 0.19 0  0.2713947015670686 0.19 0  0.2639263993299336 0.19 0  0.2564580970927985 0.19 0  0.2607803159922026 0.2000727136295815 0  0.5887803774232762 0.2001272386983733 0  0.5745072403740523 0.2002044435018727 0  0.5511891430099709 0.2001122610077113 0  0.2751288526855082 0.20000000000002 0  0.5365194309847112 0.1999999999999436 0  0.2894621222999649 0.1998691686390484 0  0.5215828265105155 0.1999999999999228 0  0.3127789816668748 0.1998657885438805 0  0.3274069683451451 0.2000000000000796 0  0.5066462220363641 0.199999999999908 0  0.3650630746574081 0.199866017807523 0  0.476773013087985 0.1999999999998713 0  0.3417402379596385 0.1998691686391011 0  0.3796850840047755 0.200000000000134 0  0.4618364086138087 0.1999999999998546 0  0.4917096175621762 0.1999999999998808 0  0.3946216884789568 0.2000000000001512 0  0.446899804139621 0.1999999999998389 0  0.4089549580935208 0.1998691686391595 0  0.4322718174608562 0.200127451265745 0  0.4201487168029707 0.1999966199048527 0  0.3528922713220932 0.2000185703532356 0  0.5633122436674589 0.1999814296467508 0  0.3006558810093873 0.1999966199048318 0  0.5815926498168407 0.1966545283159175 0  0.2677053789419034 0.1964246479135325 0  0.5290511287476175 0.1970915826863981 0  0.5439877332217911 0.197091582686394 0  0.2825131256993216 0.2035478995978015 0  0.3199386661080599 0.202908417313604 0  0.4842413153250809 0.1970915826863873 0  0.5141145242734466 0.1970915826863843 0  0.3722167817676917 0.2029084173136195 0  0.4693047108508938 0.1970915826863783 0  0.3348752705822316 0.202908417313609 0  0.3871533862418661 0.2029084173136212 0  0.4543681063767183 0.1970915826863795 0  0.4991779197992749 0.1970915826863902 0  0.4020059614928624 0.203547899597858 0  0.4394315019025246 0.1970915826863714 0  0.2550657455369551 0.2034088125358657 0  0.2548908499171161 0.1966940311614271 0  0.5946539510196798 0.2024302972968126 0  0.267698176732111 0.2039977513680092 0  0.4261685417851465 0.196409292431739 0  0.3590076176283495 0.196411355804271 0  0.5571672426447437 0.2036011176410121 0  0.3066757059912147 0.1964092924317024 0  0.594380730180568 0.1966558399668133 0  0.4842413153245942 0.2040749161535287 0  0.4693047108503577 0.2040749161535231 0  0.3871533862424271 0.1959250838464788 0  0.372246743208829 0.1959123236376545 0  0.5141145242731028 0.2040749161535395 0  0.4543681063761134 0.2040749161535186 0  0.4019979587101454 0.1959834479682427 0  0.4394608940728603 0.2040870543693135 0  0.5439623148931173 0.2040856076781014 0  0.5290511287473298 0.2040749161535501 0  0.4991779197988497 0.2040749161535382 0  0.3347912413592433 0.1959225448935183 0  0.3199680582793816 0.1959123018030061 0  0.2825051229162361 0.1959834479681729 0  0.3590471196690275 0.2036304442587945 0  0.5571594006495384 0.1963685282145804 0  0.3067669986803285 0.203627750582736 0  0.4262598344738712 0.2036568242185335 0  0.5814408164431408 0.2041285596160068 0  0.5688286748170428 0.1961819304477386 0  0.4145905603063645 0.2038180695522843 0  0.3473758401724931 0.2038180695522752 0  0.2950977245128307 0.2038180695522663 0  0.5688286748170693 0.203818069552238 0  0.2950977245127906 0.1961819304477774 0  0.3473758401723931 0.1961819304478349 0  0.4145905603061963 0.1961819304479011 0  0.2601812407614425 0.2056861609747042
[...]
<PointData  Vectors="f_40-1"> 
<DataArray  type="Float64"  Name="f_40-1"  NumberOfComponents="3" format="ascii">0.0000000000000000e+00 0.0000000000000000e+00 0.0000000000000000e+00  0.0000000000000000e+00 0.0000000000000000e+00 0.0000000000000000e+00  0.0000000000000000e+00 0.0000000000000000e+00 0.0000000000000000e+00  0.0000000000000000e+00 0.0000000000000000e+00 0.0000000000000000e+00  -9.9369833642322227e-06 -3.7955941631693298e-05 0.0000000000000000e+00  -6.7491783828503451e-06 -3.9911404607447946e-05 0.0000000000000000e+00  0.0000000000000000e+00 0.0000000000000000e+00 0.0000000000000000e+00  0.0000000000000000e+00 0.0000000000000000e+00 0.0000000000000000e+00  0.0000000000000000e+00 0.0000000000000000e+00 0.0000000000000000e+00  0.0000000000000000e+00 0.0000000000000000e+00 0.0000000000000000e+00  -8.4719476155787037e-06 -3.8934494221600565e-05 0.0000000000000000e+00  0.0000000000000000e+00 0.0000000000000000e+00 0.0000000000000000e+00  0.0000000000000000e+00 0.0000000000000000e+00 0.0000000000000000e+00  0.0000000000000000e+00 0.0000000000000000e+00 0.0000000000000000e+00  0.0000000000000000e+00 0.0000000000000000e+00 0.0000000000000000e+00  0.0000000000000000e+00 0.0000000000000000e+00 0.0000000000000000e+00  0.0000000000000000e+00 0.0000000000000000e+00 0.0000000000000000e+00  0.0000000000000000e+00 0.0000000000000000e+00 0.0000000000000000e+00  0.0000000000000000e+00 0.0000000000000000e+00 0.0000000000000000e+00  0.0000000000000000e+00 0.0000000000000000e+00 0.0000000000000000e+00  0.0000000000000000e+00 0.0000000000000000e+00 0.0000000000000000e+00  0.0000000000000000e+00 0.0000000000000000e+00 0.0000000000000000e+00  0.0000000000000000e+00 0.0000000000000000e+00 0.0000000000000000e+00  0.0000000000000000e+00 0.0000000000000000e+00 0.0000000000000000e+00  0.0000000000000000e+00 0.0000000000000000e+00 0.0000000000000000e+00  0.0000000000000000e+00 0.0000000000000000e+00 0.0000000000000000e+00  0.0000000000000000e+00 0.0000000000000000e+00 0.0000000000000000e+00  0.0000000000000000e+00 0.0000000000000000e+00 0.0000000000000000e+00  0.0000000000000000e+00 0.0000000000000000e+00 0.0000000000000000e+00  0.0000000000000000e+00 0.0000000000000000e+00 0.0000000000000000e+00  0.0000000000000000e+00 0.0000000000000000e+00 0.0000000000000000e+00  0.0000000000000000e+00 0.0000000000000000e+00 0.0000000000000000e+00  0.0000000000000000e+00 0.0000000000000000e+00 0.0000000000000000e+00  0.0000000000000000e+00 0.0000000000000000e+00 0.0000000000000000e+00  0.0000000000000000e+00 0.0000000000000000e+00 0.0000000000000000e+00  0.0000000000000000e+00 0.0000000000000000e+00 0.0000000000000000e+00  0.0000000000000000e+00 0.0000000000000000e+00 0.0000000000000000e+00  0.0000000000000000e+00 0.0000000000000000e+00 0.0000000000000000e+00  0.0000000000000000e+00 0.0000000000000000e+00 0.0000000000000000e+00  0.0000000000000000e+00 0.0000000000000000e+00 0.0000000000000000e+00  0.0000000000000000e+00 0.0000000000000000e+00 0.0000000000000000e+00  0.0000000000000000e+00 0.0000000000000000e+00 0.0000000000000000e+00  0.0000000000000000e+00 0.0000000000000000e+00 0.0000000000000000e+00  0.0000000000000000e+00 0.0000000000000000e+00 0.0000000000000000e+00  0.0000000000000000e+00 0.0000000000000000e+00 0.0000000000000000e+00  0.0000000000000000e+00 0.0000000000000000e+00 0.0000000000000000e+00  0.0000000000000000e+00 0.0000000000000000e+00 0.0000000000000000e+00  0.0000000000000000e+00 0.0000000000000000e+00 0.0000000000000000e+00  0.0000000000000000e+00 0.0000000000000000e+00 0.0000000000000000e+00  0.0000000000000000e+00 0.0000000000000000e+00 0.0000000000000000e+00  0.0000000000000000e+00 0.0000000000000000e+00 0.0000000000000000e+00  0.0000000000000000e+00 0.0000000000000000e+00 0.0000000000000000e+00  0.0000000000000000e+00 0.0000000000000000e+00 0.0000000000000000e+00  0.0000000000000000e+00 0.0000000000000000e+00 0.0000000000000000e+00  0.0000000000000000e+00 0.0000000000000000e+00 0.0000000000000000e+00  0.0000000000000000e+00 0.0000000000000000e+00 0.0000000000000000e+00  0.0000000000000000e+00 0.0000000000000000e+00 0.0000000000000000e+00  0.0000000000000000e+00 0.0000000000000000e+00 0.0000000000000000e+00  0.0000000000000000e+00 0.0000000000000000e+00 0.0000000000000000e+00  0.0000000000000000e+00 0.0000000000000000e+00 0.0000000000000000e+00  0.0000000000000000e+00 0.0000000000000000e+00 0.0000000000000000e+00  0.0000000000000000e+00 0.0000000000000000e+00 0.0000000000000000e+00  0.0000000000000000e+00 0.0000000000000000e+00 0.0000000000000000e+00  0.0000000000000000e+00 0.0000000000000000e+00 0.0000000000000000e+00  0.0000000000000000e+00 0.0000000000000000e+00 0.0000000000000000e+00  0.0000000000000000e+00 0.0000000000000000e+00 0.0000000000000000e+00  0.0000000000000000e+00 0.0000000000000000e+00 0.0000000000000000e+00  0.0000000000000000e+00 0.0000000000000000e+00 0.0000000000000000e+00  0.0000000000000000e+00 0.0000000000000000e+00 0.0000000000000000e+00  0.0000000000000000e+00 0.0000000000000000e+00 0.0000000000000000e+00  0.0000000000000000e+00 0.0000000000000000e+00 0.0000000000000000e+00  0.0000000000000000e+00 0.0000000000000000e+00 0.0000000000000000e+00  0.0000000000000000e+00 0.0000000000000000e+00 0.0000000000000000e+00  0.0000000000000000e+00 0.0000000000000000e+00 0.0000000000000000e+00  0.0000000000000000e+00 0.0000000000000000e+00 0.0000000000000000e+00  0.0000000000000000e+00 0.0000000000000000e+00 0.0000000000000000e+00  0.0000000000000000e+00 0.0000000000000000e+00 0.0000000000000000e+00  0.0000000000000000e+00 0.0000000000000000e+00 0.0000000000000000e+00  0.0000000000000000e+00 0.0000000000000000e+00 0.0000000000000000e+00  0.0000000000000000e+00 0.0000000000000000e+00 0.0000000000000000e+00  0.0000000000000000e+00 0.0000000000000000e+00 0.0000000000000000e+00  0.0000000000000000e+00 0.0000000000000000e+00 0.0000000000000000e+00  0.0000000000000000e+00 0.0000000000000000e+00 0.0000000000000000e+00  0.0000000000000000e+00 0.0000000000000000e+00 0.0000000000000000e+00  0.0000000000000000e+00 0.0000000000000000e+00 0.0000000000000000e+00  0.0000000000000000e+00 0.0000000000000000e+00 0.0000000000000000e+00  0.0000000000000000e+00 0.0000000000000000e+00 0.0000000000000000e+00  0.0000000000000000e+00 0.0000000000000000e+00 0.0000000000000000e+00  0.0000000000000000e+00 0.0000000000000000e+00 0.0000000000000000e+00  0.0000000000000000e+00 0.0000000000000000e+00 0.0000000000000000e+00  0.0000000000000000e+00 0.0000000000000000e+00 0.0000000000000000e+00  0.0000000000000000e+00 0.0000000000000000e+00 0.0000000000000000e+00  0.0000000000000000e+00 0.0000000000000000e+00 0.0000000000000000e+00  0.0000000000000000e+00 0.0000000000000000e+00 0.0000000000000000e+00  0.0000000000000000e+00 0.0000000000000000e+00 0.0000000000000000e+00  0.0000000000000000e+00 0.0000000000000000e+00 0.0000000000000000e+00  0.0000000000000000e+00 0.0000000000000000e+00 0.0000000000000000e+00  0.0000000000000000e+00 0.0000000000000000e+00 0.0000000000000000e+00  0.0000000000000000e+00 0.0000000000000000e+00 0.0000000000000000e+00  0.0000000000000000e+00 0.0000000000000000e+00 0.0000000000000000e+00  0.0000000000000000e+00 0.0000000000000000e+00 0.0000000000000000e+00  0.0000000000000000e+00 0.0000000000000000e+00 0.0000000000000000e+00  0.0000000000000000e+00 0.0000000000000000e+00 0.0000000000000000e+00  0.0000000000000000e+00 0.0000000000000000e+00 0.0000000000000000e+00  0.0000000000000000e+00 0.0000000000000000e+00 0.0000000000000000e+00  0.0000000000000000e+00 0.0000000000000000e+00 0.0000000000000000e+00  0.0000000000000000e+00 0.0000000000000000e+00 0.0000000000000000e+00  0.0000000000000000e+00 0.0000000000000000e+00 0.0000000000000000e+00  0.0000000000000000e+00 0.0000000000000000e+00 0.0000000000000000e+00  0.0000000000000000e+00 0.0000000000000000e+00 0.0000000000000000e+00  0.0000000000000000e+00 0.0000000000000000e+00 0.0000000000000000e+00  0.0000000000000000e+00 0.0000000000000000e+00 0.0000000000000000e+00  0.0000000000000000e+00 0.0000000000000000e+00 0.0000000000000000e+00  0.0000000000000000e+00 0.0000000000000000e+00 0.0000000000000000e+00  0.0000000000000000e+00 0.0000000000000000e+00 0.0000000000000000e+00  0.0000000000000000e+00 0.0000000000000000e+00 0.0000000000000000e+00  0.0000000000000000e+00 0.0000000000000000e+00 0.0000000000000000e+00  0.0000000000000000e+00 0.0000000000000000e+00 0.0000000000000000e+00  0.0000000000000000e+00 0.0000000000000000e+00 0.0000000000000000e+00  0.0000000000000000e+00 0.0000000000000000e+00 0.0000000000000000e+00  0.0000000000000000e+00 0.0000000000000000e+00 0.0000000000000000e+00  0.0000000000000000e+00 0.0000000000000000e+00 0.0000000000000000e+00  0.0000000000000000e+00 0.0000000000000000e+00 0.0000000000000000e+00  0.0000000000000000e+00 0.0000000000000000e+00 0.0000000000000000e+00  0.0000000000000000e+00 0.0000000000000000e+00 0.0000000000000000e+00  0.0000000000000000e+00 0.0000000000000000e+00 0.0000000000000000e+00  0.0000000000000000e+00 0.0000000000000000e+00 0.0000000000000000e+00  0.0000000000000000e+00 0.0000000000000000e+00 0.0000000000000000e+00  0.0000000000000000e+00 0.0000000000000000e+00 0.0000000000000000e+00  0.0000000000000000e+00 0.0000000000000000e+00 0.0000000000000000e+00  0.0000000000000000e+00 0.0000000000000000e+00 0.0000000000000000e+00  0.0000000000000000e+00 0.0000000000000000e+00 0.0000000000000000e+00  0.0000000000000000e+00 0.0000000000000000e+00 0.0000000000000000e+00  0.0000000000000000e+00 0.0000000000000000e+00 0.0000000000000000e+00  0.0000000000000000e+00 0.0000000000000000e+00 0.0000000000000000e+00  0.0000000000000000e+00 0.0000000000000000e+00 0.0000000000000000e+00  0.0000000000000000e+00 0.0000000000000000e+00 0.0000000000000000e+00  0.0000000000000000e+00 0.0000000000000000e+00 0.0000000000000000e+00  0.0000000000000000e+00 0.0000000000000000e+00 0.0000000000000000e+00  0.0000000000000000e+00 0.0000000000000000e+00 0.0000000000000000e+00  0.0000000000000000e+00 0.0000000000000000e+00 0.0000000000000000e+00  0.0000000000000000e+00 0.0000000000000000e+00 0.0000000000000000e+00  0.0000000000000000e+00 0.0000000000000000e+00 0.0000000000000000e+00  2.2476854339141189e-08 -1.7113652438401775e-06 0.0000000000000000e+00  1.0381954136783821e-07 -1.9152584401067987e-06 0.0000000000000000e+00  2.6099318681878310e-07 -2.0781626051316069e-06 0.0000000000000000e+00  4.6216288927189673e-07 -2.2449995605666576e-06 0.0000000000000000e+00  6.5943447555220683e-07 -2.4600662592242614e-06 0.0000000000000000e+00  8.5082383732307873e-07 -2.7453480833845020e-06 0.0000000000000000e+00  1.0172411232053320e-06 -3.0700894861860506e-06 0.0000000000000000e+00  1.1646012447895286e-06 -3.4509017267360437e-06 0.0000000000000000e+00  1.3111416580484782e-06 -3.8755495626572963e-06 0.0000000000000000e+00  1.4234001514145894e-06 -4.3411522461774803e-06 0.0000000000000000e+00  1.5342805897791143e-06 -4.8590190681565890e-06 0.0000000000000000e+00  1.6122475335262596e-06 -5.4109634116780557e-06 0.0000000000000000e+00  1.6827399089284876e-06 -6.0076358105791494e-06 0.0000000000000000e+00  1.7281821357401820e-06 -6.6392630477825123e-06 0.0000000000000000e+00  1.7531466304246819e-06 -7.3097241629369885e-06 0.0000000000000000e+00  1.7732722991823207e-06 -8.0169052642058103e-06 0.0000000000000000e+00  1.7616828264217921e-06 -8.7489769229218543e-06 0.0000000000000000e+00  1.7428530578503173e-06 -9.5246438520961947e-06 0.0000000000000000e+00  1.6948713538341449e-06 -1.0318507141287259e-05 0.0000000000000000e+00  1.6390409112314710e-06 -1.1151591300653496e-05 0.0000000000000000e+00  1.5570723650828927e-06 -1.2001513340331290e-05 0.0000000000000000e+00  1.4605515120662860e-06 -1.2884306502566902e-05 0.0000000000000000e+00  1.3445215562799709e-06 -1.3788239457684952e-05 0.0000000000000000e+00  1.2080491274124927e-06 -1.4714969992992537e-05 0.0000000000000000e+00  1.0627946036379187e-06 -1.5666417870078968e-05 0.0000000000000000e+00  8.9297793135276906e-07 -1.6630280949979777e-05 0.0000000000000000e+00  7.0562174680937934e-07 -1.7626362297250987e-05 0.0000000000000000e+00  4.9985377676533758e-07 -1.8627918203365432e-05 0.0000000000000000e+00  2.7648442628937336e-07 -1.9657394721396812e-05 0.0000000000000000e+00  3.4686646457178587e-08 -2.0693107051485000e-05 0.0000000000000000e+00  -2.2382086615731519e-07 -2.1752723273590980e-05 0.0000000000000000e+00  -5.0214775651207583e-07 -2.2816206656314941e-05 0.0000000000000000e+00  -7.9567067423449121e-07 -2.3902697084686214e-05 0.0000000000000000e+00  -1.1095777244763866e-06 -2.4988376207655921e-05 0.0000000000000000e+00  -1.4417733880802948e-06 -2.6097368055823850e-05 0.0000000000000000e+00  -1.7917287991207362e-06 -2.7204773542731289e-05 0.0000000000000000e+00  -2.1586431043074218e-06 -2.8331030836755055e-05 0.0000000000000000e+00  -2.5440621970647060e-06 -2.9454818069495971e-05 0.0000000000000000e+00  -2.9474921982384042e-06 -3.0595104221365852e-05 0.0000000000000000e+00  -3.3705587294331736e-06 -3.1731921248975087e-05 0.0000000000000000e+00  -3.8128152215042927e-06 -3.2879940628100910e-05 0.0000000000000000e+00  -4.2708277645145405e-06 -3.4027654573476732e-05 0.0000000000000000e+00  -4.7502780977789507e-06 -3.5181815233540499e-05 0.0000000000000000e+00  -5.2400712284876024e-06 -3.6336574168074643e-05 0.0000000000000000e+00  -5.7507615401540904e-06 -3.7488053601157920e-05 0.0000000000000000e+00  -6.2652557293578305e-06 -3.8659095180531375e-05 0.0000000000000000e+00  -7.6557080991890544e-06 -3.9419281205006122e-05 0.0000000000000000e+00  -9.2414859930165822e-06 -3.8450007903253958e-05 0.0000000000000000e+00  -9.4423342137993820e-06 -3.6835118991389267e-05 0.0000000000000000e+00  -8.9196221401687404e-06 -3.5632045514779812e-05 0.0000000000000000e+00  -8.4004166288889397e-06 -3.4420442195066018e-05 0.0000000000000000e+00  -7.9001731492455151e-06 -3.3218016332366984e-05 0.0000000000000000e+00  -7.4109307877839693e-06 -3.2019036226449127e-05 0.0000000000000000e+00  -6.9429011378469917e-06 -3.0824788112782204e-05 0.0000000000000000e+00  -6.4865942017916102e-06 -2.9636283215864950e-05 0.0000000000000000e+00  -6.0505324294023997e-06 -2.8448848963602122e-05 0.0000000000000000e+00  -5.6278769482237918e-06 -2.7275234238913485e-05 0.0000000000000000e+00  -5.2237607746470943e-06 -2.6099480668149243e-05 0.0000000000000000e+00  -4.8327927835979658e-06 -2.4940150172767093e-05 0.0000000000000000e+00  -4.4606113270985991e-06 -2.3781016080368460e-05 0.0000000000000000e+00  -4.1005132754950051e-06 -2.2640298719854720e-05 0.0000000000000000e+00  -3.7592748643755842e-06 -2.1501574382405116e-05 0.0000000000000000e+00  -3.4292938093105458e-06 -2.0383371153020960e-05 0.0000000000000000e+00  -3.1187612600995405e-06 -1.9269126652540352e-05 0.0000000000000000e+00  -2.8187111813782261e-06 -1.8176696783393401e-05 0.0000000000000000e+00  -2.5391234365883782e-06 -1.7090356197061701e-05 0.0000000000000000e+00  -2.2690900815306148e-06 -1.6029017733477300e-05 0.0000000000000000e+00  -2.0195792222290228e-06 -1.4976257407820765e-05 0.0000000000000000e+00  -1.7783865444467060e-06 -1.3950377848886916e-05 0.0000000000000000e+00  -1.5586562470830196e-06 -1.2935809567201898e-05 0.0000000000000000e+00  -1.3492210885289087e-06 -1.1946943943866267e-05 0.0000000000000000e+00  -1.1567459924843807e-06 -1.0976978923153794e-05 0.0000000000000000e+00  -9.8288446061308383e-07 -1.0033094488305930e-05 0.0000000000000000e+00  -8.1256980335248302e-07 -9.1118553018100078e-06 0.0000000000000000e+00  -6.6415188271026166e-07 -8.2126470752509578e-06 0.0000000000000000e+00  -5.2645478981991240e-07 -7.3498728675849377e-06 0.0000000000000000e+00  -4.0655105466130372e-07 -6.5047367987005967e-06 0.0000000000000000e+00  -2.9819813819363250e-07 -5.7006017243793539e-06 0.0000000000000000e+00  -2.0711366261164988e-07 -4.9164062944339496e-06 0.0000000000000000e+00  -1.2555419566934858e-07 -4.1774978857589221e-06 0.0000000000000000e+00  -6.1556755926777180e-08 -3.4633438808543995e-06 0.0000000000000000e+00  -1.4730840926158207e-08 -2.7948747367004822e-06 0.0000000000000000e+00  3.1538387676720491e-08 -2.1564969895678310e-06 0.0000000000000000e+00  5.5773102531363295e-08 -1.5607244153433970e-06 0.0000000000000000e+00  7.0585835515671611e-08 -1.0132989340696783e-06 0.0000000000000000e+00  6.7865169839655539e-08 -5.0185917200173264e-07 0.0000000000000000e+00  5.8809802750220203e-08 -4.5353378044606486e-08 0.0000000000000000e+00  3.0085789015439476e-08 3.7246816097370174e-07 0.0000000000000000e+00  -1.5073411893553314e-08 7.3309500966940021e-07 0.0000000000000000e+00  -5.5701719131233539e-08 1.0500695809768455e-06 0.0000000000000000e+00  -1.2071820219902566e-07 1.3249523648852206e-06 0.0000000000000000e+00  -1.6476280116742355e-07 1.5392079512612042e-06 0.0000000000000000e+00  -1.8601890695189697e-07 1.6449514090718095e-06 0.0000000000000000e+00  -1.1788771534374324e-07 1.5955971027710951e-06 0.0000000000000000e+00  -3.6196628688620301e-07 -6.6214866449228547e-08 0.0000000000000000e+00  -7.6168950828671089e-06 -3.7159708536509969e-05 0.0000000000000000e+00  -6.5929920106532198e-06 -3.4907595575311307e-05 0.0000000000000000e+00  -5.1289506147946890e-06 -3.1234199334008114e-05 0.0000000000000000e+00  9.3386893532132392e-08 -3.2321812415208686e-07 0.0000000000000000e+00  -4.3050198485746842e-06 -2.8938282670117876e-05 0.0000000000000000e+00  3.4128624034241288e-07 -7.6666923813965849e-07 0.0000000000000000e+00  -3.5138285108749617e-06 -2.6637389753234172e-05 0.0000000000000000e+00  6.3729675387509080e-07 -1.9274279155592833e-06 0.0000000000000000e+00  7.5991970542080653e-07 -2.9104420215526504e-06 0.0000000000000000e+00  -2.7902289844018448e-06 -2.4369217971935836e-05 0.0000000000000000e+00  7.7530902656017935e-07 -6.0878104268871475e-06 0.0000000000000000e+00  -1.5437083897998176e-06 -1.9961752571090634e-05 0.0000000000000000e+00  8.0854836305586464e-07 -3.9893669415335271e-06 0.0000000000000000e+00  6.8834800389760431e-07 -7.5958932268806019e-06 0.0000000000000000e+00  -1.0198629168212106e-06 -1.7838608419367517e-05 0.0000000000000000e+00  -2.1336252959160231e-06 -2.2141239456043912e-05 0.0000000000000000e+00  5.2477966464809325e-07 -9.2360134709576454e-06 0.0000000000000000e+00  -5.6202982166924205e-07 -1.5781496181642655e-05 0.0000000000000000e+00  2.9256764315818320e-07 -1.0895479706983287e-05 0.0000000000000000e+00  -1.5889263919233202e-07 -1.3856820754694457e-05 0.0000000000000000e+00  8.9566297450215761e-08 -1.2294144106131855e-05 0.0000000000000000e+00  8.1953629410066213e-07 -4.9779892604314142e-06 0.0000000000000000e+00  -5.9032420656257440e-06 -3.3122484856254130e-05 0.0000000000000000e+00  5.0093098406591811e-07 -1.2946321254717269e-06 0.0000000000000000e+00  -7.6452729857726152e-06 -3.5696891527322153e-05 0.0000000000000000e+00  -1.5869261138535591e-07 5.1020065810042757e-07 0.0000000000000000e+00  -4.3480545969983215e-06 -2.7464247375078866e-05 0.0000000000000000e+00  -5.1780071603738286e-06 -2.9790640561180332e-05 0.0000000000000000e+00  3.4334825082968123e-07 -1.1717679103875078e-06 0.0000000000000000e+00  8.9724884850784529e-07 -2.8896610790153686e-06 0.0000000000000000e+00  -2.2537783061464069e-06 -2.0688775228162191e-05 0.0000000000000000e+00  -3.5843381702628143e-06 -2.5166541059335182e-05 0.0000000000000000e+00  1.0404715944106034e-06 -7.2704964619333624e-06 0.0000000000000000e+00  -1.6857221034699695e-06 -1.8524271032076852e-05 0.0000000000000000e+00  1.0185528799668978e-06 -3.9451490375859787e-06 0.0000000000000000e+00  9.3168217706411727e-07 -8.8398284905269979e-06 0.0000000000000000e+00  -1.1822304868476565e-06 -1.6421093258041535e-05 0.0000000000000000e+00  -2.8865321682083248e-06 -2.2905295645775939e-05 0.0000000000000000e+00  8.3388307426212142e-07 -1.0609255363057119e-05 0.0000000000000000e+00  -7.4248847322326178e-07 -1.4388804384781756e-05 0.0000000000000000e+00  -3.5782550609138673e-07 -4.0988714559738676e-07 0.0000000000000000e+00  -3.7401374105890661e-07 3.4956092798837288e-07 0.0000000000000000e+00  -7.6871238567747503e-06 -3.8304506187840610e-05 0.0000000000000000e+00 