<?xml version="1.0"?>
<VTKFile type="UnstructuredGrid"  version="0.1"  >
<UnstructuredGrid>
<Piece  NumberOfPoints="1419" NumberOfCells="2698">
<Points>
<DataArray  type="Float64"  NumberOfComponents="3"  format="ascii">0 0 0  0 0.41 0  2.5 0 0  2.5 0.41 0  0.6 0.19 0  0.6 0.21 0  0.25 0.2 0  0.15 0.2 0  0.2489897948556636 0.21 0  0.2489897948556636 0.19 0  0.6 0.2 0  0 0.3807142857143437 0  0 0.3514285714286952 0  0 0.3221428571430699 0  0 0.29285714285744 0  0 0.2635714285718054 0  0 0.2342857142861561 0  0 0.2050000000005308 0  0 0.175714285714732 0  0 0.1464285714289574 0  0 0.1171428571431897 0  0 0.08785714285737878 0  0 0.05857142857161107 0  0 0.02928571428580012 0  0.03015443760436003 0 0  0.06140001986583606 0 0  0.09377624077125973 0 0  0.1273239957535082 0 0  0.1620856860351972 0 0  0.1981052433264291 0 0  0.235428184091502 0 0  0.2741016576309132 0 0  0.3141745521465447 0 0  0.3556974926295285 0 0  0.3987229542472677 0 0  0.4433053055141081 0 0  0.4895008759286886 0 0  0.5373680609405097 0 0  0.5869673343216626 0 0  0.6383613676634521 0 0  0.6916151138468254 0 0  0.7467958595648856 0 0  0.8039733463919316 0 0  0.8632198139502143 0 0  0.9246101326867038 0 0  0.9882218810934433 0 0  1.054135445558498 0 0  1.122434100542598 0 0  1.193204177141305 0 0  1.266535089879536 0 0  1.342519516046404 0 0  1.421253448503939 0 0  1.502836389106271 0 0  1.587371439758838 0 0  1.674965418777374 0 0  1.765729001825544 0 0  1.859776908880082 0 0  1.957227977487062 0 0  2.058205329869943 0 0  2.162836591189951 0 0  2.271253957290865 0 0  2.383594446803425 0 0  2.5 0.1024999999997612 0  2.5 0.2049999999994743 0  2.5 0.3074999999997183 0  2.383594446803656 0.41 0  2.271253957291315 0.41 0  2.162836591190598 0.41 0  2.058205329870775 0.41 0  1.957227977488067 0.41 0  1.859776908881246 0.41 0  1.765729001826854 0.41 0  1.674965418778818 0.41 0  1.58737143976041 0.41 0  1.502836389107956 0.41 0  1.421253448505726 0.41 0  1.342519516048286 0.41 0  1.266535089881505 0.41 0  1.193204177143353 0.41 0  1.122434100544716 0.41 0  1.05413544556068 0.41 0  0.9882218810956305 0.41 0  0.9246101326886647 0.41 0  0.8632198139519631 0.41 0  0.8039733463934788 0.41 0  0.7467958595662458 0.41 0  0.6916151138480078 0.41 0  0.6383613676644679 0.41 0  0.5869673343225223 0.41 0  0.5373680609412221 0.41 0  0.4895008759292634 0.41 0  0.4433053055145528 0.41 0  0.3987229542475914 0.41 0  0.3556974926297398 0.41 0  0.3141745521466497 0.41 0  0.2741016576310038 0.41 0  0.2354281840915826 0.41 0  0.1981052433265003 0.41 0  0.1620856860352591 0.41 0  0.1273239957535623 0.41 0  0.09377624077128965 0.41 0  0.06140001986584975 0.41 0  0.03015443760436654 0.41 0  0.2497468076502589 0.2050254481002335 0  0.2497468076502614 0.1949745518997913 0  0.2469965252529372 0.1829317073451959 0  0.2439893735792749 0.1762316384219906 0  0.2400332147834255 0.1700443375285386 0  0.2352133972704371 0.1645032867342007 0  0.2296339016332438 0.1597280261969788 0  0.2234150974217223 0.1558215752574715 0  0.2166911463437691 0.1528682099456123 0  0.2096071079204251 0.1509316448471593 0  0.2023158100364996 0.1500536585536553 0  0.194974551899914 0.1502531923497262 0  0.1877417105387872 0.1515259415822739 0  0.1807733240461124 0.153844448527136 0  0.1742197252835808 0.15715869474974 0  0.1682222986673531 0.1613971801805478 0  0.162910430003803 0.1664684656256651 0  0.1583987151779087 0.1722631454351573 0  0.1547844879126891 0.178656207771761 0  0.1521457199348551 0.1855097315605723 0  0.1505393388476355 0.1926758619366523 0  0.1505393388476328 0.2073241380633295 0  0.1521457199348437 0.2144902684393899 0  0.1547844879126531 0.221343792228163 0  0.1583987151778488 0.2277368545647528 0  0.1629104300036858 0.2335315343742052 0  0.1682222986671726 0.2386028198193036 0  0.1742197252833576 0.2428413052501257 0  0.1807733240458683 0.2461555514727623 0  0.1877417105384929 0.2484740584176516 0  0.1949745518995776 0.2497468076502398 0  0.202315810036185 0.2499463414463592 0  0.2096071079201568 0.2490683551528932 0  0.2166911463435495 0.2471317900544655 0  0.2234150974215506 0.2441784247426195 0  0.2296339016331197 0.2402719738031125 0  0.2352133972703547 0.2354967132658811 0  0.2400332147833751 0.2299556624715287 0  0.2439893735792577 0.2237683615780412 0  0.246996525252926 0.2170682926548348 0  0.25645809709277 0.21 0  0.2639263993298655 0.21 0  0.271394701566961 0.21 0  0.2788630038040554 0.21 0  0.2863313060411479 0.21 0  0.2937996082782405 0.21 0  0.301267910515333 0.21 0  0.3087362127524279 0.21 0  0.3162045149895234 0.21 0  0.3236728172265972 0.21 0  0.3311411194636928 0.21 0  0.3386094217007701 0.21 0  0.3460777239378666 0.21 0  0.3535460261749672 0.21 0  0.3610143284120516 0.21 0  0.3684826306491596 0.21 0  0.3759509328862226 0.21 0  0.383419235123329 0.21 0  0.3908875373604028 0.21 0  0.3983558395975142 0.21 0  0.4058241418345938 0.21 0  0.4132924440716992 0.21 0  0.4207607463087888 0.21 0  0.4282290485459029 0.21 0  0.4356973507830418 0.21 0  0.4431656530201649 0.21 0  0.4506339552573136 0.21 0  0.4581022574944306 0.21 0  0.4655705597315852 0.21 0  0.4730388619686996 0.21 0  0.480507164205851 0.21 0  0.4879754664429498 0.21 0  0.4954437686800938 0.21 0  0.502912070917267 0.21 0  0.5103803731544119 0.21 0  0.5178486753915261 0.21 0  0.5253169776286404 0.21 0  0.5327852798657868 0.21 0  0.5402535821029386 0.21 0  0.54772188434007 0.21 0  0.5551901865771842 0.21 0  0.5626584888143201 0.21 0  0.5701267910514778 0.21 0  0.5775950932886138 0.21 0  0.5850633955257281 0.21 0  0.5925316977628483 0.21 0  0.6 0.2050000000000054 0  0.6 0.1950000000000217 0  0.5925316977628897 0.19 0  0.5850633955257988 0.19 0  0.5775950932887378 0.19 0  0.5701267910515998 0.19 0  0.5626584888145268 0.19 0  0.5551901865773963 0.19 0  0.547721884340339 0.19 0  0.5402535821032429 0.19 0  0.5327852798661811 0.19 0  0.5253169776290537 0.19 0  0.5178486753919799 0.19 0  0.5103803731549078 0.19 0  0.502912070917822 0.19 0  0.4954437686807294 0.19 0  0.4879754664436223 0.19 0  0.4805071642065402 0.19 0  0.4730388619694271 0.19 0  0.4655705597323621 0.19 0  0.4581022574952563 0.19 0  0.4506339552581777 0.19 0  0.4431656530210671 0.19 0  0.4356973507839815 0.19 0  0.4282290485468779 0.19 0  0.4207607463097617 0.19 0  0.4132924440726327 0.19 0  0.4058241418354857 0.19 0  0.3983558395983636 0.19 0  0.3908875373612097 0.19 0  0.3834192351240934 0.19 0  0.3759509328869369 0.19 0  0.3684826306498175 0.19 0  0.361014328412667 0.19 0  0.3535460261755617 0.19 0  0.3460777239384295 0.19 0  0.3386094217012945 0.19 0  0.3311411194641595 0.19 0  0.3236728172270245 0.19 0  0.3162045149898895 0.19 0  0.3087362127527544 0.19 0  0.3012679105156187 0.19 0  0.2937996082784807 0.19 0  0.2863313060413428 0.19 0  0.2788630038042048 0.19 0  0.2713947015670686 0.19 0  0.2639263993299336 0.19 0  0.2564580970927985 0.19 0  0.2607803159922026 0.2000727136295815 0  0.5887803774232762 0.2001272386983733 0  0.5745072403740523 0.2002044435018727 0  0.5511891430099709 0.2001122610077113 0  0.2751288526855082 0.20000000000002 0  0.5365194309847112 0.1999999999999436 0  0.2894621222999649 0.1998691686390484 0  0.5215828265105155 0.1999999999999228 0  0.3127789816668748 0.1998657885438805 0  0.3274069683451451 0.2000000000000796 0  0.5066462220363641 0.199999999999908 0  0.3650630746574081 0.199866017807523 0  0.476773013087985 0.1999999999998713 0  0.3417402379596385 0.1998691686391011 0  0.3796850840047755 0.200000000000134 0  0.4618364086138087 0.1999999999998546 0  0.4917096175621762 0.1999999999998808 0  0.3946216884789568 0.2000000000001512 0  0.446899804139621 0.1999999999998389 0  0.4089549580935208 0.1998691686391595 0  0.4322718174608562 0.200127451265745 0  0.4201487168029707 0.1999966199048527 0  0.3528922713220932 0.2000185703532356 0  0.5633122436674589 0.1999814296467508 0  0.3006558810093873 0.1999966199048318 0  0.5815926498168407 0.1966545283159175 0  0.2677053789419034 0.1964246479135325 0  0.5290511287476175 0.1970915826863981 0  0.5439877332217911 0.197091582686394 0  0.2825131256993216 0.2035478995978015 0  0.3199386661080599 0.202908417313604 0  0.4842413153250809 0.1970915826863873 0  0.5141145242734466 0.1970915826863843 0  0.3722167817676917 0.2029084173136195 0  0.4693047108508938 0.1970915826863783 0  0.3348752705822316 0.202908417313609 0  0.3871533862418661 0.2029084173136212 0  0.4543681063767183 0.1970915826863795 0  0.4991779197992749 0.1970915826863902 0  0.4020059614928624 0.203547899597858 0  0.4394315019025246 0.1970915826863714 0  0.2550657455369551 0.2034088125358657 0  0.2548908499171161 0.1966940311614271 0  0.5946539510196798 0.2024302972968126 0  0.267698176732111 0.2039977513680092 0  0.4261685417851465 0.196409292431739 0  0.3590076176283495 0.196411355804271 0  0.5571672426447437 0.2036011176410121 0  0.3066757059912147 0.1964092924317024 0  0.594380730180568 0.1966558399668133 0  0.4842413153245942 0.2040749161535287 0  0.4693047108503577 0.2040749161535231 0  0.3871533862424271 0.1959250838464788 0  0.372246743208829 0.1959123236376545 0  0.5141145242731028 0.2040749161535395 0  0.4543681063761134 0.2040749161535186 0  0.4019979587101454 0.1959834479682427 0  0.4394608940728603 0.2040870543693135 0  0.5439623148931173 0.2040856076781014 0  0.5290511287473298 0.2040749161535501 0  0.4991779197988497 0.2040749161535382 0  0.3347912413592433 0.1959225448935183 0  0.3199680582793816 0.1959123018030061 0  0.2825051229162361 0.1959834479681729 0  0.3590471196690275 0.2036304442587945 0  0.5571594006495384 0.1963685282145804 0  0.3067669986803285 0.203627750582736 0  0.4262598344738712 0.2036568242185335 0  0.5814408164431408 0.2041285596160068 0  0.5688286748170428 0.1961819304477386 0  0.4145905603063645 0.2038180695522843 0  0.3473758401724931 0.2038180695522752 0  0.2950977245128307 0.2038180695522663 0  0.5688286748170693 0.203818069552238 0  0.2950977245127906 0.1961819304477774 0  0.3473758401723931 0.1961819304478349 0  0.4145905603061963 0.1961819304479011 0  0.2601812407614425 0.2056861609747042
[...]
<PointData  Vectors="f_40-1"> 
<DataArray  type="Float64"  Name="f_40-1"  NumberOfComponents="3" format="ascii">0.0000000000000000e+00 0.0000000000000000e+00 0.0000000000000000e+00  0.0000000000000000e+00 0.0000000000000000e+00 0.0000000000000000e+00  0.0000000000000000e+00 0.0000000000000000e+00 0.0000000000000000e+00  0.0000000000000000e+00 0.0000000000000000e+00 0.0000000000000000e+00  -1.0453741844265182e-05 -6.0916616705406778e-05 0.0000000000000000e+00  -5.4212658021091202e-06 -6.3188316959467074e-05 0.0000000000000000e+00  0.0000000000000000e+00 0.0000000000000000e+00 0.0000000000000000e+00  0.0000000000000000e+00 0.0000000000000000e+00 0.0000000000000000e+00  0.0000000000000000e+00 0.0000000000000000e+00 0.0000000000000000e+00  0.0000000000000000e+00 0.0000000000000000e+00 0.0000000000000000e+00  -8.0996023456158563e-06 -6.2053302816776087e-05 0.0000000000000000e+00  0.0000000000000000e+00 0.0000000000000000e+00 0.0000000000000000e+00  0.0000000000000000e+00 0.0000000000000000e+00 0.0000000000000000e+00  0.0000000000000000e+00 0.0000000000000000e+00 0.0000000000000000e+00  0.0000000000000000e+00 0.0000000000000000e+00 0.0000000000000000e+00  0.0000000000000000e+00 0.0000000000000000e+00 0.0000000000000000e+00  0.0000000000000000e+00 0.0000000000000000e+00 0.0000000000000000e+00  0.0000000000000000e+00 0.0000000000000000e+00 0.0000000000000000e+00  0.0000000000000000e+00 0.0000000000000000e+00 0.0000000000000000e+00  0.0000000000000000e+00 0.0000000000000000e+00 0.0000000000000000e+00  0.0000000000000000e+00 0.0000000000000000e+00 0.0000000000000000e+00  0.0000000000000000e+00 0.0000000000000000e+00 0.0000000000000000e+00  0.0000000000000000e+00 0.0000000000000000e+00 0.0000000000000000e+00  0.0000000000000000e+00 0.0000000000000000e+00 0.0000000000000000e+00  0.0000000000000000e+00 0.0000000000000000e+00 0.0000000000000000e+00  0.0000000000000000e+00 0.0000000000000000e+00 0.0000000000000000e+00  0.0000000000000000e+00 0.0000000000000000e+00 0.0000000000000000e+00  0.0000000000000000e+00 0.0000000000000000e+00 0.0000000000000000e+00  0.0000000000000000e+00 0.0000000000000000e+00 0.0000000000000000e+00  0.0000000000000000e+00 0.0000000000000000e+00 0.0000000000000000e+00  0.0000000000000000e+00 0.0000000000000000e+00 0.0000000000000000e+00  0.0000000000000000e+00 0.0000000000000000e+00 0.0000000000000000e+00  0.0000000000000000e+00 0.0000000000000000e+00 0.0000000000000000e+00  0.0000000000000000e+00 0.0000000000000000e+00 0.0000000000000000e+00  0.0000000000000000e+00 0.0000000000000000e+00 0.0000000000000000e+00  0.0000000000000000e+00 0.0000000000000000e+00 0.0000000000000000e+00  0.0000000000000000e+00 0.0000000000000000e+00 0.0000000000000000e+00  0.0000000000000000e+00 0.0000000000000000e+00 0.0000000000000000e+00  0.0000000000000000e+00 0.0000000000000000e+00 0.0000000000000000e+00  0.0000000000000000e+00 0.0000000000000000e+00 0.0000000000000000e+00  0.0000000000000000e+00 0.0000000000000000e+00 0.0000000000000000e+00  0.0000000000000000e+00 0.0000000000000000e+00 0.0000000000000000e+00  0.0000000000000000e+00 0.0000000000000000e+00 0.0000000000000000e+00  0.0000000000000000e+00 0.0000000000000000e+00 0.0000000000000000e+00  0.0000000000000000e+00 0.0000000000000000e+00 0.0000000000000000e+00  0.0000000000000000e+00 0.0000000000000000e+00 0.0000000000000000e+00  0.0000000000000000e+00 0.0000000000000000e+00 0.0000000000000000e+00  0.0000000000000000e+00 0.0000000000000000e+00 0.0000000000000000e+00  0.0000000000000000e+00 0.0000000000000000e+00 0.0000000000000000e+00  0.0000000000000000e+00 0.0000000000000000e+00 0.0000000000000000e+00  0.0000000000000000e+00 0.0000000000000000e+00 0.0000000000000000e+00  0.0000000000000000e+00 0.0000000000000000e+00 0.0000000000000000e+00  0.0000000000000000e+00 0.0000000000000000e+00 0.0000000000000000e+00  0.0000000000000000e+00 0.0000000000000000e+00 0.0000000000000000e+00  0.0000000000000000e+00 0.0000000000000000e+00 0.0000000000000000e+00  0.0000000000000000e+00 0.0000000000000000e+00 0.0000000000000000e+00  0.0000000000000000e+00 0.0000000000000000e+00 0.0000000000000000e+00  0.0000000000000000e+00 0.0000000000000000e+00 0.0000000000000000e+00  0.0000000000000000e+00 0.0000000000000000e+00 0.0000000000000000e+00  0.0000000000000000e+00 0.0000000000000000e+00 0.0000000000000000e+00  0.0000000000000000e+00 0.0000000000000000e+00 0.0000000000000000e+00  0.0000000000000000e+00 0.0000000000000000e+00 0.0000000000000000e+00  0.0000000000000000e+00 0.0000000000000000e+00 0.0000000000000000e+00  0.0000000000000000e+00 0.0000000000000000e+00 0.0000000000000000e+00  0.0000000000000000e+00 0.0000000000000000e+00 0.0000000000000000e+00  0.0000000000000000e+00 0.0000000000000000e+00 0.0000000000000000e+00  0.0000000000000000e+00 0.0000000000000000e+00 0.0000000000000000e+00  0.0000000000000000e+00 0.0000000000000000e+00 0.0000000000000000e+00  0.0000000000000000e+00 0.0000000000000000e+00 0.0000000000000000e+00  0.0000000000000000e+00 0.0000000000000000e+00 0.0000000000000000e+00  0.0000000000000000e+00 0.0000000000000000e+00 0.0000000000000000e+00  0.0000000000000000e+00 0.0000000000000000e+00 0.0000000000000000e+00  0.0000000000000000e+00 0.0000000000000000e+00 0.0000000000000000e+00  0.0000000000000000e+00 0.0000000000000000e+00 0.0000000000000000e+00  0.0000000000000000e+00 0.0000000000000000e+00 0.0000000000000000e+00  0.0000000000000000e+00 0.0000000000000000e+00 0.0000000000000000e+00  0.0000000000000000e+00 0.0000000000000000e+00 0.0000000000000000e+00  0.0000000000000000e+00 0.0000000000000000e+00 0.0000000000000000e+00  0.0000000000000000e+00 0.0000000000000000e+00 0.0000000000000000e+00  0.0000000000000000e+00 0.0000000000000000e+00 0.0000000000000000e+00  0.0000000000000000e+00 0.0000000000000000e+00 0.0000000000000000e+00  0.0000000000000000e+00 0.0000000000000000e+00 0.0000000000000000e+00  0.0000000000000000e+00 0.0000000000000000e+00 0.0000000000000000e+00  0.0000000000000000e+00 0.0000000000000000e+00 0.0000000000000000e+00  0.0000000000000000e+00 0.0000000000000000e+00 0.0000000000000000e+00  0.0000000000000000e+00 0.0000000000000000e+00 0.0000000000000000e+00  0.0000000000000000e+00 0.0000000000000000e+00 0.0000000000000000e+00  0.0000000000000000e+00 0.0000000000000000e+00 0.0000000000000000e+00  0.0000000000000000e+00 0.0000000000000000e+00 0.0000000000000000e+00  0.0000000000000000e+00 0.0000000000000000e+00 0.0000000000000000e+00  0.0000000000000000e+00 0.0000000000000000e+00 0.0000000000000000e+00  0.0000000000000000e+00 0.0000000000000000e+00 0.0000000000000000e+00  0.0000000000000000e+00 0.0000000000000000e+00 0.0000000000000000e+00  0.0000000000000000e+00 0.0000000000000000e+00 0.0000000000000000e+00  0.0000000000000000e+00 0.0000000000000000e+00 0.0000000000000000e+00  0.0000000000000000e+00 0.0000000000000000e+00 0.0000000000000000e+00  0.0000000000000000e+00 0.0000000000000000e+00 0.0000000000000000e+00  0.0000000000000000e+00 0.0000000000000000e+00 0.0000000000000000e+00  0.0000000000000000e+00 0.0000000000000000e+00 0.0000000000000000e+00  0.0000000000000000e+00 0.0000000000000000e+00 0.0000000000000000e+00  0.0000000000000000e+00 0.0000000000000000e+00 0.0000000000000000e+00  0.0000000000000000e+00 0.0000000000000000e+00 0.0000000000000000e+00  0.0000000000000000e+00 0.0000000000000000e+00 0.0000000000000000e+00  0.0000000000000000e+00 0.0000000000000000e+00 0.0000000000000000e+00  0.0000000000000000e+00 0.0000000000000000e+00 0.0000000000000000e+00  0.0000000000000000e+00 0.0000000000000000e+00 0.0000000000000000e+00  0.0000000000000000e+00 0.0000000000000000e+00 0.0000000000000000e+00  0.0000000000000000e+00 0.0000000000000000e+00 0.0000000000000000e+00  0.0000000000000000e+00 0.0000000000000000e+00 0.0000000000000000e+00  0.0000000000000000e+00 0.0000000000000000e+00 0.0000000000000000e+00  0.0000000000000000e+00 0.0000000000000000e+00 0.0000000000000000e+00  0.0000000000000000e+00 0.0000000000000000e+00 0.0000000000000000e+00  0.0000000000000000e+00 0.0000000000000000e+00 0.0000000000000000e+00  0.0000000000000000e+00 0.0000000000000000e+00 0.0000000000000000e+00  0.0000000000000000e+00 0.0000000000000000e+00 0.0000000000000000e+00  0.0000000000000000e+00 0.0000000000000000e+00 0.0000000000000000e+00  0.0000000000000000e+00 0.0000000000000000e+00 0.0000000000000000e+00  0.0000000000000000e+00 0.0000000000000000e+00 0.0000000000000000e+00  0.0000000000000000e+00 0.0000000000000000e+00 0.0000000000000000e+00  0.0000000000000000e+00 0.0000000000000000e+00 0.0000000000000000e+00  0.0000000000000000e+00 0.0000000000000000e+00 0.0000000000000000e+00  0.0000000000000000e+00 0.0000000000000000e+00 0.0000000000000000e+00  0.0000000000000000e+00 0.0000000000000000e+00 0.0000000000000000e+00  0.0000000000000000e+00 0.0000000000000000e+00 0.0000000000000000e+00  0.0000000000000000e+00 0.0000000000000000e+00 0.0000000000000000e+00  0.0000000000000000e+00 0.0000000000000000e+00 0.0000000000000000e+00  0.0000000000000000e+00 0.0000000000000000e+00 0.0000000000000000e+00  0.0000000000000000e+00 0.0000000000000000e+00 0.0000000000000000e+00  0.0000000000000000e+00 0.0000000000000000e+00 0.0000000000000000e+00  0.0000000000000000e+00 0.0000000000000000e+00 0.0000000000000000e+00  0.0000000000000000e+00 0.0000000000000000e+00 0.0000000000000000e+00  0.0000000000000000e+00 0.0000000000000000e+00 0.0000000000000000e+00  0.0000000000000000e+00 0.0000000000000000e+00 0.0000000000000000e+00  0.0000000000000000e+00 0.0000000000000000e+00 0.0000000000000000e+00  0.0000000000000000e+00 0.0000000000000000e+00 0.0000000000000000e+00  0.0000000000000000e+00 0.0000000000000000e+00 0.0000000000000000e+00  0.0000000000000000e+00 0.0000000000000000e+00 0.0000000000000000e+00  0.0000000000000000e+00 0.0000000000000000e+00 0.0000000000000000e+00  0.0000000000000000e+00 0.0000000000000000e+00 0.0000000000000000e+00  0.0000000000000000e+00 0.0000000000000000e+00 0.0000000000000000e+00  0.0000000000000000e+00 0.0000000000000000e+00 0.0000000000000000e+00  0.0000000000000000e+00 0.0000000000000000e+00 0.0000000000000000e+00  0.0000000000000000e+00 0.0000000000000000e+00 0.0000000000000000e+00  1.0706685933397749e-07 -2.0527676723259003e-06 0.0000000000000000e+00  2.9099630016665789e-07 -2.3300159862156126e-06 0.0000000000000000e+00  5.6295836253683804e-07 -2.5820776070778339e-06 0.0000000000000000e+00  8.9058651020887015e-07 -2.8633461341417849e-06 0.0000000000000000e+00  1.2080431376503392e-06 -3.2227024596991387e-06 0.0000000000000000e+00  1.5227631039842116e-06 -3.6884995468005763e-06 0.0000000000000000e+00  1.8011271746757494e-06 -4.2183455028546275e-06 0.0000000000000000e+00  2.0556438802823896e-06 -4.8378552595846529e-06 0.0000000000000000e+00  2.3128072821175797e-06 -5.5272903081508773e-06 0.0000000000000000e+00  2.5211992290951893e-06 -6.2836997061194995e-06 0.0000000000000000e+00  2.7325965199796504e-06 -7.1212688871024311e-06 0.0000000000000000e+00  2.8969253156928626e-06 -8.0159786651080111e-06 0.0000000000000000e+00  3.0555600361856407e-06 -8.9810548583945596e-06 0.0000000000000000e+00  3.1785148850811786e-06 -1.0001360751947950e-05 0.0000000000000000e+00  3.2757486013916755e-06 -1.1084772199571653e-05 0.0000000000000000e+00  3.3693570435015858e-06 -1.2224964612463790e-05 0.0000000000000000e+00  3.4189363447097405e-06 -1.3407793060621048e-05 0.0000000000000000e+00  3.4626486644302674e-06 -1.4656184534792471e-05 0.0000000000000000e+00  3.4656808277065916e-06 -1.5937454925857249e-05 0.0000000000000000e+00  3.4615320103827120e-06 -1.7277133482578480e-05 0.0000000000000000e+00  3.4217643416920011e-06 -1.8647225870079984e-05 0.0000000000000000e+00  3.3654533359877095e-06 -2.0067468697672710e-05 0.0000000000000000e+00  3.2821169820505533e-06 -2.1520732049213746e-05 0.0000000000000000e+00  3.1732453100783419e-06 -2.3011396956958949e-05 0.0000000000000000e+00  3.0545434880725237e-06 -2.4538625752409092e-05 0.0000000000000000e+00  2.9034348413896433e-06 -2.6088760904149941e-05 0.0000000000000000e+00  2.7307207748827402e-06 -2.7685040289112443e-05 0.0000000000000000e+00  2.5340033999242340e-06 -2.9293674175550786e-05 0.0000000000000000e+00  2.3154938606824412e-06 -3.0942490097532839e-05 0.0000000000000000e+00  2.0730839261425464e-06 -3.2603457469324947e-05 0.0000000000000000e+00  1.8098531956544714e-06 -3.4298743954101065e-05 0.0000000000000000e+00  1.5212429745237531e-06 -3.6002279947589888e-05 0.0000000000000000e+00  1.2135403780376153e-06 -3.7737956996781206e-05 0.0000000000000000e+00  8.7982498224467946e-07 -3.9475517635109381e-05 0.0000000000000000e+00  5.2334127716168636e-07 -4.1244778462521848e-05 0.0000000000000000e+00  1.4414252052401482e-07 -4.3013986492575958e-05 0.0000000000000000e+00  -2.5629664689873827e-07 -4.4808607644797098e-05 0.0000000000000000e+00  -6.8021942980794230e-07 -4.6601390400006576e-05 0.0000000000000000e+00  -1.1266218642452646e-06 -4.8416106034053810e-05 0.0000000000000000e+00  -1.5977831391369886e-06 -5.0227188039037858e-05 0.0000000000000000e+00  -2.0929488354868408e-06 -5.2053092138411807e-05 0.0000000000000000e+00  -2.6080774698281847e-06 -5.3878917481985596e-05 0.0000000000000000e+00  -3.1498774535963014e-06 -5.5713167211127560e-05 0.0000000000000000e+00  -3.7046972983465957e-06 -5.7548306314201399e-05 0.0000000000000000e+00  -4.2859434636185743e-06 -5.9379073736071606e-05 0.0000000000000000e+00  -4.8724146438760074e-06 -6.1233741926424812e-05 0.0000000000000000e+00  -6.8169440985459902e-06 -6.2616119498942695e-05 0.0000000000000000e+00  -9.3232217680177260e-06 -6.1490922664486381e-05 0.0000000000000000e+00  -9.8914918030687021e-06 -5.9121723318107191e-05 0.0000000000000000e+00  -9.2945815975398302e-06 -5.7226504864066843e-05 0.0000000000000000e+00  -8.7024482059928913e-06 -5.5320821182316162e-05 0.0000000000000000e+00  -8.1339755094910821e-06 -5.3427087231546044e-05 0.0000000000000000e+00  -7.5791584549481505e-06 -5.1537845921224620e-05 0.0000000000000000e+00  -7.0503599587253059e-06 -4.9654933023737551e-05 0.0000000000000000e+00  -6.5357753340970393e-06 -4.7779739152442708e-05 0.0000000000000000e+00  -6.0462761064147924e-06 -4.5906485048864406e-05 0.0000000000000000e+00  -5.5727182392700246e-06 -4.4051540270629479e-05 0.0000000000000000e+00  -5.1221889742857363e-06 -4.2195096402521137e-05 0.0000000000000000e+00  -4.6868816067591342e-06 -4.0360570228484765e-05 0.0000000000000000e+00  -4.2750357068117010e-06 -3.8527972743814140e-05 0.0000000000000000e+00  -3.8768488928603032e-06 -3.6720500770561710e-05 0.0000000000000000e+00  -3.5023463140929822e-06 -3.4918082283354867e-05 0.0000000000000000e+00  -3.1401285265340256e-06 -3.3144162950846352e-05 0.0000000000000000e+00  -2.8025689307424932e-06 -3.1378563460603103e-05 0.0000000000000000e+00  -2.4759065812860946e-06 -2.9643865683220018e-05 0.0000000000000000e+00  -2.1754221666647003e-06 -2.7920912044566051e-05 0.0000000000000000e+00  -1.8844251121630296e-06 -2.6233758288313584e-05 0.0000000000000000e+00  -1.6199604237609698e-06 -2.4562547323469231e-05 0.0000000000000000e+00  -1.3629856491478778e-06 -2.2930468469189702e-05 0.0000000000000000e+00  -1.1340499212877151e-06 -2.1318695006248839e-05 0.0000000000000000e+00  -9.1485405048249526e-07 -1.9745677596643401e-05 0.0000000000000000e+00  -7.1794329235434063e-07 -1.8202511474370144e-05 0.0000000000000000e+00  -5.4331431165418851e-07 -1.6700784217545976e-05 0.0000000000000000e+00  -3.7050388333757984e-07 -1.5233674455037394e-05 0.0000000000000000e+00  -2.2551744364486300e-07 -1.3803746353528129e-05 0.0000000000000000e+00  -9.1938117096260755e-08 -1.2427766061127969e-05 0.0000000000000000e+00  1.9369002400103600e-08 -1.1084070338835480e-05 0.0000000000000000e+00  1.1822769540415998e-07 -9.8012360309459663e-06 0.0000000000000000e+00  1.9538736076180090e-07 -8.5541800446207864e-06 0.0000000000000000e+00  2.6393291152009647e-07 -7.3762331320596880e-06 0.0000000000000000e+00  3.0850618251835247e-07 -6.2393788552166490e-06 0.0000000000000000e+00  3.3261543922584164e-07 -5.1743856006619777e-06 0.0000000000000000e+00  3.5996502506437246e-07 -4.1576122097035315e-06 0.0000000000000000e+00  3.5868476388063083e-07 -3.2095981887083317e-06 0.0000000000000000e+00  3.4806416418953889e-07 -2.3361332689512501e-06 0.0000000000000000e+00  3.1492106610749496e-07 -1.5227759012507819e-06 0.0000000000000000e+00  2.7792148809882279e-07 -7.9570644518092131e-07 0.0000000000000000e+00  2.1333124039048853e-07 -1.3084820319189055e-07 0.0000000000000000e+00  1.2912170708791948e-07 4.4227285142526519e-07 0.0000000000000000e+00  5.5734641725389246e-08 9.4632939710451769e-07 0.0000000000000000e+00  -4.9637584671748780e-08 1.3765344401097385e-06 0.0000000000000000e+00  -1.2563304240114320e-07 1.7117012183653518e-06 0.0000000000000000e+00  -1.7776707162068197e-07 1.8947380792087460e-06 0.0000000000000000e+00  -1.1755845227597471e-07 1.8704378386237122e-06 0.0000000000000000e+00  -3.4719571354134813e-07 -1.0164734636149625e-07 0.0000000000000000e+00  -7.1083040510632070e-06 -5.9245953639454262e-05 0.0000000000000000e+00  -5.9335373914549031e-06 -5.5682297716699018e-05 0.0000000000000000e+00  -4.2861575312495468e-06 -4.9870764754972452e-05 0.0000000000000000e+00  2.9957461626663130e-07 -5.2222015603609823e-07 0.0000000000000000e+00  -3.3732422480347132e-06 -4.6236517628358134e-05 0.0000000000000000e+00  6.9943779380269322e-07 -1.2476190564022471e-06 0.0000000000000000e+00  -2.4965482864095288e-06 -4.2585180850575780e-05 0.0000000000000000e+00  1.2218509441382032e-06 -3.1148321656026295e-06 0.0000000000000000e+00  1.4753556510874761e-06 -4.6847814793685193e-06 0.0000000000000000e+00  -1.7034224740233767e-06 -3.8980927796735242e-05 0.0000000000000000e+00  1.7436257490062689e-06 -9.7912556912660472e-06 0.0000000000000000e+00  -3.6503633253864585e-07 -3.1964112500308258e-05 0.0000000000000000e+00  1.6284134992818994e-06 -6.4260247708631975e-06 0.0000000000000000e+00  1.7393220261625228e-06 -1.2199357461386739e-05 0.0000000000000000e+00  1.8145761397039761e-07 -2.8578209967741724e-05 0.0000000000000000e+00  -9.9306640004112679e-07 -3.5436063062736861e-05 0.0000000000000000e+00  1.6376825171318273e-06 -1.4826512444477397e-05 0.0000000000000000e+00  6.4644990603529475e-07 -2.5294295754571890e-05 0.0000000000000000e+00  1.4414551619319249e-06 -1.7491045512296750e-05 0.0000000000000000e+00  1.0521533965619259e-06 -2.2211940480051599e-05 0.0000000000000000e+00  1.2713313778728448e-06 -1.9720668193015663e-05 0.0000000000000000e+00  1.7215192196045650e-06 -8.0017218128214381e-06 0.0000000000000000e+00  -5.1686740966327982e-06 -5.2866490540876201e-05 0.0000000000000000e+00  9.7392334006381998e-07 -2.0878206083087964e-06 0.0000000000000000e+00  -7.3805568708942141e-06 -5.7069918614796161e-05 0.0000000000000000e+00  -8.2774754966760571e-08 5.3463181255078976e-07 0.0000000000000000e+00  -3.6338555362761477e-06 -4.4031365280322407e-05 0.0000000000000000e+00  -4.5593877691610056e-06 -4.7716393444927769e-05 0.0000000000000000e+00  7.0021076996399918e-07 -1.6247255855394506e-06 0.0000000000000000e+00  1.6648051546998044e-06 -4.4468328817736567e-06 0.0000000000000000e+00  -1.3430797991640832e-06 -3.3271988167312463e-05 0.0000000000000000e+00  -2.7897378950480031e-06 -4.0387237163762666e-05 0.0000000000000000e+00  2.2321370634344369e-06 -1.1490700768005512e-05 0.0000000000000000e+00  -7.3874209549813959e-07 -2.9826628893493077e-05 0.0000000000000000e+00  1.9273115965672036e-06 -6.1461242502820823e-06 0.0000000000000000e+00  2.2065304737564952e-06 -1.4009401666800173e-05 0.0000000000000000e+00  -2.1338314444800281e-07 -2.6475400243135265e-05 0.0000000000000000e+00  -2.0265495234018910e-06 -3.6796273579131766e-05 0.0000000000000000e+00  2.2203373528394462e-06 -1.6808006125631126e-05 0.0000000000000000e+00  2.3397743608030010e-07 -2.3234204752107784e-05 0.0000000000000000e+00  -3.8011311298957937e-07 -4.9131336819046538e-07 0.0000000000000000e+00  -4.1038764308192919e-07 4.1135544244123432e-07 0.0000000000000000e+00  -7.0309388868933687e-06 -6.0965063647801361e-05 0.0000000000000000e+00  1.46863635260958