<?xml version="1.0"?>
<VTKFile type="UnstructuredGrid"  version="0.1"  >
<UnstructuredGrid>
<Piece  NumberOfPoints="1419" NumberOfCells="2698">
<Points>
<DataArray  type="Float64"  NumberOfComponents="3"  format="ascii">0 0 0  0 0.41 0  2.5 0 0  2.5 0.41 0  0.6 0.19 0  0.6 0.21 0  0.25 0.2 0  0.15 0.2 0  0.2489897948556636 0.21 0  0.2489897948556636 0.19 0  0.6 0.2 0  0 0.3807142857143437 0  0 0.3514285714286952 0  0 0.3221428571430699 0  0 0.29285714285744 0  0 0.2635714285718054 0  0 0.2342857142861561 0  0 0.2050000000005308 0  0 0.175714285714732 0  0 0.1464285714289574 0  0 0.1171428571431897 0  0 0.08785714285737878 0  0 0.05857142857161107 0  0 0.02928571428580012 0  0.03015443760436003 0 0  0.06140001986583606 0 0  0.09377624077125973 0 0  0.1273239957535082 0 0  0.1620856860351972 0 0  0.1981052433264291 0 0  0.235428184091502 0 0  0.2741016576309132 0 0  0.3141745521465447 0 0  0.3556974926295285 0 0  0.3987229542472677 0 0  0.4433053055141081 0 0  0.4895008759286886 0 0  0.5373680609405097 0 0  0.5869673343216626 0 0  0.6383613676634521 0 0  0.6916151138468254 0 0  0.7467958595648856 0 0  0.8039733463919316 0 0  0.8632198139502143 0 0  0.9246101326867038 0 0  0.9882218810934433 0 0  1.054135445558498 0 0  1.122434100542598 0 0  1.193204177141305 0 0  1.266535089879536 0 0  1.342519516046404 0 0  1.421253448503939 0 0  1.502836389106271 0 0  1.587371439758838 0 0  1.674965418777374 0 0  1.765729001825544 0 0  1.859776908880082 0 0  1.957227977487062 0 0  2.058205329869943 0 0  2.162836591189951 0 0  2.271253957290865 0 0  2.383594446803425 0 0  2.5 0.1024999999997612 0  2.5 0.2049999999994743 0  2.5 0.3074999999997183 0  2.383594446803656 0.41 0  2.271253957291315 0.41 0  2.162836591190598 0.41 0  2.058205329870775 0.41 0  1.957227977488067 0.41 0  1.859776908881246 0.41 0  1.765729001826854 0.41 0  1.674965418778818 0.41 0  1.58737143976041 0.41 0  1.502836389107956 0.41 0  1.421253448505726 0.41 0  1.342519516048286 0.41 0  1.266535089881505 0.41 0  1.193204177143353 0.41 0  1.122434100544716 0.41 0  1.05413544556068 0.41 0  0.9882218810956305 0.41 0  0.9246101326886647 0.41 0  0.8632198139519631 0.41 0  0.8039733463934788 0.41 0  0.7467958595662458 0.41 0  0.6916151138480078 0.41 0  0.6383613676644679 0.41 0  0.5869673343225223 0.41 0  0.5373680609412221 0.41 0  0.4895008759292634 0.41 0  0.4433053055145528 0.41 0  0.3987229542475914 0.41 0  0.3556974926297398 0.41 0  0.3141745521466497 0.41 0  0.2741016576310038 0.41 0  0.2354281840915826 0.41 0  0.1981052433265003 0.41 0  0.1620856860352591 0.41 0  0.1273239957535623 0.41 0  0.09377624077128965 0.41 0  0.06140001986584975 0.41 0  0.03015443760436654 0.41 0  0.2497468076502589 0.2050254481002335 0  0.2497468076502614 0.1949745518997913 0  0.2469965252529372 0.1829317073451959 0  0.2439893735792749 0.1762316384219906 0  0.2400332147834255 0.1700443375285386 0  0.2352133972704371 0.1645032867342007 0  0.2296339016332438 0.1597280261969788 0  0.2234150974217223 0.1558215752574715 0  0.2166911463437691 0.1528682099456123 0  0.2096071079204251 0.1509316448471593 0  0.2023158100364996 0.1500536585536553 0  0.194974551899914 0.1502531923497262 0  0.1877417105387872 0.1515259415822739 0  0.1807733240461124 0.153844448527136 0  0.1742197252835808 0.15715869474974 0  0.1682222986673531 0.1613971801805478 0  0.162910430003803 0.1664684656256651 0  0.1583987151779087 0.1722631454351573 0  0.1547844879126891 0.178656207771761 0  0.1521457199348551 0.1855097315605723 0  0.1505393388476355 0.1926758619366523 0  0.1505393388476328 0.2073241380633295 0  0.1521457199348437 0.2144902684393899 0  0.1547844879126531 0.221343792228163 0  0.1583987151778488 0.2277368545647528 0  0.1629104300036858 0.2335315343742052 0  0.1682222986671726 0.2386028198193036 0  0.1742197252833576 0.2428413052501257 0  0.1807733240458683 0.2461555514727623 0  0.1877417105384929 0.2484740584176516 0  0.1949745518995776 0.2497468076502398 0  0.202315810036185 0.2499463414463592 0  0.2096071079201568 0.2490683551528932 0  0.2166911463435495 0.2471317900544655 0  0.2234150974215506 0.2441784247426195 0  0.2296339016331197 0.2402719738031125 0  0.2352133972703547 0.2354967132658811 0  0.2400332147833751 0.2299556624715287 0  0.2439893735792577 0.2237683615780412 0  0.246996525252926 0.2170682926548348 0  0.25645809709277 0.21 0  0.2639263993298655 0.21 0  0.271394701566961 0.21 0  0.2788630038040554 0.21 0  0.2863313060411479 0.21 0  0.2937996082782405 0.21 0  0.301267910515333 0.21 0  0.3087362127524279 0.21 0  0.3162045149895234 0.21 0  0.3236728172265972 0.21 0  0.3311411194636928 0.21 0  0.3386094217007701 0.21 0  0.3460777239378666 0.21 0  0.3535460261749672 0.21 0  0.3610143284120516 0.21 0  0.3684826306491596 0.21 0  0.3759509328862226 0.21 0  0.383419235123329 0.21 0  0.3908875373604028 0.21 0  0.3983558395975142 0.21 0  0.4058241418345938 0.21 0  0.4132924440716992 0.21 0  0.4207607463087888 0.21 0  0.4282290485459029 0.21 0  0.4356973507830418 0.21 0  0.4431656530201649 0.21 0  0.4506339552573136 0.21 0  0.4581022574944306 0.21 0  0.4655705597315852 0.21 0  0.4730388619686996 0.21 0  0.480507164205851 0.21 0  0.4879754664429498 0.21 0  0.4954437686800938 0.21 0  0.502912070917267 0.21 0  0.5103803731544119 0.21 0  0.5178486753915261 0.21 0  0.5253169776286404 0.21 0  0.5327852798657868 0.21 0  0.5402535821029386 0.21 0  0.54772188434007 0.21 0  0.5551901865771842 0.21 0  0.5626584888143201 0.21 0  0.5701267910514778 0.21 0  0.5775950932886138 0.21 0  0.5850633955257281 0.21 0  0.5925316977628483 0.21 0  0.6 0.2050000000000054 0  0.6 0.1950000000000217 0  0.5925316977628897 0.19 0  0.5850633955257988 0.19 0  0.5775950932887378 0.19 0  0.5701267910515998 0.19 0  0.5626584888145268 0.19 0  0.5551901865773963 0.19 0  0.547721884340339 0.19 0  0.5402535821032429 0.19 0  0.5327852798661811 0.19 0  0.5253169776290537 0.19 0  0.5178486753919799 0.19 0  0.5103803731549078 0.19 0  0.502912070917822 0.19 0  0.4954437686807294 0.19 0  0.4879754664436223 0.19 0  0.4805071642065402 0.19 0  0.4730388619694271 0.19 0  0.4655705597323621 0.19 0  0.4581022574952563 0.19 0  0.4506339552581777 0.19 0  0.4431656530210671 0.19 0  0.4356973507839815 0.19 0  0.4282290485468779 0.19 0  0.4207607463097617 0.19 0  0.4132924440726327 0.19 0  0.4058241418354857 0.19 0  0.3983558395983636 0.19 0  0.3908875373612097 0.19 0  0.3834192351240934 0.19 0  0.3759509328869369 0.19 0  0.3684826306498175 0.19 0  0.361014328412667 0.19 0  0.3535460261755617 0.19 0  0.3460777239384295 0.19 0  0.3386094217012945 0.19 0  0.3311411194641595 0.19 0  0.3236728172270245 0.19 0  0.3162045149898895 0.19 0  0.3087362127527544 0.19 0  0.3012679105156187 0.19 0  0.2937996082784807 0.19 0  0.2863313060413428 0.19 0  0.2788630038042048 0.19 0  0.2713947015670686 0.19 0  0.2639263993299336 0.19 0  0.2564580970927985 0.19 0  0.2607803159922026 0.2000727136295815 0  0.5887803774232762 0.2001272386983733 0  0.5745072403740523 0.2002044435018727 0  0.5511891430099709 0.2001122610077113 0  0.2751288526855082 0.20000000000002 0  0.5365194309847112 0.1999999999999436 0  0.2894621222999649 0.1998691686390484 0  0.5215828265105155 0.1999999999999228 0  0.3127789816668748 0.1998657885438805 0  0.3274069683451451 0.2000000000000796 0  0.5066462220363641 0.199999999999908 0  0.3650630746574081 0.199866017807523 0  0.476773013087985 0.1999999999998713 0  0.3417402379596385 0.1998691686391011 0  0.3796850840047755 0.200000000000134 0  0.4618364086138087 0.1999999999998546 0  0.4917096175621762 0.1999999999998808 0  0.3946216884789568 0.2000000000001512 0  0.446899804139621 0.1999999999998389 0  0.4089549580935208 0.1998691686391595 0  0.4322718174608562 0.200127451265745 0  0.4201487168029707 0.1999966199048527 0  0.3528922713220932 0.2000185703532356 0  0.5633122436674589 0.1999814296467508 0  0.3006558810093873 0.1999966199048318 0  0.5815926498168407 0.1966545283159175 0  0.2677053789419034 0.1964246479135325 0  0.5290511287476175 0.1970915826863981 0  0.5439877332217911 0.197091582686394 0  0.2825131256993216 0.2035478995978015 0  0.3199386661080599 0.202908417313604 0  0.4842413153250809 0.1970915826863873 0  0.5141145242734466 0.1970915826863843 0  0.3722167817676917 0.2029084173136195 0  0.4693047108508938 0.1970915826863783 0  0.3348752705822316 0.202908417313609 0  0.3871533862418661 0.2029084173136212 0  0.4543681063767183 0.1970915826863795 0  0.4991779197992749 0.1970915826863902 0  0.4020059614928624 0.203547899597858 0  0.4394315019025246 0.1970915826863714 0  0.2550657455369551 0.2034088125358657 0  0.2548908499171161 0.1966940311614271 0  0.5946539510196798 0.2024302972968126 0  0.267698176732111 0.2039977513680092 0  0.4261685417851465 0.196409292431739 0  0.3590076176283495 0.196411355804271 0  0.5571672426447437 0.2036011176410121 0  0.3066757059912147 0.1964092924317024 0  0.594380730180568 0.1966558399668133 0  0.4842413153245942 0.2040749161535287 0  0.4693047108503577 0.2040749161535231 0  0.3871533862424271 0.1959250838464788 0  0.372246743208829 0.1959123236376545 0  0.5141145242731028 0.2040749161535395 0  0.4543681063761134 0.2040749161535186 0  0.4019979587101454 0.1959834479682427 0  0.4394608940728603 0.2040870543693135 0  0.5439623148931173 0.2040856076781014 0  0.5290511287473298 0.2040749161535501 0  0.4991779197988497 0.2040749161535382 0  0.3347912413592433 0.1959225448935183 0  0.3199680582793816 0.1959123018030061 0  0.2825051229162361 0.1959834479681729 0  0.3590471196690275 0.2036304442587945 0  0.5571594006495384 0.1963685282145804 0  0.3067669986803285 0.203627750582736 0  0.4262598344738712 0.2036568242185335 0  0.5814408164431408 0.2041285596160068 0  0.5688286748170428 0.1961819304477386 0  0.4145905603063645 0.2038180695522843 0  0.3473758401724931 0.2038180695522752 0  0.2950977245128307 0.2038180695522663 0  0.5688286748170693 0.203818069552238 0  0.2950977245127906 0.1961819304477774 0  0.3473758401723931 0.1961819304478349 0  0.4145905603061963 0.1961819304479011 0  0.2601812407614425 0.2056861609747042
[...]
<PointData  Vectors="f_40-1"> 
<DataArray  type="Float64"  Name="f_40-1"  NumberOfComponents="3" format="ascii">0.0000000000000000e+00 0.0000000000000000e+00 0.0000000000000000e+00  0.0000000000000000e+00 0.0000000000000000e+00 0.0000000000000000e+00  0.0000000000000000e+00 0.0000000000000000e+00 0.0000000000000000e+00  0.0000000000000000e+00 0.0000000000000000e+00 0.0000000000000000e+00  -1.0524756988207232e-05 -6.5623787706864354e-05 0.0000000000000000e+00  -5.1173356436373143e-06 -6.7948807119984502e-05 0.0000000000000000e+00  0.0000000000000000e+00 0.0000000000000000e+00 0.0000000000000000e+00  0.0000000000000000e+00 0.0000000000000000e+00 0.0000000000000000e+00  0.0000000000000000e+00 0.0000000000000000e+00 0.0000000000000000e+00  0.0000000000000000e+00 0.0000000000000000e+00 0.0000000000000000e+00  -7.9889927859289381e-06 -6.6787114081032919e-05 0.0000000000000000e+00  0.0000000000000000e+00 0.0000000000000000e+00 0.0000000000000000e+00  0.0000000000000000e+00 0.0000000000000000e+00 0.0000000000000000e+00  0.0000000000000000e+00 0.0000000000000000e+00 0.0000000000000000e+00  0.0000000000000000e+00 0.0000000000000000e+00 0.0000000000000000e+00  0.0000000000000000e+00 0.0000000000000000e+00 0.0000000000000000e+00  0.0000000000000000e+00 0.0000000000000000e+00 0.0000000000000000e+00  0.0000000000000000e+00 0.0000000000000000e+00 0.0000000000000000e+00  0.0000000000000000e+00 0.0000000000000000e+00 0.0000000000000000e+00  0.0000000000000000e+00 0.0000000000000000e+00 0.0000000000000000e+00  0.0000000000000000e+00 0.0000000000000000e+00 0.0000000000000000e+00  0.0000000000000000e+00 0.0000000000000000e+00 0.0000000000000000e+00  0.0000000000000000e+00 0.0000000000000000e+00 0.0000000000000000e+00  0.0000000000000000e+00 0.0000000000000000e+00 0.0000000000000000e+00  0.0000000000000000e+00 0.0000000000000000e+00 0.0000000000000000e+00  0.0000000000000000e+00 0.0000000000000000e+00 0.0000000000000000e+00  0.0000000000000000e+00 0.0000000000000000e+00 0.0000000000000000e+00  0.0000000000000000e+00 0.0000000000000000e+00 0.0000000000000000e+00  0.0000000000000000e+00 0.0000000000000000e+00 0.0000000000000000e+00  0.0000000000000000e+00 0.0000000000000000e+00 0.0000000000000000e+00  0.0000000000000000e+00 0.0000000000000000e+00 0.0000000000000000e+00  0.0000000000000000e+00 0.0000000000000000e+00 0.0000000000000000e+00  0.0000000000000000e+00 0.0000000000000000e+00 0.0000000000000000e+00  0.0000000000000000e+00 0.0000000000000000e+00 0.0000000000000000e+00  0.0000000000000000e+00 0.0000000000000000e+00 0.0000000000000000e+00  0.0000000000000000e+00 0.0000000000000000e+00 0.0000000000000000e+00  0.0000000000000000e+00 0.0000000000000000e+00 0.0000000000000000e+00  0.0000000000000000e+00 0.0000000000000000e+00 0.0000000000000000e+00  0.0000000000000000e+00 0.0000000000000000e+00 0.0000000000000000e+00  0.0000000000000000e+00 0.0000000000000000e+00 0.0000000000000000e+00  0.0000000000000000e+00 0.0000000000000000e+00 0.0000000000000000e+00  0.0000000000000000e+00 0.0000000000000000e+00 0.0000000000000000e+00  0.0000000000000000e+00 0.0000000000000000e+00 0.0000000000000000e+00  0.0000000000000000e+00 0.0000000000000000e+00 0.0000000000000000e+00  0.0000000000000000e+00 0.0000000000000000e+00 0.0000000000000000e+00  0.0000000000000000e+00 0.0000000000000000e+00 0.0000000000000000e+00  0.0000000000000000e+00 0.0000000000000000e+00 0.0000000000000000e+00  0.0000000000000000e+00 0.0000000000000000e+00 0.0000000000000000e+00  0.0000000000000000e+00 0.0000000000000000e+00 0.0000000000000000e+00  0.0000000000000000e+00 0.0000000000000000e+00 0.0000000000000000e+00  0.0000000000000000e+00 0.0000000000000000e+00 0.0000000000000000e+00  0.0000000000000000e+00 0.0000000000000000e+00 0.0000000000000000e+00  0.0000000000000000e+00 0.0000000000000000e+00 0.0000000000000000e+00  0.0000000000000000e+00 0.0000000000000000e+00 0.0000000000000000e+00  0.0000000000000000e+00 0.0000000000000000e+00 0.0000000000000000e+00  0.0000000000000000e+00 0.0000000000000000e+00 0.0000000000000000e+00  0.0000000000000000e+00 0.0000000000000000e+00 0.0000000000000000e+00  0.0000000000000000e+00 0.0000000000000000e+00 0.0000000000000000e+00  0.0000000000000000e+00 0.0000000000000000e+00 0.0000000000000000e+00  0.0000000000000000e+00 0.0000000000000000e+00 0.0000000000000000e+00  0.0000000000000000e+00 0.0000000000000000e+00 0.0000000000000000e+00  0.0000000000000000e+00 0.0000000000000000e+00 0.0000000000000000e+00  0.0000000000000000e+00 0.0000000000000000e+00 0.0000000000000000e+00  0.0000000000000000e+00 0.0000000000000000e+00 0.0000000000000000e+00  0.0000000000000000e+00 0.0000000000000000e+00 0.0000000000000000e+00  0.0000000000000000e+00 0.0000000000000000e+00 0.0000000000000000e+00  0.0000000000000000e+00 0.0000000000000000e+00 0.0000000000000000e+00  0.0000000000000000e+00 0.0000000000000000e+00 0.0000000000000000e+00  0.0000000000000000e+00 0.0000000000000000e+00 0.0000000000000000e+00  0.0000000000000000e+00 0.0000000000000000e+00 0.0000000000000000e+00  0.0000000000000000e+00 0.0000000000000000e+00 0.0000000000000000e+00  0.0000000000000000e+00 0.0000000000000000e+00 0.0000000000000000e+00  0.0000000000000000e+00 0.0000000000000000e+00 0.0000000000000000e+00  0.0000000000000000e+00 0.0000000000000000e+00 0.0000000000000000e+00  0.0000000000000000e+00 0.0000000000000000e+00 0.0000000000000000e+00  0.0000000000000000e+00 0.0000000000000000e+00 0.0000000000000000e+00  0.0000000000000000e+00 0.0000000000000000e+00 0.0000000000000000e+00  0.0000000000000000e+00 0.0000000000000000e+00 0.0000000000000000e+00  0.0000000000000000e+00 0.0000000000000000e+00 0.0000000000000000e+00  0.0000000000000000e+00 0.0000000000000000e+00 0.0000000000000000e+00  0.0000000000000000e+00 0.0000000000000000e+00 0.0000000000000000e+00  0.0000000000000000e+00 0.0000000000000000e+00 0.0000000000000000e+00  0.0000000000000000e+00 0.0000000000000000e+00 0.0000000000000000e+00  0.0000000000000000e+00 0.0000000000000000e+00 0.0000000000000000e+00  0.0000000000000000e+00 0.0000000000000000e+00 0.0000000000000000e+00  0.0000000000000000e+00 0.0000000000000000e+00 0.0000000000000000e+00  0.0000000000000000e+00 0.0000000000000000e+00 0.0000000000000000e+00  0.0000000000000000e+00 0.0000000000000000e+00 0.0000000000000000e+00  0.0000000000000000e+00 0.0000000000000000e+00 0.0000000000000000e+00  0.0000000000000000e+00 0.0000000000000000e+00 0.0000000000000000e+00  0.0000000000000000e+00 0.0000000000000000e+00 0.0000000000000000e+00  0.0000000000000000e+00 0.0000000000000000e+00 0.0000000000000000e+00  0.0000000000000000e+00 0.0000000000000000e+00 0.0000000000000000e+00  0.0000000000000000e+00 0.0000000000000000e+00 0.0000000000000000e+00  0.0000000000000000e+00 0.0000000000000000e+00 0.0000000000000000e+00  0.0000000000000000e+00 0.0000000000000000e+00 0.0000000000000000e+00  0.0000000000000000e+00 0.0000000000000000e+00 0.0000000000000000e+00  0.0000000000000000e+00 0.0000000000000000e+00 0.0000000000000000e+00  0.0000000000000000e+00 0.0000000000000000e+00 0.0000000000000000e+00  0.0000000000000000e+00 0.0000000000000000e+00 0.0000000000000000e+00  0.0000000000000000e+00 0.0000000000000000e+00 0.0000000000000000e+00  0.0000000000000000e+00 0.0000000000000000e+00 0.0000000000000000e+00  0.0000000000000000e+00 0.0000000000000000e+00 0.0000000000000000e+00  0.0000000000000000e+00 0.0000000000000000e+00 0.0000000000000000e+00  0.0000000000000000e+00 0.0000000000000000e+00 0.0000000000000000e+00  0.0000000000000000e+00 0.0000000000000000e+00 0.0000000000000000e+00  0.0000000000000000e+00 0.0000000000000000e+00 0.0000000000000000e+00  0.0000000000000000e+00 0.0000000000000000e+00 0.0000000000000000e+00  0.0000000000000000e+00 0.0000000000000000e+00 0.0000000000000000e+00  0.0000000000000000e+00 0.0000000000000000e+00 0.0000000000000000e+00  0.0000000000000000e+00 0.0000000000000000e+00 0.0000000000000000e+00  0.0000000000000000e+00 0.0000000000000000e+00 0.0000000000000000e+00  0.0000000000000000e+00 0.0000000000000000e+00 0.0000000000000000e+00  0.0000000000000000e+00 0.0000000000000000e+00 0.0000000000000000e+00  0.0000000000000000e+00 0.0000000000000000e+00 0.0000000000000000e+00  0.0000000000000000e+00 0.0000000000000000e+00 0.0000000000000000e+00  0.0000000000000000e+00 0.0000000000000000e+00 0.0000000000000000e+00  0.0000000000000000e+00 0.0000000000000000e+00 0.0000000000000000e+00  0.0000000000000000e+00 0.0000000000000000e+00 0.0000000000000000e+00  0.0000000000000000e+00 0.0000000000000000e+00 0.0000000000000000e+00  0.0000000000000000e+00 0.0000000000000000e+00 0.0000000000000000e+00  0.0000000000000000e+00 0.0000000000000000e+00 0.0000000000000000e+00  0.0000000000000000e+00 0.0000000000000000e+00 0.0000000000000000e+00  0.0000000000000000e+00 0.0000000000000000e+00 0.0000000000000000e+00  0.0000000000000000e+00 0.0000000000000000e+00 0.0000000000000000e+00  0.0000000000000000e+00 0.0000000000000000e+00 0.0000000000000000e+00  0.0000000000000000e+00 0.0000000000000000e+00 0.0000000000000000e+00  0.0000000000000000e+00 0.0000000000000000e+00 0.0000000000000000e+00  0.0000000000000000e+00 0.0000000000000000e+00 0.0000000000000000e+00  0.0000000000000000e+00 0.0000000000000000e+00 0.0000000000000000e+00  0.0000000000000000e+00 0.0000000000000000e+00 0.0000000000000000e+00  0.0000000000000000e+00 0.0000000000000000e+00 0.0000000000000000e+00  0.0000000000000000e+00 0.0000000000000000e+00 0.0000000000000000e+00  0.0000000000000000e+00 0.0000000000000000e+00 0.0000000000000000e+00  0.0000000000000000e+00 0.0000000000000000e+00 0.0000000000000000e+00  0.0000000000000000e+00 0.0000000000000000e+00 0.0000000000000000e+00  0.0000000000000000e+00 0.0000000000000000e+00 0.0000000000000000e+00  0.0000000000000000e+00 0.0000000000000000e+00 0.0000000000000000e+00  0.0000000000000000e+00 0.0000000000000000e+00 0.0000000000000000e+00  0.0000000000000000e+00 0.0000000000000000e+00 0.0000000000000000e+00  0.0000000000000000e+00 0.0000000000000000e+00 0.0000000000000000e+00  0.0000000000000000e+00 0.0000000000000000e+00 0.0000000000000000e+00  0.0000000000000000e+00 0.0000000000000000e+00 0.0000000000000000e+00  1.2429925071172849e-07 -2.1131106427715043e-06 0.0000000000000000e+00  3.2884864110826190e-07 -2.4049266092691256e-06 0.0000000000000000e+00  6.2343580555650584e-07 -2.6755293906259062e-06 0.0000000000000000e+00  9.7591402586597959e-07 -2.9809418146783505e-06 0.0000000000000000e+00  1.3168949190796583e-06 -3.3706815816663813e-06 0.0000000000000000e+00  1.6559327216870709e-06 -3.8742620985319967e-06 0.0000000000000000e+00  1.9563329424301666e-06 -4.4469864318618200e-06 0.0000000000000000e+00  2.2320157208500020e-06 -5.1163082049518458e-06 0.0000000000000000e+00  2.5111283846444282e-06 -5.8609236200091850e-06 0.0000000000000000e+00  2.7385784133473554e-06 -6.6778911110098337e-06 0.0000000000000000e+00  2.9700112267533102e-06 -7.5819067954409259e-06 0.0000000000000000e+00  3.1515498721435936e-06 -8.5478315769784771e-06 0.0000000000000000e+00  3.3278417323957976e-06 -9.5893392470968968e-06 0.0000000000000000e+00  3.4663388947203139e-06 -1.0690201750773886e-05 0.0000000000000000e+00  3.5781365773972869e-06 -1.1859120426774229e-05 0.0000000000000000e+00  3.6866021592464111e-06 -1.3088859133231275e-05 0.0000000000000000e+00  3.7486282491456612e-06 -1.4364863021528399e-05 0.0000000000000000e+00  3.8051308955643435e-06 -1.5710802027352165e-05 0.0000000000000000e+00  3.8187025194158321e-06 -1.7092621499043647e-05 0.0000000000000000e+00  3.8252863295540327e-06 -1.8536638497195657e-05 0.0000000000000000e+00  3.7944239927678077e-06 -2.0013827319451532e-05 0.0000000000000000e+00  3.7466950602303539e-06 -2.1544579369229654e-05 0.0000000000000000e+00  3.6704905110643947e-06 -2.3110703144108816e-05 0.0000000000000000e+00  3.5678156750384686e-06 -2.4717136010515592e-05 0.0000000000000000e+00  3.4551481208564937e-06 -2.6362440286578984e-05 0.0000000000000000e+00  3.3085944230277867e-06 -2.8032757823024841e-05 0.0000000000000000e+00  3.1397035532838872e-06 -2.9751904456135705e-05 0.0000000000000000e+00  2.9457651073038078e-06 -3.1484798302205447e-05 0.0000000000000000e+00  2.7292777385668952e-06 -3.3260235989635836e-05 0.0000000000000000e+00  2.4878736060272581e-06 -3.5049010645437822e-05 0.0000000000000000e+00  2.2249036455512572e-06 -3.6874106365073677e-05 0.0000000000000000e+00  1.9355307174621406e-06 -3.8708334344805235e-05 0.0000000000000000e+00  1.6263573228221696e-06 -4.0576443285122082e-05 0.0000000000000000e+00  1.2901367211750151e-06 -4.2446998780767510e-05 0.0000000000000000e+00  9.3033806541652403e-07 -4.4350841061143447e-05 0.0000000000000000e+00  5.4691347811719610e-07 -4.6254960112135515e-05 0.0000000000000000e+00  1.4147123156755909e-07 -4.8185729183756786e-05 0.0000000000000000e+00  -2.8836579904867426e-07 -5.0114808823788424e-05 0.0000000000000000e+00  -7.4149088498700830e-07 -5.2066840407622317e-05 0.0000000000000000e+00  -1.2203089534638610e-06 -5.4015231081595689e-05 0.0000000000000000e+00  -1.7240035951796842e-06 -5.5979123981656200e-05 0.0000000000000000e+00  -2.2484325911715429e-06 -5.7942990637725939e-05 0.0000000000000000e+00  -2.8004835298096042e-06 -5.9915656565818713e-05 0.0000000000000000e+00  -3.3660443425045650e-06 -6.1889274924645064e-05 0.0000000000000000e+00  -3.9590496366342801e-06 -6.3858320346759452e-05 0.0000000000000000e+00  -4.5575889351833119e-06 -6.5852008962039097e-05 0.0000000000000000e+00  -6.6116741661279276e-06 -6.7363088812037665e-05 0.0000000000000000e+00  -9.3051014223973071e-06 -6.6211604113016454e-05 0.0000000000000000e+00  -9.9511180237748710e-06 -6.3691282357923200e-05 0.0000000000000000e+00  -9.3417298939436546e-06 -6.1655427505085739e-05 0.0000000000000000e+00  -8.7373935554224136e-06 -5.9608779312234173e-05 0.0000000000000000e+00  -8.1575723949803839e-06 -5.7574600938457377e-05 0.0000000000000000e+00  -7.5918894715663454e-06 -5.5545114088314280e-05 0.0000000000000000e+00  -7.0530874341398657e-06 -5.3522261886849541e-05 0.0000000000000000e+00  -6.5289399400077308e-06 -5.1507504863864819e-05 0.0000000000000000e+00  -6.0307522555230954e-06 -4.9494868152537107e-05 0.0000000000000000e+00  -5.5489441597833371e-06 -4.7501382941887616e-05 0.0000000000000000e+00  -5.0909772135022917e-06 -4.5506548633149410e-05 0.0000000000000000e+00  -4.6485770158638525e-06 -4.3534661857137883e-05 0.0000000000000000e+00  -4.2304886073997244e-06 -4.1565064293148868e-05 0.0000000000000000e+00  -3.8263088359200718e-06 -3.9621863699383151e-05 0.0000000000000000e+00  -3.4466907135857060e-06 -3.7684340297321924e-05 0.0000000000000000e+00  -3.0794977572522609e-06 -3.5776833186803057e-05 0.0000000000000000e+00  -2.7379160381974633e-06 -3.3878524572454732e-05 0.0000000000000000e+00  -2.4072489042864987e-06 -3.2012854379853071e-05 0.0000000000000000e+00  -2.1038112232201272e-06 -3.0160062043623324e-05 0.0000000000000000e+00  -1.8097828937231587e-06 -2.8345143297381689e-05 0.0000000000000000e+00  -1.5433965660066168e-06 -2.6547643116086635e-05 0.0000000000000000e+00  -1.2842670725578459e-06 -2.4791639440697746e-05 0.0000000000000000e+00  -1.0543986703333831e-06 -2.3057741127421457e-05 0.0000000000000000e+00  -8.3407634418523662e-07 -2.1365145181907874e-05 0.0000000000000000e+00  -6.3703046062791988e-07 -1.9704563767722013e-05 0.0000000000000000e+00  -4.6289874300812171e-07 -1.8088463950912041e-05 0.0000000000000000e+00  -2.9018535615276686e-07 -1.6509340278875133e-05 0.0000000000000000e+00  -1.4637422136691052e-07 -1.4970444881859451e-05 0.0000000000000000e+00  -1.4020447887335742e-08 -1.3488935816001383e-05 0.0000000000000000e+00  9.5257888398046573e-08 -1.2042705381544781e-05 0.0000000000000000e+00  1.9200274669810341e-07 -1.0661258810464449e-05 0.0000000000000000e+00  2.6625324988738626e-07 -9.3188443951228230e-06 0.0000000000000000e+00  3.3218857046510575e-07 -8.0503052025214477e-06 0.0000000000000000e+00  3.7292626413944237e-07 -6.8261943155421525e-06 0.0000000000000000e+00  3.9264651008020656e-07 -5.6792495967788490e-06 0.0000000000000000e+00  4.1645839712758356e-07 -4.5842194307672785e-06 0.0000000000000000e+00  4.1041731558503575e-07 -3.5633127405469799e-06 0.0000000000000000e+00  3.9516292932122092e-07 -2.6222727554346565e-06 0.0000000000000000e+00  3.5647535823666209e-07 -1.7463508848356307e-06 0.0000000000000000e+00  3.1457160603359697e-07 -9.6314410549845173e-07 0.0000000000000000e+00  2.4353610980206428e-07 -2.4702040269532090e-07 0.0000000000000000e+00  1.5237036083754757e-07 3.7021463228349181e-07 0.0000000000000000e+00  7.3427552632458594e-08 9.1312794162638491e-07 0.0000000000000000e+00  -3.8894499177321868e-08 1.3754827803416277e-06 0.0000000000000000e+00  -1.2008909662088430e-07 1.7357130125731895e-06 0.0000000000000000e+00  -1.7734169886844879e-07 1.9350557868990020e-06 0.0000000000000000e+00  -1.1793081092676218e-07 1.9168738928119967e-06 0.0000000000000000e+00  -3.4288581718305201e-07 -1.0902494701627549e-07 0.0000000000000000e+00  -6.9742283770695744e-06 -6.3769816784409211e-05 0.0000000000000000e+00  -5.7739554349774108e-06 -5.9939458749513369e-05 0.0000000000000000e+00  -4.0967572370047350e-06 -5.3693141589295039e-05 0.0000000000000000e+00  3.3940317840098394e-07 -5.6392108011209489e-07 0.0000000000000000e+00  -3.1699573517963276e-06 -4.9786699332539558e-05 0.0000000000000000e+00  7.6807041209206775e-07 -1.3483473525229373e-06 0.0000000000000000e+00  -2.2798005770239232e-06 -4.5860527055032706e-05 0.0000000000000000e+00  1.3340309355684190e-06 -3.3626527644183345e-06 0.0000000000000000e+00  1.6130855063774337e-06 -5.0543930421962129e-06 0.0000000000000000e+00  -1.4760869719719669e-06 -4.1984206073710704e-05 0.0000000000000000e+00  1.9314413164790401e-06 -1.0560389945969927e-05 0.0000000000000000e+00  -1.2500463839301755e-07 -3.4435431919174307e-05 0.0000000000000000e+00  1.7865902913748519e-06 -6.9331139706682262e-06 0.0000000000000000e+00  1.9440685902186971e-06 -1.3154102493235363e-05 0.0000000000000000e+00  4.2365745757549458e-07 -3.0791703970085632e-05 0.0000000000000000e+00  -7.5797881113041511e-07 -3.8170991604031324e-05 0.0000000000000000e+00  1.8554591761809754e-06 -1.5984573951878203e-05 0.0000000000000000e+00  8.8803651465187858e-07 -2.7256988999573200e-05 0.0000000000000000e+00  1.6672770378439791e-06 -1.8855871629152672e-05 0.0000000000000000e+00  1.2925952333630708e-06 -2.3937528328930621e-05 0.0000000000000000e+00  1.5047161718753889e-06 -2.1255960328351799e-05 0.0000000000000000e+00  1.8960881051413398e-06 -8.6301904856140939e-06 0.0000000000000000e+00  -4.9974811392168026e-06 -5.6914170842970200e-05 0.0000000000000000e+00  1.0646470442474591e-06 -2.2534635069989857e-06 0.0000000000000000e+00  -7.2987370962877125e-06 -6.1450511850946559e-05 0.0000000000000000e+00  -6.8194030419984199e-08 5.3517449399249295e-07 0.0000000000000000e+00  -3.4768721890355342e-06 -4.7434501315994556e-05 0.0000000000000000e+00  -4.4177076237298894e-06 -5.1395903241592128e-05 0.0000000000000000e+00  7.6991917807917538e-07 -1.7153850499334909e-06 0.0000000000000000e+00  1.8141425206167130e-06 -4.7683221154705162e-06 0.0000000000000000e+00  -1.1563400702588307e-06 -3.5863767046322318e-05 0.0000000000000000e+00  -2.6201706624455885e-06 -4.3516349356046433e-05 0.0000000000000000e+00  2.4659305655822845e-06 -1.2363728336530237e-05 0.0000000000000000e+00  -5.4729583849589827e-07 -3.2157101194548974e-05 0.0000000000000000e+00  2.1044461273817008e-06 -6.6013047593878138e-06 0.0000000000000000e+00  2.4574749199961429e-06 -1.5078234631930403e-05 0.0000000000000000e+00  -1.9797086024783535e-08 -2.8550963403672203e-05 0.0000000000000000e+00  -1.8470872191942699e-06 -3.9654590303275082e-05 0.0000000000000000e+00  2.4946412270204905e-06 -1.8088158764540513e-05 0.0000000000000000e+00  4.2716906133621471e-07 -2.5062519868348390e-05 0.0000000000000000e+00  -3.8287921620638118e-07 -5.0568681463908700e-07 0.0000000000000000e+00  -4.1612323550251440e-07 4.2185033152370482e-07 0.0000000000000000e+00  -6.8646385423239373e-06 -6.5604528163868263e-05 0.0000000000000000e+00  1.793149614367143