<?xml version="1.0"?>
<VTKFile type="UnstructuredGrid"  version="0.1"  >
<UnstructuredGrid>
<Piece  NumberOfPoints="1419" NumberOfCells="2698">
<Points>
<DataArray  type="Float64"  NumberOfComponents="3"  format="ascii">0 0 0  0 0.41 0  2.5 0 0  2.5 0.41 0  0.6 0.19 0  0.6 0.21 0  0.25 0.2 0  0.15 0.2 0  0.2489897948556636 0.21 0  0.2489897948556636 0.19 0  0.6 0.2 0  0 0.3807142857143437 0  0 0.3514285714286952 0  0 0.3221428571430699 0  0 0.29285714285744 0  0 0.2635714285718054 0  0 0.2342857142861561 0  0 0.2050000000005308 0  0 0.175714285714732 0  0 0.1464285714289574 0  0 0.1171428571431897 0  0 0.08785714285737878 0  0 0.05857142857161107 0  0 0.02928571428580012 0  0.03015443760436003 0 0  0.06140001986583606 0 0  0.09377624077125973 0 0  0.1273239957535082 0 0  0.1620856860351972 0 0  0.1981052433264291 0 0  0.235428184091502 0 0  0.2741016576309132 0 0  0.3141745521465447 0 0  0.3556974926295285 0 0  0.3987229542472677 0 0  0.4433053055141081 0 0  0.4895008759286886 0 0  0.5373680609405097 0 0  0.5869673343216626 0 0  0.6383613676634521 0 0  0.6916151138468254 0 0  0.7467958595648856 0 0  0.8039733463919316 0 0  0.8632198139502143 0 0  0.9246101326867038 0 0  0.9882218810934433 0 0  1.054135445558498 0 0  1.122434100542598 0 0  1.193204177141305 0 0  1.266535089879536 0 0  1.342519516046404 0 0  1.421253448503939 0 0  1.502836389106271 0 0  1.587371439758838 0 0  1.674965418777374 0 0  1.765729001825544 0 0  1.859776908880082 0 0  1.957227977487062 0 0  2.058205329869943 0 0  2.162836591189951 0 0  2.271253957290865 0 0  2.383594446803425 0 0  2.5 0.1024999999997612 0  2.5 0.2049999999994743 0  2.5 0.3074999999997183 0  2.383594446803656 0.41 0  2.271253957291315 0.41 0  2.162836591190598 0.41 0  2.058205329870775 0.41 0  1.957227977488067 0.41 0  1.859776908881246 0.41 0  1.765729001826854 0.41 0  1.674965418778818 0.41 0  1.58737143976041 0.41 0  1.502836389107956 0.41 0  1.421253448505726 0.41 0  1.342519516048286 0.41 0  1.266535089881505 0.41 0  1.193204177143353 0.41 0  1.122434100544716 0.41 0  1.05413544556068 0.41 0  0.9882218810956305 0.41 0  0.9246101326886647 0.41 0  0.8632198139519631 0.41 0  0.8039733463934788 0.41 0  0.7467958595662458 0.41 0  0.6916151138480078 0.41 0  0.6383613676644679 0.41 0  0.5869673343225223 0.41 0  0.5373680609412221 0.41 0  0.4895008759292634 0.41 0  0.4433053055145528 0.41 0  0.3987229542475914 0.41 0  0.3556974926297398 0.41 0  0.3141745521466497 0.41 0  0.2741016576310038 0.41 0  0.2354281840915826 0.41 0  0.1981052433265003 0.41 0  0.1620856860352591 0.41 0  0.1273239957535623 0.41 0  0.09377624077128965 0.41 0  0.06140001986584975 0.41 0  0.03015443760436654 0.41 0  0.2497468076502589 0.2050254481002335 0  0.2497468076502614 0.1949745518997913 0  0.2469965252529372 0.1829317073451959 0  0.2439893735792749 0.1762316384219906 0  0.2400332147834255 0.1700443375285386 0  0.2352133972704371 0.1645032867342007 0  0.2296339016332438 0.1597280261969788 0  0.2234150974217223 0.1558215752574715 0  0.2166911463437691 0.1528682099456123 0  0.2096071079204251 0.1509316448471593 0  0.2023158100364996 0.1500536585536553 0  0.194974551899914 0.1502531923497262 0  0.1877417105387872 0.1515259415822739 0  0.1807733240461124 0.153844448527136 0  0.1742197252835808 0.15715869474974 0  0.1682222986673531 0.1613971801805478 0  0.162910430003803 0.1664684656256651 0  0.1583987151779087 0.1722631454351573 0  0.1547844879126891 0.178656207771761 0  0.1521457199348551 0.1855097315605723 0  0.1505393388476355 0.1926758619366523 0  0.1505393388476328 0.2073241380633295 0  0.1521457199348437 0.2144902684393899 0  0.1547844879126531 0.221343792228163 0  0.1583987151778488 0.2277368545647528 0  0.1629104300036858 0.2335315343742052 0  0.1682222986671726 0.2386028198193036 0  0.1742197252833576 0.2428413052501257 0  0.1807733240458683 0.2461555514727623 0  0.1877417105384929 0.2484740584176516 0  0.1949745518995776 0.2497468076502398 0  0.202315810036185 0.2499463414463592 0  0.2096071079201568 0.2490683551528932 0  0.2166911463435495 0.2471317900544655 0  0.2234150974215506 0.2441784247426195 0  0.2296339016331197 0.2402719738031125 0  0.2352133972703547 0.2354967132658811 0  0.2400332147833751 0.2299556624715287 0  0.2439893735792577 0.2237683615780412 0  0.246996525252926 0.2170682926548348 0  0.25645809709277 0.21 0  0.2639263993298655 0.21 0  0.271394701566961 0.21 0  0.2788630038040554 0.21 0  0.2863313060411479 0.21 0  0.2937996082782405 0.21 0  0.301267910515333 0.21 0  0.3087362127524279 0.21 0  0.3162045149895234 0.21 0  0.3236728172265972 0.21 0  0.3311411194636928 0.21 0  0.3386094217007701 0.21 0  0.3460777239378666 0.21 0  0.3535460261749672 0.21 0  0.3610143284120516 0.21 0  0.3684826306491596 0.21 0  0.3759509328862226 0.21 0  0.383419235123329 0.21 0  0.3908875373604028 0.21 0  0.3983558395975142 0.21 0  0.4058241418345938 0.21 0  0.4132924440716992 0.21 0  0.4207607463087888 0.21 0  0.4282290485459029 0.21 0  0.4356973507830418 0.21 0  0.4431656530201649 0.21 0  0.4506339552573136 0.21 0  0.4581022574944306 0.21 0  0.4655705597315852 0.21 0  0.4730388619686996 0.21 0  0.480507164205851 0.21 0  0.4879754664429498 0.21 0  0.4954437686800938 0.21 0  0.502912070917267 0.21 0  0.5103803731544119 0.21 0  0.5178486753915261 0.21 0  0.5253169776286404 0.21 0  0.5327852798657868 0.21 0  0.5402535821029386 0.21 0  0.54772188434007 0.21 0  0.5551901865771842 0.21 0  0.5626584888143201 0.21 0  0.5701267910514778 0.21 0  0.5775950932886138 0.21 0  0.5850633955257281 0.21 0  0.5925316977628483 0.21 0  0.6 0.2050000000000054 0  0.6 0.1950000000000217 0  0.5925316977628897 0.19 0  0.5850633955257988 0.19 0  0.5775950932887378 0.19 0  0.5701267910515998 0.19 0  0.5626584888145268 0.19 0  0.5551901865773963 0.19 0  0.547721884340339 0.19 0  0.5402535821032429 0.19 0  0.5327852798661811 0.19 0  0.5253169776290537 0.19 0  0.5178486753919799 0.19 0  0.5103803731549078 0.19 0  0.502912070917822 0.19 0  0.4954437686807294 0.19 0  0.4879754664436223 0.19 0  0.4805071642065402 0.19 0  0.4730388619694271 0.19 0  0.4655705597323621 0.19 0  0.4581022574952563 0.19 0  0.4506339552581777 0.19 0  0.4431656530210671 0.19 0  0.4356973507839815 0.19 0  0.4282290485468779 0.19 0  0.4207607463097617 0.19 0  0.4132924440726327 0.19 0  0.4058241418354857 0.19 0  0.3983558395983636 0.19 0  0.3908875373612097 0.19 0  0.3834192351240934 0.19 0  0.3759509328869369 0.19 0  0.3684826306498175 0.19 0  0.361014328412667 0.19 0  0.3535460261755617 0.19 0  0.3460777239384295 0.19 0  0.3386094217012945 0.19 0  0.3311411194641595 0.19 0  0.3236728172270245 0.19 0  0.3162045149898895 0.19 0  0.3087362127527544 0.19 0  0.3012679105156187 0.19 0  0.2937996082784807 0.19 0  0.2863313060413428 0.19 0  0.2788630038042048 0.19 0  0.2713947015670686 0.19 0  0.2639263993299336 0.19 0  0.2564580970927985 0.19 0  0.2607803159922026 0.2000727136295815 0  0.5887803774232762 0.2001272386983733 0  0.5745072403740523 0.2002044435018727 0  0.5511891430099709 0.2001122610077113 0  0.2751288526855082 0.20000000000002 0  0.5365194309847112 0.1999999999999436 0  0.2894621222999649 0.1998691686390484 0  0.5215828265105155 0.1999999999999228 0  0.3127789816668748 0.1998657885438805 0  0.3274069683451451 0.2000000000000796 0  0.5066462220363641 0.199999999999908 0  0.3650630746574081 0.199866017807523 0  0.476773013087985 0.1999999999998713 0  0.3417402379596385 0.1998691686391011 0  0.3796850840047755 0.200000000000134 0  0.4618364086138087 0.1999999999998546 0  0.4917096175621762 0.1999999999998808 0  0.3946216884789568 0.2000000000001512 0  0.446899804139621 0.1999999999998389 0  0.4089549580935208 0.1998691686391595 0  0.4322718174608562 0.200127451265745 0  0.4201487168029707 0.1999966199048527 0  0.3528922713220932 0.2000185703532356 0  0.5633122436674589 0.1999814296467508 0  0.3006558810093873 0.1999966199048318 0  0.5815926498168407 0.1966545283159175 0  0.2677053789419034 0.1964246479135325 0  0.5290511287476175 0.1970915826863981 0  0.5439877332217911 0.197091582686394 0  0.2825131256993216 0.2035478995978015 0  0.3199386661080599 0.202908417313604 0  0.4842413153250809 0.1970915826863873 0  0.5141145242734466 0.1970915826863843 0  0.3722167817676917 0.2029084173136195 0  0.4693047108508938 0.1970915826863783 0  0.3348752705822316 0.202908417313609 0  0.3871533862418661 0.2029084173136212 0  0.4543681063767183 0.1970915826863795 0  0.4991779197992749 0.1970915826863902 0  0.4020059614928624 0.203547899597858 0  0.4394315019025246 0.1970915826863714 0  0.2550657455369551 0.2034088125358657 0  0.2548908499171161 0.1966940311614271 0  0.5946539510196798 0.2024302972968126 0  0.267698176732111 0.2039977513680092 0  0.4261685417851465 0.196409292431739 0  0.3590076176283495 0.196411355804271 0  0.5571672426447437 0.2036011176410121 0  0.3066757059912147 0.1964092924317024 0  0.594380730180568 0.1966558399668133 0  0.4842413153245942 0.2040749161535287 0  0.4693047108503577 0.2040749161535231 0  0.3871533862424271 0.1959250838464788 0  0.372246743208829 0.1959123236376545 0  0.5141145242731028 0.2040749161535395 0  0.4543681063761134 0.2040749161535186 0  0.4019979587101454 0.1959834479682427 0  0.4394608940728603 0.2040870543693135 0  0.5439623148931173 0.2040856076781014 0  0.5290511287473298 0.2040749161535501 0  0.4991779197988497 0.2040749161535382 0  0.3347912413592433 0.1959225448935183 0  0.3199680582793816 0.1959123018030061 0  0.2825051229162361 0.1959834479681729 0  0.3590471196690275 0.2036304442587945 0  0.5571594006495384 0.1963685282145804 0  0.3067669986803285 0.203627750582736 0  0.4262598344738712 0.2036568242185335 0  0.5814408164431408 0.2041285596160068 0  0.5688286748170428 0.1961819304477386 0  0.4145905603063645 0.2038180695522843 0  0.3473758401724931 0.2038180695522752 0  0.2950977245128307 0.2038180695522663 0  0.5688286748170693 0.203818069552238 0  0.2950977245127906 0.1961819304477774 0  0.3473758401723931 0.1961819304478349 0  0.4145905603061963 0.1961819304479011 0  0.2601812407614425 0.2056861609747042
[...]
<PointData  Vectors="f_40-1"> 
<DataArray  type="Float64"  Name="f_40-1"  NumberOfComponents="3" format="ascii">0.0000000000000000e+00 0.0000000000000000e+00 0.0000000000000000e+00  0.0000000000000000e+00 0.0000000000000000e+00 0.0000000000000000e+00  0.0000000000000000e+00 0.0000000000000000e+00 0.0000000000000000e+00  0.0000000000000000e+00 0.0000000000000000e+00 0.0000000000000000e+00  -1.0350715478273684e-05 -5.5035053516170354e-05 0.0000000000000000e+00  -5.7881948455991875e-06 -5.7235547280548181e-05 0.0000000000000000e+00  0.0000000000000000e+00 0.0000000000000000e+00 0.0000000000000000e+00  0.0000000000000000e+00 0.0000000000000000e+00 0.0000000000000000e+00  0.0000000000000000e+00 0.0000000000000000e+00 0.0000000000000000e+00  0.0000000000000000e+00 0.0000000000000000e+00 0.0000000000000000e+00  -8.2238541401076657e-06 -5.6136151289159856e-05 0.0000000000000000e+00  0.0000000000000000e+00 0.0000000000000000e+00 0.0000000000000000e+00  0.0000000000000000e+00 0.0000000000000000e+00 0.0000000000000000e+00  0.0000000000000000e+00 0.0000000000000000e+00 0.0000000000000000e+00  0.0000000000000000e+00 0.0000000000000000e+00 0.0000000000000000e+00  0.0000000000000000e+00 0.0000000000000000e+00 0.0000000000000000e+00  0.0000000000000000e+00 0.0000000000000000e+00 0.0000000000000000e+00  0.0000000000000000e+00 0.0000000000000000e+00 0.0000000000000000e+00  0.0000000000000000e+00 0.0000000000000000e+00 0.0000000000000000e+00  0.0000000000000000e+00 0.0000000000000000e+00 0.0000000000000000e+00  0.0000000000000000e+00 0.0000000000000000e+00 0.0000000000000000e+00  0.0000000000000000e+00 0.0000000000000000e+00 0.0000000000000000e+00  0.0000000000000000e+00 0.0000000000000000e+00 0.0000000000000000e+00  0.0000000000000000e+00 0.0000000000000000e+00 0.0000000000000000e+00  0.0000000000000000e+00 0.0000000000000000e+00 0.0000000000000000e+00  0.0000000000000000e+00 0.0000000000000000e+00 0.0000000000000000e+00  0.0000000000000000e+00 0.0000000000000000e+00 0.0000000000000000e+00  0.0000000000000000e+00 0.0000000000000000e+00 0.0000000000000000e+00  0.0000000000000000e+00 0.0000000000000000e+00 0.0000000000000000e+00  0.0000000000000000e+00 0.0000000000000000e+00 0.0000000000000000e+00  0.0000000000000000e+00 0.0000000000000000e+00 0.0000000000000000e+00  0.0000000000000000e+00 0.0000000000000000e+00 0.0000000000000000e+00  0.0000000000000000e+00 0.0000000000000000e+00 0.0000000000000000e+00  0.0000000000000000e+00 0.0000000000000000e+00 0.0000000000000000e+00  0.0000000000000000e+00 0.0000000000000000e+00 0.0000000000000000e+00  0.0000000000000000e+00 0.0000000000000000e+00 0.0000000000000000e+00  0.0000000000000000e+00 0.0000000000000000e+00 0.0000000000000000e+00  0.0000000000000000e+00 0.0000000000000000e+00 0.0000000000000000e+00  0.0000000000000000e+00 0.0000000000000000e+00 0.0000000000000000e+00  0.0000000000000000e+00 0.0000000000000000e+00 0.0000000000000000e+00  0.0000000000000000e+00 0.0000000000000000e+00 0.0000000000000000e+00  0.0000000000000000e+00 0.0000000000000000e+00 0.0000000000000000e+00  0.0000000000000000e+00 0.0000000000000000e+00 0.0000000000000000e+00  0.0000000000000000e+00 0.0000000000000000e+00 0.0000000000000000e+00  0.0000000000000000e+00 0.0000000000000000e+00 0.0000000000000000e+00  0.0000000000000000e+00 0.0000000000000000e+00 0.0000000000000000e+00  0.0000000000000000e+00 0.0000000000000000e+00 0.0000000000000000e+00  0.0000000000000000e+00 0.0000000000000000e+00 0.0000000000000000e+00  0.0000000000000000e+00 0.0000000000000000e+00 0.0000000000000000e+00  0.0000000000000000e+00 0.0000000000000000e+00 0.0000000000000000e+00  0.0000000000000000e+00 0.0000000000000000e+00 0.0000000000000000e+00  0.0000000000000000e+00 0.0000000000000000e+00 0.0000000000000000e+00  0.0000000000000000e+00 0.0000000000000000e+00 0.0000000000000000e+00  0.0000000000000000e+00 0.0000000000000000e+00 0.0000000000000000e+00  0.0000000000000000e+00 0.0000000000000000e+00 0.0000000000000000e+00  0.0000000000000000e+00 0.0000000000000000e+00 0.0000000000000000e+00  0.0000000000000000e+00 0.0000000000000000e+00 0.0000000000000000e+00  0.0000000000000000e+00 0.0000000000000000e+00 0.0000000000000000e+00  0.0000000000000000e+00 0.0000000000000000e+00 0.0000000000000000e+00  0.0000000000000000e+00 0.0000000000000000e+00 0.0000000000000000e+00  0.0000000000000000e+00 0.0000000000000000e+00 0.0000000000000000e+00  0.0000000000000000e+00 0.0000000000000000e+00 0.0000000000000000e+00  0.0000000000000000e+00 0.0000000000000000e+00 0.0000000000000000e+00  0.0000000000000000e+00 0.0000000000000000e+00 0.0000000000000000e+00  0.0000000000000000e+00 0.0000000000000000e+00 0.0000000000000000e+00  0.0000000000000000e+00 0.0000000000000000e+00 0.0000000000000000e+00  0.0000000000000000e+00 0.0000000000000000e+00 0.0000000000000000e+00  0.0000000000000000e+00 0.0000000000000000e+00 0.0000000000000000e+00  0.0000000000000000e+00 0.0000000000000000e+00 0.0000000000000000e+00  0.0000000000000000e+00 0.0000000000000000e+00 0.0000000000000000e+00  0.0000000000000000e+00 0.0000000000000000e+00 0.0000000000000000e+00  0.0000000000000000e+00 0.0000000000000000e+00 0.0000000000000000e+00  0.0000000000000000e+00 0.0000000000000000e+00 0.0000000000000000e+00  0.0000000000000000e+00 0.0000000000000000e+00 0.0000000000000000e+00  0.0000000000000000e+00 0.0000000000000000e+00 0.0000000000000000e+00  0.0000000000000000e+00 0.0000000000000000e+00 0.0000000000000000e+00  0.0000000000000000e+00 0.0000000000000000e+00 0.0000000000000000e+00  0.0000000000000000e+00 0.0000000000000000e+00 0.0000000000000000e+00  0.0000000000000000e+00 0.0000000000000000e+00 0.0000000000000000e+00  0.0000000000000000e+00 0.0000000000000000e+00 0.0000000000000000e+00  0.0000000000000000e+00 0.0000000000000000e+00 0.0000000000000000e+00  0.0000000000000000e+00 0.0000000000000000e+00 0.0000000000000000e+00  0.0000000000000000e+00 0.0000000000000000e+00 0.0000000000000000e+00  0.0000000000000000e+00 0.0000000000000000e+00 0.0000000000000000e+00  0.0000000000000000e+00 0.0000000000000000e+00 0.0000000000000000e+00  0.0000000000000000e+00 0.0000000000000000e+00 0.0000000000000000e+00  0.0000000000000000e+00 0.0000000000000000e+00 0.0000000000000000e+00  0.0000000000000000e+00 0.0000000000000000e+00 0.0000000000000000e+00  0.0000000000000000e+00 0.0000000000000000e+00 0.0000000000000000e+00  0.0000000000000000e+00 0.0000000000000000e+00 0.0000000000000000e+00  0.0000000000000000e+00 0.0000000000000000e+00 0.0000000000000000e+00  0.0000000000000000e+00 0.0000000000000000e+00 0.0000000000000000e+00  0.0000000000000000e+00 0.0000000000000000e+00 0.0000000000000000e+00  0.0000000000000000e+00 0.0000000000000000e+00 0.0000000000000000e+00  0.0000000000000000e+00 0.0000000000000000e+00 0.0000000000000000e+00  0.0000000000000000e+00 0.0000000000000000e+00 0.0000000000000000e+00  0.0000000000000000e+00 0.0000000000000000e+00 0.0000000000000000e+00  0.0000000000000000e+00 0.0000000000000000e+00 0.0000000000000000e+00  0.0000000000000000e+00 0.0000000000000000e+00 0.0000000000000000e+00  0.0000000000000000e+00 0.0000000000000000e+00 0.0000000000000000e+00  0.0000000000000000e+00 0.0000000000000000e+00 0.0000000000000000e+00  0.0000000000000000e+00 0.0000000000000000e+00 0.0000000000000000e+00  0.0000000000000000e+00 0.0000000000000000e+00 0.0000000000000000e+00  0.0000000000000000e+00 0.0000000000000000e+00 0.0000000000000000e+00  0.0000000000000000e+00 0.0000000000000000e+00 0.0000000000000000e+00  0.0000000000000000e+00 0.0000000000000000e+00 0.0000000000000000e+00  0.0000000000000000e+00 0.0000000000000000e+00 0.0000000000000000e+00  0.0000000000000000e+00 0.0000000000000000e+00 0.0000000000000000e+00  0.0000000000000000e+00 0.0000000000000000e+00 0.0000000000000000e+00  0.0000000000000000e+00 0.0000000000000000e+00 0.0000000000000000e+00  0.0000000000000000e+00 0.0000000000000000e+00 0.0000000000000000e+00  0.0000000000000000e+00 0.0000000000000000e+00 0.0000000000000000e+00  0.0000000000000000e+00 0.0000000000000000e+00 0.0000000000000000e+00  0.0000000000000000e+00 0.0000000000000000e+00 0.0000000000000000e+00  0.0000000000000000e+00 0.0000000000000000e+00 0.0000000000000000e+00  0.0000000000000000e+00 0.0000000000000000e+00 0.0000000000000000e+00  0.0000000000000000e+00 0.0000000000000000e+00 0.0000000000000000e+00  0.0000000000000000e+00 0.0000000000000000e+00 0.0000000000000000e+00  0.0000000000000000e+00 0.0000000000000000e+00 0.0000000000000000e+00  0.0000000000000000e+00 0.0000000000000000e+00 0.0000000000000000e+00  0.0000000000000000e+00 0.0000000000000000e+00 0.0000000000000000e+00  0.0000000000000000e+00 0.0000000000000000e+00 0.0000000000000000e+00  0.0000000000000000e+00 0.0000000000000000e+00 0.0000000000000000e+00  0.0000000000000000e+00 0.0000000000000000e+00 0.0000000000000000e+00  0.0000000000000000e+00 0.0000000000000000e+00 0.0000000000000000e+00  0.0000000000000000e+00 0.0000000000000000e+00 0.0000000000000000e+00  0.0000000000000000e+00 0.0000000000000000e+00 0.0000000000000000e+00  0.0000000000000000e+00 0.0000000000000000e+00 0.0000000000000000e+00  0.0000000000000000e+00 0.0000000000000000e+00 0.0000000000000000e+00  0.0000000000000000e+00 0.0000000000000000e+00 0.0000000000000000e+00  0.0000000000000000e+00 0.0000000000000000e+00 0.0000000000000000e+00  0.0000000000000000e+00 0.0000000000000000e+00 0.0000000000000000e+00  0.0000000000000000e+00 0.0000000000000000e+00 0.0000000000000000e+00  0.0000000000000000e+00 0.0000000000000000e+00 0.0000000000000000e+00  0.0000000000000000e+00 0.0000000000000000e+00 0.0000000000000000e+00  0.0000000000000000e+00 0.0000000000000000e+00 0.0000000000000000e+00  0.0000000000000000e+00 0.0000000000000000e+00 0.0000000000000000e+00  0.0000000000000000e+00 0.0000000000000000e+00 0.0000000000000000e+00  0.0000000000000000e+00 0.0000000000000000e+00 0.0000000000000000e+00  0.0000000000000000e+00 0.0000000000000000e+00 0.0000000000000000e+00  0.0000000000000000e+00 0.0000000000000000e+00 0.0000000000000000e+00  0.0000000000000000e+00 0.0000000000000000e+00 0.0000000000000000e+00  0.0000000000000000e+00 0.0000000000000000e+00 0.0000000000000000e+00  8.5501167518571612e-08 -1.9735318120655261e-06 0.0000000000000000e+00  2.4351074475493388e-07 -2.2324166689685346e-06 0.0000000000000000e+00  4.8684671353984754e-07 -2.4614574042055306e-06 0.0000000000000000e+00  7.8300362757677458e-07 -2.7128840863043503e-06 0.0000000000000000e+00  1.0706300015551757e-06 -3.0346587149828105e-06 0.0000000000000000e+00  1.3545911864786663e-06 -3.4536224790043679e-06 0.0000000000000000e+00  1.6050681528261442e-06 -3.9302930019238502e-06 0.0000000000000000e+00  1.8328310030351457e-06 -4.4879845833689021e-06 0.0000000000000000e+00  2.0622915774948972e-06 -5.1089016753779526e-06 0.0000000000000000e+00  2.2466240391260443e-06 -5.7900902249259332e-06 0.0000000000000000e+00  2.4327712882159098e-06 -6.5450648552541221e-06 0.0000000000000000e+00  2.5754105740586566e-06 -7.3512351681131489e-06 0.0000000000000000e+00  2.7118277420057379e-06 -8.2212343948312368e-06 0.0000000000000000e+00  2.8152330660770195e-06 -9.1412927295042220e-06 0.0000000000000000e+00  2.8941769663368538e-06 -1.0118255458251243e-05 0.0000000000000000e+00  2.9691448545794886e-06 -1.1146918148509549e-05 0.0000000000000000e+00  3.0031417126251414e-06 -1.2213673073865109e-05 0.0000000000000000e+00  3.0308644056845551e-06 -1.3340469696216738e-05 0.0000000000000000e+00  3.0207658011110069e-06 -1.4496385236389524e-05 0.0000000000000000e+00  3.0032648578860795e-06 -1.5705910669387074e-05 0.0000000000000000e+00  2.9524758763007702e-06 -1.6942387302830108e-05 0.0000000000000000e+00  2.8855794314287122e-06 -1.8224691994559450e-05 0.0000000000000000e+00  2.7935073408035128e-06 -1.9537040664767302e-05 0.0000000000000000e+00  2.6771110703777719e-06 -2.0883116703209061e-05 0.0000000000000000e+00  2.5511071487731265e-06 -2.2262820191315992e-05 0.0000000000000000e+00  2.3945969167546841e-06 -2.3662773995364838e-05 0.0000000000000000e+00  2.2174354340658866e-06 -2.5105444326522438e-05 0.0000000000000000e+00  2.0176164276714815e-06 -2.6558716855092202e-05 0.0000000000000000e+00  1.7969908538333041e-06 -2.8049154917578876e-05 0.0000000000000000e+00  1.5537771275676457e-06 -2.9550247792022161e-05 0.0000000000000000e+00  1.2907118011912496e-06 -3.1083100864393159e-05 0.0000000000000000e+00  1.0035924025497191e-06 -3.2623090286561399e-05 0.0000000000000000e+00  6.9830106491657848e-07 -3.4192989966123611e-05 0.0000000000000000e+00  3.6833705178847568e-07 -3.5764070396510675e-05 0.0000000000000000e+00  1.6659069819189048e-08 -3.7364812318947496e-05 0.0000000000000000e+00  -3.5655385990026968e-07 -3.8965092970038363e-05 0.0000000000000000e+00  -7.4999645581795502e-07 -4.0589195399054210e-05 0.0000000000000000e+00  -1.1657405181375007e-06 -4.2211278578759961e-05 0.0000000000000000e+00  -1.6029117751458480e-06 -4.3853981202074270e-05 0.0000000000000000e+00  -2.0636284567978668e-06 -4.5493068026733213e-05 0.0000000000000000e+00  -2.5472144444594750e-06 -4.7146100581843146e-05 0.0000000000000000e+00  -3.0497630251293305e-06 -4.8798990185781130e-05 0.0000000000000000e+00  -3.5777469810518873e-06 -5.0459822447486714e-05 0.0000000000000000e+00  -4.1181153381494564e-06 -5.2121466404609247e-05 0.0000000000000000e+00  -4.6835917563706325e-06 -5.3778998975571629e-05 0.0000000000000000e+00  -5.2539151496007899e-06 -5.5459445385606677e-05 0.0000000000000000e+00  -7.0599019723573292e-06 -5.6681397126902755e-05 0.0000000000000000e+00  -9.3316267843281485e-06 -5.5591306795745875e-05 0.0000000000000000e+00  -9.8036749186415560e-06 -5.3412397738237293e-05 0.0000000000000000e+00  -9.2234434914440502e-06 -5.1693471288970667e-05 0.0000000000000000e+00  -8.6476522570361312e-06 -4.9964517141248909e-05 0.0000000000000000e+00  -8.0944115229410333e-06 -4.8246842914732972e-05 0.0000000000000000e+00  -7.5541994589897647e-06 -4.6533405920548025e-05 0.0000000000000000e+00  -7.0388807086449152e-06 -4.4825905071537449e-05 0.0000000000000000e+00  -6.5371984804932716e-06 -4.3125640570282328e-05 0.0000000000000000e+00  -6.0594625703998450e-06 -4.1427089527412463e-05 0.0000000000000000e+00  -5.5970894666400002e-06 -3.9745762333740547e-05 0.0000000000000000e+00  -5.1566870487037748e-06 -3.8062753674753014e-05 0.0000000000000000e+00  -4.7310455764532662e-06 -3.6400335057731374e-05 0.0000000000000000e+00  -4.3277601549333265e-06 -3.4739394120233594e-05 0.0000000000000000e+00  -3.9377947966075555e-06 -3.3101945952255797e-05 0.0000000000000000e+00  -3.5703725572276071e-06 -3.1468767194812227e-05 0.0000000000000000e+00  -3.2150337637628157e-06 -2.9862141225463435e-05 0.0000000000000000e+00  -2.8831162016761256e-06 -2.8262727110614643e-05 0.0000000000000000e+00  -2.5620496221645311e-06 -2.6691990426917051e-05 0.0000000000000000e+00  -2.2657986354964593e-06 -2.5131566814287909e-05 0.0000000000000000e+00  -1.9791093259854234e-06 -2.3604291799446693e-05 0.0000000000000000e+00  -1.7175162136526790e-06 -2.2091097189314101e-05 0.0000000000000000e+00  -1.4636815287741002e-06 -2.0614016618384369e-05 0.0000000000000000e+00  -1.2363077210941751e-06 -1.9154969435125898e-05 0.0000000000000000e+00  -1.0188866890354934e-06 -1.7731439492835456e-05 0.0000000000000000e+00  -8.2247123458518066e-07 -1.6335020157455669e-05 0.0000000000000000e+00  -6.4750051447074439e-07 -1.4976188953645106e-05 0.0000000000000000e+00  -4.7483194935817212e-07 -1.3648985099468334e-05 0.0000000000000000e+00  -3.2858488875299661e-07 -1.2355125727938685e-05 0.0000000000000000e+00  -1.9364721997615477e-07 -1.1110851077138198e-05 0.0000000000000000e+00  -7.9931944512295492e-08 -9.8951102121384854e-06 0.0000000000000000e+00  2.1479848706857732e-08 -8.7352641356572739e-06 0.0000000000000000e+00  1.0223202296452391e-07 -7.6071278355923647e-06 0.0000000000000000e+00  1.7404063755373320e-07 -6.5420921525481547e-06 0.0000000000000000e+00  2.2344496608903667e-07 -5.5139713845133897e-06 0.0000000000000000e+00  2.5312560577396956e-07 -4.5510530986053679e-06 0.0000000000000000e+00  2.8501156173092530e-07 -3.6317263145683433e-06 0.0000000000000000e+00  2.8984943113127403e-07 -2.7744544404608674e-06 0.0000000000000000e+00  2.8523341989098542e-07 -1.9850632220793111e-06 0.0000000000000000e+00  2.5928032999820451e-07 -1.2495452734335507e-06 0.0000000000000000e+00  2.2872658422356096e-07 -5.9228443893542127e-07 0.0000000000000000e+00  1.7254405907697255e-07 8.8306885824734769e-09 0.0000000000000000e+00  9.7442329259635142e-08 5.2711212956783168e-07 0.0000000000000000e+00  3.1463165722440341e-08 9.8287494592525771e-07 0.0000000000000000e+00  -6.4687411245386647e-08 1.3730804281243470e-06 0.0000000000000000e+00  -1.3362895850514916e-07 1.6770844490434590e-06 0.0000000000000000e+00  -1.7886172116693934e-07 1.8399641616619377e-06 0.0000000000000000e+00  -1.1729738647336046e-07 1.8084367271003815e-06 0.0000000000000000e+00  -3.5208208799759714e-07 -9.2497294007667493e-08 0.0000000000000000e+00  -7.2636560819149945e-06 -5.3591922691360127e-05 0.0000000000000000e+00  -6.1229200263913630e-06 -5.0362502864544374e-05 0.0000000000000000e+00  -4.5158937227004667e-06 -4.5095847560483237e-05 0.0000000000000000e+00  2.4880631518716690e-07 -4.7057493581718940e-07 0.0000000000000000e+00  -3.6220664190714445e-06 -4.1802693208119959e-05 0.0000000000000000e+00  6.1173830845514050e-07 -1.1228168127370998e-06 0.0000000000000000e+00  -2.7638205599756382e-06 -3.8495679680065705e-05 0.0000000000000000e+00  1.0786212182443186e-06 -2.8073527016815594e-06 0.0000000000000000e+00  1.2997176798589387e-06 -4.2258467671442626e-06 0.0000000000000000e+00  -1.9853936124049108e-06 -3.5232211114901593e-05 0.0000000000000000e+00  1.5047768729178245e-06 -8.8350357611423936e-06 0.0000000000000000e+00  -6.6534148017542118e-07 -2.8881431413690819e-05 0.0000000000000000e+00  1.4268702128774867e-06 -5.7961169210171145e-06 0.0000000000000000e+00  1.4793396559638512e-06 -1.1011741479099508e-05 0.0000000000000000e+00  -1.2255861898352500e-07 -2.5818159164874717e-05 0.0000000000000000e+00  -1.2860370046312700e-06 -3.2023386251883032e-05 0.0000000000000000e+00  1.3615780764644007e-06 -1.3385301683102104e-05 0.0000000000000000e+00  3.4235284060698140e-07 -2.2847940971782731e-05 0.0000000000000000e+00  1.1555875729807615e-06 -1.5791806095534427e-05 0.0000000000000000e+00  7.4880124657699609e-07 -2.0061959318154398e-05 0.0000000000000000e+00  9.7635944049855652e-07 -1.7808489651972912e-05 0.0000000000000000e+00  1.4993405889016291e-06 -7.2206496422851793e-06 0.0000000000000000e+00  -5.3740718437349878e-06 -4.7809264002061547e-05 0.0000000000000000e+00  8.5805274892024148e-07 -1.8823667584908531e-06 0.0000000000000000e+00  -7.4714850724613598e-06 -5.1596138026091850e-05 0.0000000000000000e+00  -1.0142323012858882e-07 5.3211381290337311e-07 0.0000000000000000e+00  -3.8254829352075693e-06 -3.9782460455017722e-05 0.0000000000000000e+00  -4.7301774196461807e-06 -4.3121183076382616e-05 0.0000000000000000e+00  6.1172638991020034e-07 -1.5107234544066423e-06 0.0000000000000000e+00  1.4750436833431606e-06 -4.0465271342451302e-06 0.0000000000000000e+00  -1.5761198415210781e-06 -3.0039302877037196e-05 0.0000000000000000e+00  -2.9986519857371520e-06 -3.6481630922580509e-05 0.0000000000000000e+00  1.9359450103566894e-06 -1.0403901254796697e-05 0.0000000000000000e+00  -9.7876926826486865e-07 -2.6921022974378143e-05 0.0000000000000000e+00  1.7023859208243815e-06 -5.5795905763502833e-06 0.0000000000000000e+00  1.8889694462905075e-06 -1.2678488429269687e-05 0.0000000000000000e+00  -4.5703818542677745e-07 -2.3888731858177067e-05 0.0000000000000000e+00  -2.2492381551422808e-06 -3.3229842931529762e-05 0.0000000000000000e+00  1.8738017528915881e-06 -1.5213232620761222e-05 0.0000000000000000e+00  -9.9870946405281135e-09 -2.0956736563971325e-05 0.0000000000000000e+00  -3.7593960338558068e-07 -4.7243319059232218e-07 0.0000000000000000e+00  -4.0254210165778980e-07 3.9736703407804514e-07 0.0000000000000000e+00  -7.2257927507931300e-06 -5.5165686807404634e-05 0.0000000000000000e+00  1.06037428431