<?xml version="1.0"?>
<VTKFile type="UnstructuredGrid"  version="0.1"  >
<UnstructuredGrid>
<Piece  NumberOfPoints="1419" NumberOfCells="2698">
<Points>
<DataArray  type="Float64"  NumberOfComponents="3"  format="ascii">0 0 0  0 0.41 0  2.5 0 0  2.5 0.41 0  0.6 0.19 0  0.6 0.21 0  0.25 0.2 0  0.15 0.2 0  0.2489897948556636 0.21 0  0.2489897948556636 0.19 0  0.6 0.2 0  0 0.3807142857143437 0  0 0.3514285714286952 0  0 0.3221428571430699 0  0 0.29285714285744 0  0 0.2635714285718054 0  0 0.2342857142861561 0  0 0.2050000000005308 0  0 0.175714285714732 0  0 0.1464285714289574 0  0 0.1171428571431897 0  0 0.08785714285737878 0  0 0.05857142857161107 0  0 0.02928571428580012 0  0.03015443760436003 0 0  0.06140001986583606 0 0  0.09377624077125973 0 0  0.1273239957535082 0 0  0.1620856860351972 0 0  0.1981052433264291 0 0  0.235428184091502 0 0  0.2741016576309132 0 0  0.3141745521465447 0 0  0.3556974926295285 0 0  0.3987229542472677 0 0  0.4433053055141081 0 0  0.4895008759286886 0 0  0.5373680609405097 0 0  0.5869673343216626 0 0  0.6383613676634521 0 0  0.6916151138468254 0 0  0.7467958595648856 0 0  0.8039733463919316 0 0  0.8632198139502143 0 0  0.9246101326867038 0 0  0.9882218810934433 0 0  1.054135445558498 0 0  1.122434100542598 0 0  1.193204177141305 0 0  1.266535089879536 0 0  1.342519516046404 0 0  1.421253448503939 0 0  1.502836389106271 0 0  1.587371439758838 0 0  1.674965418777374 0 0  1.765729001825544 0 0  1.859776908880082 0 0  1.957227977487062 0 0  2.058205329869943 0 0  2.162836591189951 0 0  2.271253957290865 0 0  2.383594446803425 0 0  2.5 0.1024999999997612 0  2.5 0.2049999999994743 0  2.5 0.3074999999997183 0  2.383594446803656 0.41 0  2.271253957291315 0.41 0  2.162836591190598 0.41 0  2.058205329870775 0.41 0  1.957227977488067 0.41 0  1.859776908881246 0.41 0  1.765729001826854 0.41 0  1.674965418778818 0.41 0  1.58737143976041 0.41 0  1.502836389107956 0.41 0  1.421253448505726 0.41 0  1.342519516048286 0.41 0  1.266535089881505 0.41 0  1.193204177143353 0.41 0  1.122434100544716 0.41 0  1.05413544556068 0.41 0  0.9882218810956305 0.41 0  0.9246101326886647 0.41 0  0.8632198139519631 0.41 0  0.8039733463934788 0.41 0  0.7467958595662458 0.41 0  0.6916151138480078 0.41 0  0.6383613676644679 0.41 0  0.5869673343225223 0.41 0  0.5373680609412221 0.41 0  0.4895008759292634 0.41 0  0.4433053055145528 0.41 0  0.3987229542475914 0.41 0  0.3556974926297398 0.41 0  0.3141745521466497 0.41 0  0.2741016576310038 0.41 0  0.2354281840915826 0.41 0  0.1981052433265003 0.41 0  0.1620856860352591 0.41 0  0.1273239957535623 0.41 0  0.09377624077128965 0.41 0  0.06140001986584975 0.41 0  0.03015443760436654 0.41 0  0.2497468076502589 0.2050254481002335 0  0.2497468076502614 0.1949745518997913 0  0.2469965252529372 0.1829317073451959 0  0.2439893735792749 0.1762316384219906 0  0.2400332147834255 0.1700443375285386 0  0.2352133972704371 0.1645032867342007 0  0.2296339016332438 0.1597280261969788 0  0.2234150974217223 0.1558215752574715 0  0.2166911463437691 0.1528682099456123 0  0.2096071079204251 0.1509316448471593 0  0.2023158100364996 0.1500536585536553 0  0.194974551899914 0.1502531923497262 0  0.1877417105387872 0.1515259415822739 0  0.1807733240461124 0.153844448527136 0  0.1742197252835808 0.15715869474974 0  0.1682222986673531 0.1613971801805478 0  0.162910430003803 0.1664684656256651 0  0.1583987151779087 0.1722631454351573 0  0.1547844879126891 0.178656207771761 0  0.1521457199348551 0.1855097315605723 0  0.1505393388476355 0.1926758619366523 0  0.1505393388476328 0.2073241380633295 0  0.1521457199348437 0.2144902684393899 0  0.1547844879126531 0.221343792228163 0  0.1583987151778488 0.2277368545647528 0  0.1629104300036858 0.2335315343742052 0  0.1682222986671726 0.2386028198193036 0  0.1742197252833576 0.2428413052501257 0  0.1807733240458683 0.2461555514727623 0  0.1877417105384929 0.2484740584176516 0  0.1949745518995776 0.2497468076502398 0  0.202315810036185 0.2499463414463592 0  0.2096071079201568 0.2490683551528932 0  0.2166911463435495 0.2471317900544655 0  0.2234150974215506 0.2441784247426195 0  0.2296339016331197 0.2402719738031125 0  0.2352133972703547 0.2354967132658811 0  0.2400332147833751 0.2299556624715287 0  0.2439893735792577 0.2237683615780412 0  0.246996525252926 0.2170682926548348 0  0.25645809709277 0.21 0  0.2639263993298655 0.21 0  0.271394701566961 0.21 0  0.2788630038040554 0.21 0  0.2863313060411479 0.21 0  0.2937996082782405 0.21 0  0.301267910515333 0.21 0  0.3087362127524279 0.21 0  0.3162045149895234 0.21 0  0.3236728172265972 0.21 0  0.3311411194636928 0.21 0  0.3386094217007701 0.21 0  0.3460777239378666 0.21 0  0.3535460261749672 0.21 0  0.3610143284120516 0.21 0  0.3684826306491596 0.21 0  0.3759509328862226 0.21 0  0.383419235123329 0.21 0  0.3908875373604028 0.21 0  0.3983558395975142 0.21 0  0.4058241418345938 0.21 0  0.4132924440716992 0.21 0  0.4207607463087888 0.21 0  0.4282290485459029 0.21 0  0.4356973507830418 0.21 0  0.4431656530201649 0.21 0  0.4506339552573136 0.21 0  0.4581022574944306 0.21 0  0.4655705597315852 0.21 0  0.4730388619686996 0.21 0  0.480507164205851 0.21 0  0.4879754664429498 0.21 0  0.4954437686800938 0.21 0  0.502912070917267 0.21 0  0.5103803731544119 0.21 0  0.5178486753915261 0.21 0  0.5253169776286404 0.21 0  0.5327852798657868 0.21 0  0.5402535821029386 0.21 0  0.54772188434007 0.21 0  0.5551901865771842 0.21 0  0.5626584888143201 0.21 0  0.5701267910514778 0.21 0  0.5775950932886138 0.21 0  0.5850633955257281 0.21 0  0.5925316977628483 0.21 0  0.6 0.2050000000000054 0  0.6 0.1950000000000217 0  0.5925316977628897 0.19 0  0.5850633955257988 0.19 0  0.5775950932887378 0.19 0  0.5701267910515998 0.19 0  0.5626584888145268 0.19 0  0.5551901865773963 0.19 0  0.547721884340339 0.19 0  0.5402535821032429 0.19 0  0.5327852798661811 0.19 0  0.5253169776290537 0.19 0  0.5178486753919799 0.19 0  0.5103803731549078 0.19 0  0.502912070917822 0.19 0  0.4954437686807294 0.19 0  0.4879754664436223 0.19 0  0.4805071642065402 0.19 0  0.4730388619694271 0.19 0  0.4655705597323621 0.19 0  0.4581022574952563 0.19 0  0.4506339552581777 0.19 0  0.4431656530210671 0.19 0  0.4356973507839815 0.19 0  0.4282290485468779 0.19 0  0.4207607463097617 0.19 0  0.4132924440726327 0.19 0  0.4058241418354857 0.19 0  0.3983558395983636 0.19 0  0.3908875373612097 0.19 0  0.3834192351240934 0.19 0  0.3759509328869369 0.19 0  0.3684826306498175 0.19 0  0.361014328412667 0.19 0  0.3535460261755617 0.19 0  0.3460777239384295 0.19 0  0.3386094217012945 0.19 0  0.3311411194641595 0.19 0  0.3236728172270245 0.19 0  0.3162045149898895 0.19 0  0.3087362127527544 0.19 0  0.3012679105156187 0.19 0  0.2937996082784807 0.19 0  0.2863313060413428 0.19 0  0.2788630038042048 0.19 0  0.2713947015670686 0.19 0  0.2639263993299336 0.19 0  0.2564580970927985 0.19 0  0.2607803159922026 0.2000727136295815 0  0.5887803774232762 0.2001272386983733 0  0.5745072403740523 0.2002044435018727 0  0.5511891430099709 0.2001122610077113 0  0.2751288526855082 0.20000000000002 0  0.5365194309847112 0.1999999999999436 0  0.2894621222999649 0.1998691686390484 0  0.5215828265105155 0.1999999999999228 0  0.3127789816668748 0.1998657885438805 0  0.3274069683451451 0.2000000000000796 0  0.5066462220363641 0.199999999999908 0  0.3650630746574081 0.199866017807523 0  0.476773013087985 0.1999999999998713 0  0.3417402379596385 0.1998691686391011 0  0.3796850840047755 0.200000000000134 0  0.4618364086138087 0.1999999999998546 0  0.4917096175621762 0.1999999999998808 0  0.3946216884789568 0.2000000000001512 0  0.446899804139621 0.1999999999998389 0  0.4089549580935208 0.1998691686391595 0  0.4322718174608562 0.200127451265745 0  0.4201487168029707 0.1999966199048527 0  0.3528922713220932 0.2000185703532356 0  0.5633122436674589 0.1999814296467508 0  0.3006558810093873 0.1999966199048318 0  0.5815926498168407 0.1966545283159175 0  0.2677053789419034 0.1964246479135325 0  0.5290511287476175 0.1970915826863981 0  0.5439877332217911 0.197091582686394 0  0.2825131256993216 0.2035478995978015 0  0.3199386661080599 0.202908417313604 0  0.4842413153250809 0.1970915826863873 0  0.5141145242734466 0.1970915826863843 0  0.3722167817676917 0.2029084173136195 0  0.4693047108508938 0.1970915826863783 0  0.3348752705822316 0.202908417313609 0  0.3871533862418661 0.2029084173136212 0  0.4543681063767183 0.1970915826863795 0  0.4991779197992749 0.1970915826863902 0  0.4020059614928624 0.203547899597858 0  0.4394315019025246 0.1970915826863714 0  0.2550657455369551 0.2034088125358657 0  0.2548908499171161 0.1966940311614271 0  0.5946539510196798 0.2024302972968126 0  0.267698176732111 0.2039977513680092 0  0.4261685417851465 0.196409292431739 0  0.3590076176283495 0.196411355804271 0  0.5571672426447437 0.2036011176410121 0  0.3066757059912147 0.1964092924317024 0  0.594380730180568 0.1966558399668133 0  0.4842413153245942 0.2040749161535287 0  0.4693047108503577 0.2040749161535231 0  0.3871533862424271 0.1959250838464788 0  0.372246743208829 0.1959123236376545 0  0.5141145242731028 0.2040749161535395 0  0.4543681063761134 0.2040749161535186 0  0.4019979587101454 0.1959834479682427 0  0.4394608940728603 0.2040870543693135 0  0.5439623148931173 0.2040856076781014 0  0.5290511287473298 0.2040749161535501 0  0.4991779197988497 0.2040749161535382 0  0.3347912413592433 0.1959225448935183 0  0.3199680582793816 0.1959123018030061 0  0.2825051229162361 0.1959834479681729 0  0.3590471196690275 0.2036304442587945 0  0.5571594006495384 0.1963685282145804 0  0.3067669986803285 0.203627750582736 0  0.4262598344738712 0.2036568242185335 0  0.5814408164431408 0.2041285596160068 0  0.5688286748170428 0.1961819304477386 0  0.4145905603063645 0.2038180695522843 0  0.3473758401724931 0.2038180695522752 0  0.2950977245128307 0.2038180695522663 0  0.5688286748170693 0.203818069552238 0  0.2950977245127906 0.1961819304477774 0  0.3473758401723931 0.1961819304478349 0  0.4145905603061963 0.1961819304479011 0  0.2601812407614425 0.2056861609747042
[...]
<PointData  Vectors="f_40-1"> 
<DataArray  type="Float64"  Name="f_40-1"  NumberOfComponents="3" format="ascii">0.0000000000000000e+00 0.0000000000000000e+00 0.0000000000000000e+00  0.0000000000000000e+00 0.0000000000000000e+00 0.0000000000000000e+00  0.0000000000000000e+00 0.0000000000000000e+00 0.0000000000000000e+00  0.0000000000000000e+00 0.0000000000000000e+00 0.0000000000000000e+00  -1.1033811710972137e-05 -1.2182171956510074e-04 0.0000000000000000e+00  -1.1711020969024021e-06 -1.2462243730572450e-04 0.0000000000000000e+00  0.0000000000000000e+00 0.0000000000000000e+00 0.0000000000000000e+00  0.0000000000000000e+00 0.0000000000000000e+00 0.0000000000000000e+00  0.0000000000000000e+00 0.0000000000000000e+00 0.0000000000000000e+00  0.0000000000000000e+00 0.0000000000000000e+00 0.0000000000000000e+00  -6.3260853373780019e-06 -1.2322234556703192e-04 0.0000000000000000e+00  0.0000000000000000e+00 0.0000000000000000e+00 0.0000000000000000e+00  0.0000000000000000e+00 0.0000000000000000e+00 0.0000000000000000e+00  0.0000000000000000e+00 0.0000000000000000e+00 0.0000000000000000e+00  0.0000000000000000e+00 0.0000000000000000e+00 0.0000000000000000e+00  0.0000000000000000e+00 0.0000000000000000e+00 0.0000000000000000e+00  0.0000000000000000e+00 0.0000000000000000e+00 0.0000000000000000e+00  0.0000000000000000e+00 0.0000000000000000e+00 0.0000000000000000e+00  0.0000000000000000e+00 0.0000000000000000e+00 0.0000000000000000e+00  0.0000000000000000e+00 0.0000000000000000e+00 0.0000000000000000e+00  0.0000000000000000e+00 0.0000000000000000e+00 0.0000000000000000e+00  0.0000000000000000e+00 0.0000000000000000e+00 0.0000000000000000e+00  0.0000000000000000e+00 0.0000000000000000e+00 0.0000000000000000e+00  0.0000000000000000e+00 0.0000000000000000e+00 0.0000000000000000e+00  0.0000000000000000e+00 0.0000000000000000e+00 0.0000000000000000e+00  0.0000000000000000e+00 0.0000000000000000e+00 0.0000000000000000e+00  0.0000000000000000e+00 0.0000000000000000e+00 0.0000000000000000e+00  0.0000000000000000e+00 0.0000000000000000e+00 0.0000000000000000e+00  0.0000000000000000e+00 0.0000000000000000e+00 0.0000000000000000e+00  0.0000000000000000e+00 0.0000000000000000e+00 0.0000000000000000e+00  0.0000000000000000e+00 0.0000000000000000e+00 0.0000000000000000e+00  0.0000000000000000e+00 0.0000000000000000e+00 0.0000000000000000e+00  0.0000000000000000e+00 0.0000000000000000e+00 0.0000000000000000e+00  0.0000000000000000e+00 0.0000000000000000e+00 0.0000000000000000e+00  0.0000000000000000e+00 0.0000000000000000e+00 0.0000000000000000e+00  0.0000000000000000e+00 0.0000000000000000e+00 0.0000000000000000e+00  0.0000000000000000e+00 0.0000000000000000e+00 0.0000000000000000e+00  0.0000000000000000e+00 0.0000000000000000e+00 0.0000000000000000e+00  0.0000000000000000e+00 0.0000000000000000e+00 0.0000000000000000e+00  0.0000000000000000e+00 0.0000000000000000e+00 0.0000000000000000e+00  0.0000000000000000e+00 0.0000000000000000e+00 0.0000000000000000e+00  0.0000000000000000e+00 0.0000000000000000e+00 0.0000000000000000e+00  0.0000000000000000e+00 0.0000000000000000e+00 0.0000000000000000e+00  0.0000000000000000e+00 0.0000000000000000e+00 0.0000000000000000e+00  0.0000000000000000e+00 0.0000000000000000e+00 0.0000000000000000e+00  0.0000000000000000e+00 0.0000000000000000e+00 0.0000000000000000e+00  0.0000000000000000e+00 0.0000000000000000e+00 0.0000000000000000e+00  0.0000000000000000e+00 0.0000000000000000e+00 0.0000000000000000e+00  0.0000000000000000e+00 0.0000000000000000e+00 0.0000000000000000e+00  0.0000000000000000e+00 0.0000000000000000e+00 0.0000000000000000e+00  0.0000000000000000e+00 0.0000000000000000e+00 0.0000000000000000e+00  0.0000000000000000e+00 0.0000000000000000e+00 0.0000000000000000e+00  0.0000000000000000e+00 0.0000000000000000e+00 0.0000000000000000e+00  0.0000000000000000e+00 0.0000000000000000e+00 0.0000000000000000e+00  0.0000000000000000e+00 0.0000000000000000e+00 0.0000000000000000e+00  0.0000000000000000e+00 0.0000000000000000e+00 0.0000000000000000e+00  0.0000000000000000e+00 0.0000000000000000e+00 0.0000000000000000e+00  0.0000000000000000e+00 0.0000000000000000e+00 0.0000000000000000e+00  0.0000000000000000e+00 0.0000000000000000e+00 0.0000000000000000e+00  0.0000000000000000e+00 0.0000000000000000e+00 0.0000000000000000e+00  0.0000000000000000e+00 0.0000000000000000e+00 0.0000000000000000e+00  0.0000000000000000e+00 0.0000000000000000e+00 0.0000000000000000e+00  0.0000000000000000e+00 0.0000000000000000e+00 0.0000000000000000e+00  0.0000000000000000e+00 0.0000000000000000e+00 0.0000000000000000e+00  0.0000000000000000e+00 0.0000000000000000e+00 0.0000000000000000e+00  0.0000000000000000e+00 0.0000000000000000e+00 0.0000000000000000e+00  0.0000000000000000e+00 0.0000000000000000e+00 0.0000000000000000e+00  0.0000000000000000e+00 0.0000000000000000e+00 0.0000000000000000e+00  0.0000000000000000e+00 0.0000000000000000e+00 0.0000000000000000e+00  0.0000000000000000e+00 0.0000000000000000e+00 0.0000000000000000e+00  0.0000000000000000e+00 0.0000000000000000e+00 0.0000000000000000e+00  0.0000000000000000e+00 0.0000000000000000e+00 0.0000000000000000e+00  0.0000000000000000e+00 0.0000000000000000e+00 0.0000000000000000e+00  0.0000000000000000e+00 0.0000000000000000e+00 0.0000000000000000e+00  0.0000000000000000e+00 0.0000000000000000e+00 0.0000000000000000e+00  0.0000000000000000e+00 0.0000000000000000e+00 0.0000000000000000e+00  0.0000000000000000e+00 0.0000000000000000e+00 0.0000000000000000e+00  0.0000000000000000e+00 0.0000000000000000e+00 0.0000000000000000e+00  0.0000000000000000e+00 0.0000000000000000e+00 0.0000000000000000e+00  0.0000000000000000e+00 0.0000000000000000e+00 0.0000000000000000e+00  0.0000000000000000e+00 0.0000000000000000e+00 0.0000000000000000e+00  0.0000000000000000e+00 0.0000000000000000e+00 0.0000000000000000e+00  0.0000000000000000e+00 0.0000000000000000e+00 0.0000000000000000e+00  0.0000000000000000e+00 0.0000000000000000e+00 0.0000000000000000e+00  0.0000000000000000e+00 0.0000000000000000e+00 0.0000000000000000e+00  0.0000000000000000e+00 0.0000000000000000e+00 0.0000000000000000e+00  0.0000000000000000e+00 0.0000000000000000e+00 0.0000000000000000e+00  0.0000000000000000e+00 0.0000000000000000e+00 0.0000000000000000e+00  0.0000000000000000e+00 0.0000000000000000e+00 0.0000000000000000e+00  0.0000000000000000e+00 0.0000000000000000e+00 0.0000000000000000e+00  0.0000000000000000e+00 0.0000000000000000e+00 0.0000000000000000e+00  0.0000000000000000e+00 0.0000000000000000e+00 0.0000000000000000e+00  0.0000000000000000e+00 0.0000000000000000e+00 0.0000000000000000e+00  0.0000000000000000e+00 0.0000000000000000e+00 0.0000000000000000e+00  0.0000000000000000e+00 0.0000000000000000e+00 0.0000000000000000e+00  0.0000000000000000e+00 0.0000000000000000e+00 0.0000000000000000e+00  0.0000000000000000e+00 0.0000000000000000e+00 0.0000000000000000e+00  0.0000000000000000e+00 0.0000000000000000e+00 0.0000000000000000e+00  0.0000000000000000e+00 0.0000000000000000e+00 0.0000000000000000e+00  0.0000000000000000e+00 0.0000000000000000e+00 0.0000000000000000e+00  0.0000000000000000e+00 0.0000000000000000e+00 0.0000000000000000e+00  0.0000000000000000e+00 0.0000000000000000e+00 0.0000000000000000e+00  0.0000000000000000e+00 0.0000000000000000e+00 0.0000000000000000e+00  0.0000000000000000e+00 0.0000000000000000e+00 0.0000000000000000e+00  0.0000000000000000e+00 0.0000000000000000e+00 0.0000000000000000e+00  0.0000000000000000e+00 0.0000000000000000e+00 0.0000000000000000e+00  0.0000000000000000e+00 0.0000000000000000e+00 0.0000000000000000e+00  0.0000000000000000e+00 0.0000000000000000e+00 0.0000000000000000e+00  0.0000000000000000e+00 0.0000000000000000e+00 0.0000000000000000e+00  0.0000000000000000e+00 0.0000000000000000e+00 0.0000000000000000e+00  0.0000000000000000e+00 0.0000000000000000e+00 0.0000000000000000e+00  0.0000000000000000e+00 0.0000000000000000e+00 0.0000000000000000e+00  0.0000000000000000e+00 0.0000000000000000e+00 0.0000000000000000e+00  0.0000000000000000e+00 0.0000000000000000e+00 0.0000000000000000e+00  0.0000000000000000e+00 0.0000000000000000e+00 0.0000000000000000e+00  0.0000000000000000e+00 0.0000000000000000e+00 0.0000000000000000e+00  0.0000000000000000e+00 0.0000000000000000e+00 0.0000000000000000e+00  0.0000000000000000e+00 0.0000000000000000e+00 0.0000000000000000e+00  0.0000000000000000e+00 0.0000000000000000e+00 0.0000000000000000e+00  0.0000000000000000e+00 0.0000000000000000e+00 0.0000000000000000e+00  0.0000000000000000e+00 0.0000000000000000e+00 0.0000000000000000e+00  0.0000000000000000e+00 0.0000000000000000e+00 0.0000000000000000e+00  0.0000000000000000e+00 0.0000000000000000e+00 0.0000000000000000e+00  0.0000000000000000e+00 0.0000000000000000e+00 0.0000000000000000e+00  0.0000000000000000e+00 0.0000000000000000e+00 0.0000000000000000e+00  0.0000000000000000e+00 0.0000000000000000e+00 0.0000000000000000e+00  0.0000000000000000e+00 0.0000000000000000e+00 0.0000000000000000e+00  0.0000000000000000e+00 0.0000000000000000e+00 0.0000000000000000e+00  0.0000000000000000e+00 0.0000000000000000e+00 0.0000000000000000e+00  0.0000000000000000e+00 0.0000000000000000e+00 0.0000000000000000e+00  0.0000000000000000e+00 0.0000000000000000e+00 0.0000000000000000e+00  0.0000000000000000e+00 0.0000000000000000e+00 0.0000000000000000e+00  0.0000000000000000e+00 0.0000000000000000e+00 0.0000000000000000e+00  0.0000000000000000e+00 0.0000000000000000e+00 0.0000000000000000e+00  0.0000000000000000e+00 0.0000000000000000e+00 0.0000000000000000e+00  0.0000000000000000e+00 0.0000000000000000e+00 0.0000000000000000e+00  0.0000000000000000e+00 0.0000000000000000e+00 0.0000000000000000e+00  0.0000000000000000e+00 0.0000000000000000e+00 0.0000000000000000e+00  0.0000000000000000e+00 0.0000000000000000e+00 0.0000000000000000e+00  0.0000000000000000e+00 0.0000000000000000e+00 0.0000000000000000e+00  0.0000000000000000e+00 0.0000000000000000e+00 0.0000000000000000e+00  0.0000000000000000e+00 0.0000000000000000e+00 0.0000000000000000e+00  0.0000000000000000e+00 0.0000000000000000e+00 0.0000000000000000e+00  3.1958391448440683e-07 -2.6875431534965471e-06 0.0000000000000000e+00  7.5492629632883922e-07 -3.1434192352480636e-06 0.0000000000000000e+00  1.2973812199097214e-06 -3.6353579587228419e-06 0.0000000000000000e+00  1.9221879326419077e-06 -4.2338166492016436e-06 0.0000000000000000e+00  2.5201518368336467e-06 -4.9922773409175645e-06 0.0000000000000000e+00  3.1286054450706558e-06 -5.9514170142864686e-06 0.0000000000000000e+00  3.6728557295702669e-06 -7.0407165817854902e-06 0.0000000000000000e+00  4.1844968681180429e-06 -8.3093896790360310e-06 0.0000000000000000e+00  4.7105214219629737e-06 -9.7172652374269098e-06 0.0000000000000000e+00  5.1521097622051512e-06 -1.1262162298166019e-05 0.0000000000000000e+00  5.6110052105943243e-06 -1.2963628928473844e-05 0.0000000000000000e+00  5.9876330770195255e-06 -1.4784737976649387e-05 0.0000000000000000e+00  6.3659572121689406e-06 -1.6743264937467190e-05 0.0000000000000000e+00  6.6822158476769773e-06 -1.8810249309269678e-05 0.0000000000000000e+00  6.9616704719883052e-06 -2.1004558924304433e-05 0.0000000000000000e+00  7.2422001270362547e-06 -2.3307318839298624e-05 0.0000000000000000e+00  7.4491023539669685e-06 -2.5700201671655431e-05 0.0000000000000000e+00  7.6558129221284844e-06 -2.8213957377595508e-05 0.0000000000000000e+00  7.7941873045068878e-06 -3.0800094170851235e-05 0.0000000000000000e+00  7.9290173603570719e-06 -3.3492277751047826e-05 0.0000000000000000e+00  8.0061368952180458e-06 -3.6251078615434762e-05 0.0000000000000000e+00  8.0640361676033016e-06 -3.9103155477609880e-05 0.0000000000000000e+00  8.0772894545106133e-06 -4.2018186033411491e-05 0.0000000000000000e+00  8.0545538928066354e-06 -4.5007978203151637e-05 0.0000000000000000e+00  8.0208669438021586e-06 -4.8063160616908259e-05 0.0000000000000000e+00  7.9373859552973751e-06 -5.1168838512740452e-05 0.0000000000000000e+00  7.8244056432775653e-06 -5.4353749554981478e-05 0.0000000000000000e+00  7.6753289986840735e-06 -5.7569623840341402e-05 0.0000000000000000e+00  7.4962292535641659e-06 -6.0854819783293858e-05 0.0000000000000000e+00  7.2815396417712504e-06 -6.4167900420587440e-05 0.0000000000000000e+00  7.0378675743978686e-06 -6.7539996185229188e-05 0.0000000000000000e+00  6.7571936127205671e-06 -7.0932248637567516e-05 0.0000000000000000e+00  6.4496340753969096e-06 -7.4377875505070727e-05 0.0000000000000000e+00  6.1043528669899167e-06 -7.7833429034241576e-05 0.0000000000000000e+00  5.7274426493652876e-06 -8.1339827297465276e-05 0.0000000000000000e+00  5.3174945734878478e-06 -8.4851170165840746e-05 0.0000000000000000e+00  4.8777271985711345e-06 -8.8402810772358822e-05 0.0000000000000000e+00  4.4042173932819976e-06 -9.1955222434061861e-05 0.0000000000000000e+00  3.8993302832065718e-06 -9.5541710504462338e-05 0.0000000000000000e+00  3.3592585885879458e-06 -9.9125133147463280e-05 0.0000000000000000e+00  2.7855953029463359e-06 -1.0273149496186951e-04 0.0000000000000000e+00  2.1832788907756266e-06 -1.0633867431715012e-04 0.0000000000000000e+00  1.5438025477656771e-06 -1.0995880145921053e-04 0.0000000000000000e+00  8.8586855343907512e-07 -1.1358073875826541e-04 0.0000000000000000e+00  1.9009515823544554e-07 -1.1719614574803316e-04 0.0000000000000000e+00  -5.1501931543920354e-07 -1.2084302677669137e-04 0.0000000000000000e+00  -3.8261896495565887e-06 -1.2391576005273746e-04 0.0000000000000000e+00  -8.7441118365808113e-06 -1.2252973646539737e-04 0.0000000000000000e+00  -1.0358653738868694e-05 -1.1824549263297687e-04 0.0000000000000000e+00  -9.6384320482356870e-06 -1.1453943568362738e-04 0.0000000000000000e+00  -8.9265478794145105e-06 -1.1081970310543346e-04 0.0000000000000000e+00  -8.2476042644805369e-06 -1.0711790956816114e-04 0.0000000000000000e+00  -7.5875849855451945e-06 -1.0342299179132952e-04 0.0000000000000000e+00  -6.9628137872237012e-06 -9.9738165756854558e-05 0.0000000000000000e+00  -6.3567715173621961e-06 -9.6065608572913549e-05 0.0000000000000000e+00  -5.7853346484277929e-06 -9.2397601764657720e-05 0.0000000000000000e+00  -5.2340847891591772e-06 -8.8757857955810120e-05 0.0000000000000000e+00  -4.7147951211664832e-06 -8.5119215799118317e-05 0.0000000000000000e+00  -4.2137653306830021e-06 -8.1514748060811760e-05 0.0000000000000000e+00  -3.7456537049183237e-06 -7.7917479055258495e-05 0.0000000000000000e+00  -3.2930614656002882e-06 -7.4360729372170828e-05 0.0000000000000000e+00  -2.8739514156889961e-06 -7.0817662216506304e-05 0.0000000000000000e+00  -2.4675915096617605e-06 -6.7321535619661323e-05 0.0000000000000000e+00  -2.0966699625150836e-06 -6.3845578849532213e-05 0.0000000000000000e+00  -1.7355442520208810e-06 -6.0421797877348287e-05 0.0000000000000000e+00  -1.4126138528547993e-06 -5.7024855046832879e-05 0.0000000000000000e+00  -1.0968671479954225e-06 -5.3689229259136022e-05 0.0000000000000000e+00  -8.2043422717093557e-07 -5.0388986749081640e-05 0.0000000000000000e+00  -5.4719378126739890e-07 -4.7157117084825026e-05 0.0000000000000000e+00  -3.1620659332741659e-07 -4.3969096018582684e-05 0.0000000000000000e+00  -9.0976662846744029e-08 -4.0851752049608263e-05 0.0000000000000000e+00  1.0041563511914513e-07 -3.7791878794378438e-05 0.0000000000000000e+00  2.6309434855457429e-07 -3.4812256309225422e-05 0.0000000000000000e+00  4.3000858896180923e-07 -3.1897071041583426e-05 0.0000000000000000e+00  5.5698950415037510e-07 -2.9058544214421813e-05 0.0000000000000000e+00  6.7331516599954179e-07 -2.6317022586847651e-05 0.0000000000000000e+00  7.5853196285198642e-07 -2.3647181875976762e-05 0.0000000000000000e+00  8.3166835919130918e-07 -2.1087535645201577e-05 0.0000000000000000e+00  8.7434823863700880e-07 -1.8606533684648785e-05 0.0000000000000000e+00  9.1394921559138619e-07 -1.6255295472308360e-05 0.0000000000000000e+00  9.1481622280039287e-07 -1.3988586463900374e-05 0.0000000000000000e+00  8.8974996373636408e-07 -1.1862057686751593e-05 0.0000000000000000e+00  8.7997716505510405e-07 -9.8316193888825986e-06 0.0000000000000000e+00  8.2757510491448623e-07 -7.9397673160558324e-06 0.0000000000000000e+00  7.6902968131268291e-07 -6.1906789963906629e-06 0.0000000000000000e+00  6.7794696263812349e-07 -4.5676818648234479e-06 0.0000000000000000e+00  5.9323511634903083e-07 -3.1140322345426542e-06 0.0000000000000000e+00  4.6248472919234122e-07 -1.7862547442972634e-06 0.0000000000000000e+00  3.0799211527875229e-07 -6.4330761513723515e-07 0.0000000000000000e+00  1.8416031461599047e-07 3.6234389196755026e-07 0.0000000000000000e+00  1.3282332691545575e-08 1.2053994583698564e-06 0.0000000000000000e+00  -1.0501279685799108e-07 1.8626974147356811e-06 0.0000000000000000e+00  -2.0020071919886427e-07 2.2588091247067464e-06 0.0000000000000000e+00  -1.3333738893495632e-07 2.3253683795736247e-06 0.0000000000000000e+00  -2.8275820301405574e-07 -1.9646472515008160e-07 0.0000000000000000e+00  -5.0937548550337514e-06 -1.1770929105669576e-04 0.0000000000000000e+00  -3.6643384918113845e-06 -1.1070806207010117e-04 0.0000000000000000e+00  -1.7379443534348220e-06 -9.9292952016898079e-05 0.0000000000000000e+00  7.5500956840247348e-07 -1.0640465084019519e-06 0.0000000000000000e+00  -7.0456470427393201e-07 -9.2150546638014276e-05 0.0000000000000000e+00  1.4810984097899289e-06 -2.5580912628395032e-06 0.0000000000000000e+00  2.9181720554728016e-07 -8.4955483581947126e-05 0.0000000000000000e+00  2.5099375686796116e-06 -6.3346238951139550e-06 0.0000000000000000e+00  3.0677445963915336e-06 -9.4835639674710041e-06 0.0000000000000000e+00  1.1734611852166579e-06 -7.7842454490390029e-05 0.0000000000000000e+00  3.9420382831398923e-06 -1.9775166532855783e-05 0.0000000000000000e+00  2.5971715604426463e-06 -6.3962246035356485e-05 0.0000000000000000e+00  3.4649331428671633e-06 -1.3010813112487407e-05 0.0000000000000000e+00  4.1503602634799505e-06 -2.4587722858487904e-05 0.0000000000000000e+00  3.1411553140055832e-06 -5.7247902032045970e-05 0.0000000000000000e+00  1.9416486574752265e-06 -7.0835903375979283e-05 0.0000000000000000e+00  4.2160219662289854e-06 -2.9849014409881693e-05 0.0000000000000000e+00  3.5735368648891060e-06 -5.0724564431842015e-05 0.0000000000000000e+00  4.1278342717735495e-06 -3.5192089223249053e-05 0.0000000000000000e+00  3.9457306287178061e-06 -4.4576471164173359e-05 0.0000000000000000e+00  4.0630418782025006e-06 -3.9625701507525701e-05 0.0000000000000000e+00  3.7587046817988991e-06 -1.6159225137674703e-05 0.0000000000000000e+00  -2.8016585691885311e-06 -1.0519393913090291e-04 0.0000000000000000e+00  2.0123240784420352e-06 -4.2389743236015761e-06 0.0000000000000000e+00  -6.0777969414793744e-06 -1.1371216285988160e-04 0.0000000000000000e+00  7.6306385756158676e-08 4.8123213361241089e-07 0.0000000000000000e+00  -1.5898890714106084e-06 -8.8074820979916832e-05 0.0000000000000000e+00  -2.6557669451932589e-06 -9.5322059057915791e-05 0.0000000000000000e+00  1.5179852264045655e-06 -2.7475999289808505e-06 0.0000000000000000e+00  3.4210445159423561e-06 -8.5801210600881617e-06 0.0000000000000000e+00  9.4884011978174669e-07 -6.6853287183949803e-05 0.0000000000000000e+00  -6.3460163417434546e-07 -8.0898108722951740e-05 0.0000000000000000e+00  5.0225251652265562e-06 -2.2782908669991051e-05 0.0000000000000000e+00  1.5802446017292475e-06 -6.0036312248387966e-05 0.0000000000000000e+00  4.0193215005215227e-06 -1.2015714078597060e-05 0.0000000000000000e+00  5.2145845598481913e-06 -2.7840160239617776e-05 0.0000000000000000e+00  2.1053337192262802e-06 -5.3394510805161967e-05 0.0000000000000000e+00  2.1093884962881009e-07 -7.3815423236391420e-05 0.0000000000000000e+00  5.5318054425980740e-06 -3.3368929999051628e-05 0.0000000000000000e+00  2.5254344901936419e-06 -4.6959853053511986e-05 0.0000000000000000e+00  -3.9436798017908768e-07 -6.4198013315558565e-07 0.0000000000000000e+00  -4.6340279975576348e-07 5.1519766414470431e-07 0.0000000000000000e+00  -4.5690943594811211e-06 -1.2090135284275004e-04 0.0000000000000000e+00  5.3748354596705483e-07 -1.6864874676160