<?xml version="1.0"?>
<VTKFile type="UnstructuredGrid"  version="0.1"  >
<UnstructuredGrid>
<Piece  NumberOfPoints="1419" NumberOfCells="2698">
<Points>
<DataArray  type="Float64"  NumberOfComponents="3"  format="ascii">0 0 0  0 0.41 0  2.5 0 0  2.5 0.41 0  0.6 0.19 0  0.6 0.21 0  0.25 0.2 0  0.15 0.2 0  0.2489897948556636 0.21 0  0.2489897948556636 0.19 0  0.6 0.2 0  0 0.3807142857143437 0  0 0.3514285714286952 0  0 0.3221428571430699 0  0 0.29285714285744 0  0 0.2635714285718054 0  0 0.2342857142861561 0  0 0.2050000000005308 0  0 0.175714285714732 0  0 0.1464285714289574 0  0 0.1171428571431897 0  0 0.08785714285737878 0  0 0.05857142857161107 0  0 0.02928571428580012 0  0.03015443760436003 0 0  0.06140001986583606 0 0  0.09377624077125973 0 0  0.1273239957535082 0 0  0.1620856860351972 0 0  0.1981052433264291 0 0  0.235428184091502 0 0  0.2741016576309132 0 0  0.3141745521465447 0 0  0.3556974926295285 0 0  0.3987229542472677 0 0  0.4433053055141081 0 0  0.4895008759286886 0 0  0.5373680609405097 0 0  0.5869673343216626 0 0  0.6383613676634521 0 0  0.6916151138468254 0 0  0.7467958595648856 0 0  0.8039733463919316 0 0  0.8632198139502143 0 0  0.9246101326867038 0 0  0.9882218810934433 0 0  1.054135445558498 0 0  1.122434100542598 0 0  1.193204177141305 0 0  1.266535089879536 0 0  1.342519516046404 0 0  1.421253448503939 0 0  1.502836389106271 0 0  1.587371439758838 0 0  1.674965418777374 0 0  1.765729001825544 0 0  1.859776908880082 0 0  1.957227977487062 0 0  2.058205329869943 0 0  2.162836591189951 0 0  2.271253957290865 0 0  2.383594446803425 0 0  2.5 0.1024999999997612 0  2.5 0.2049999999994743 0  2.5 0.3074999999997183 0  2.383594446803656 0.41 0  2.271253957291315 0.41 0  2.162836591190598 0.41 0  2.058205329870775 0.41 0  1.957227977488067 0.41 0  1.859776908881246 0.41 0  1.765729001826854 0.41 0  1.674965418778818 0.41 0  1.58737143976041 0.41 0  1.502836389107956 0.41 0  1.421253448505726 0.41 0  1.342519516048286 0.41 0  1.266535089881505 0.41 0  1.193204177143353 0.41 0  1.122434100544716 0.41 0  1.05413544556068 0.41 0  0.9882218810956305 0.41 0  0.9246101326886647 0.41 0  0.8632198139519631 0.41 0  0.8039733463934788 0.41 0  0.7467958595662458 0.41 0  0.6916151138480078 0.41 0  0.6383613676644679 0.41 0  0.5869673343225223 0.41 0  0.5373680609412221 0.41 0  0.4895008759292634 0.41 0  0.4433053055145528 0.41 0  0.3987229542475914 0.41 0  0.3556974926297398 0.41 0  0.3141745521466497 0.41 0  0.2741016576310038 0.41 0  0.2354281840915826 0.41 0  0.1981052433265003 0.41 0  0.1620856860352591 0.41 0  0.1273239957535623 0.41 0  0.09377624077128965 0.41 0  0.06140001986584975 0.41 0  0.03015443760436654 0.41 0  0.2497468076502589 0.2050254481002335 0  0.2497468076502614 0.1949745518997913 0  0.2469965252529372 0.1829317073451959 0  0.2439893735792749 0.1762316384219906 0  0.2400332147834255 0.1700443375285386 0  0.2352133972704371 0.1645032867342007 0  0.2296339016332438 0.1597280261969788 0  0.2234150974217223 0.1558215752574715 0  0.2166911463437691 0.1528682099456123 0  0.2096071079204251 0.1509316448471593 0  0.2023158100364996 0.1500536585536553 0  0.194974551899914 0.1502531923497262 0  0.1877417105387872 0.1515259415822739 0  0.1807733240461124 0.153844448527136 0  0.1742197252835808 0.15715869474974 0  0.1682222986673531 0.1613971801805478 0  0.162910430003803 0.1664684656256651 0  0.1583987151779087 0.1722631454351573 0  0.1547844879126891 0.178656207771761 0  0.1521457199348551 0.1855097315605723 0  0.1505393388476355 0.1926758619366523 0  0.1505393388476328 0.2073241380633295 0  0.1521457199348437 0.2144902684393899 0  0.1547844879126531 0.221343792228163 0  0.1583987151778488 0.2277368545647528 0  0.1629104300036858 0.2335315343742052 0  0.1682222986671726 0.2386028198193036 0  0.1742197252833576 0.2428413052501257 0  0.1807733240458683 0.2461555514727623 0  0.1877417105384929 0.2484740584176516 0  0.1949745518995776 0.2497468076502398 0  0.202315810036185 0.2499463414463592 0  0.2096071079201568 0.2490683551528932 0  0.2166911463435495 0.2471317900544655 0  0.2234150974215506 0.2441784247426195 0  0.2296339016331197 0.2402719738031125 0  0.2352133972703547 0.2354967132658811 0  0.2400332147833751 0.2299556624715287 0  0.2439893735792577 0.2237683615780412 0  0.246996525252926 0.2170682926548348 0  0.25645809709277 0.21 0  0.2639263993298655 0.21 0  0.271394701566961 0.21 0  0.2788630038040554 0.21 0  0.2863313060411479 0.21 0  0.2937996082782405 0.21 0  0.301267910515333 0.21 0  0.3087362127524279 0.21 0  0.3162045149895234 0.21 0  0.3236728172265972 0.21 0  0.3311411194636928 0.21 0  0.3386094217007701 0.21 0  0.3460777239378666 0.21 0  0.3535460261749672 0.21 0  0.3610143284120516 0.21 0  0.3684826306491596 0.21 0  0.3759509328862226 0.21 0  0.383419235123329 0.21 0  0.3908875373604028 0.21 0  0.3983558395975142 0.21 0  0.4058241418345938 0.21 0  0.4132924440716992 0.21 0  0.4207607463087888 0.21 0  0.4282290485459029 0.21 0  0.4356973507830418 0.21 0  0.4431656530201649 0.21 0  0.4506339552573136 0.21 0  0.4581022574944306 0.21 0  0.4655705597315852 0.21 0  0.4730388619686996 0.21 0  0.480507164205851 0.21 0  0.4879754664429498 0.21 0  0.4954437686800938 0.21 0  0.502912070917267 0.21 0  0.5103803731544119 0.21 0  0.5178486753915261 0.21 0  0.5253169776286404 0.21 0  0.5327852798657868 0.21 0  0.5402535821029386 0.21 0  0.54772188434007 0.21 0  0.5551901865771842 0.21 0  0.5626584888143201 0.21 0  0.5701267910514778 0.21 0  0.5775950932886138 0.21 0  0.5850633955257281 0.21 0  0.5925316977628483 0.21 0  0.6 0.2050000000000054 0  0.6 0.1950000000000217 0  0.5925316977628897 0.19 0  0.5850633955257988 0.19 0  0.5775950932887378 0.19 0  0.5701267910515998 0.19 0  0.5626584888145268 0.19 0  0.5551901865773963 0.19 0  0.547721884340339 0.19 0  0.5402535821032429 0.19 0  0.5327852798661811 0.19 0  0.5253169776290537 0.19 0  0.5178486753919799 0.19 0  0.5103803731549078 0.19 0  0.502912070917822 0.19 0  0.4954437686807294 0.19 0  0.4879754664436223 0.19 0  0.4805071642065402 0.19 0  0.4730388619694271 0.19 0  0.4655705597323621 0.19 0  0.4581022574952563 0.19 0  0.4506339552581777 0.19 0  0.4431656530210671 0.19 0  0.4356973507839815 0.19 0  0.4282290485468779 0.19 0  0.4207607463097617 0.19 0  0.4132924440726327 0.19 0  0.4058241418354857 0.19 0  0.3983558395983636 0.19 0  0.3908875373612097 0.19 0  0.3834192351240934 0.19 0  0.3759509328869369 0.19 0  0.3684826306498175 0.19 0  0.361014328412667 0.19 0  0.3535460261755617 0.19 0  0.3460777239384295 0.19 0  0.3386094217012945 0.19 0  0.3311411194641595 0.19 0  0.3236728172270245 0.19 0  0.3162045149898895 0.19 0  0.3087362127527544 0.19 0  0.3012679105156187 0.19 0  0.2937996082784807 0.19 0  0.2863313060413428 0.19 0  0.2788630038042048 0.19 0  0.2713947015670686 0.19 0  0.2639263993299336 0.19 0  0.2564580970927985 0.19 0  0.2607803159922026 0.2000727136295815 0  0.5887803774232762 0.2001272386983733 0  0.5745072403740523 0.2002044435018727 0  0.5511891430099709 0.2001122610077113 0  0.2751288526855082 0.20000000000002 0  0.5365194309847112 0.1999999999999436 0  0.2894621222999649 0.1998691686390484 0  0.5215828265105155 0.1999999999999228 0  0.3127789816668748 0.1998657885438805 0  0.3274069683451451 0.2000000000000796 0  0.5066462220363641 0.199999999999908 0  0.3650630746574081 0.199866017807523 0  0.476773013087985 0.1999999999998713 0  0.3417402379596385 0.1998691686391011 0  0.3796850840047755 0.200000000000134 0  0.4618364086138087 0.1999999999998546 0  0.4917096175621762 0.1999999999998808 0  0.3946216884789568 0.2000000000001512 0  0.446899804139621 0.1999999999998389 0  0.4089549580935208 0.1998691686391595 0  0.4322718174608562 0.200127451265745 0  0.4201487168029707 0.1999966199048527 0  0.3528922713220932 0.2000185703532356 0  0.5633122436674589 0.1999814296467508 0  0.3006558810093873 0.1999966199048318 0  0.5815926498168407 0.1966545283159175 0  0.2677053789419034 0.1964246479135325 0  0.5290511287476175 0.1970915826863981 0  0.5439877332217911 0.197091582686394 0  0.2825131256993216 0.2035478995978015 0  0.3199386661080599 0.202908417313604 0  0.4842413153250809 0.1970915826863873 0  0.5141145242734466 0.1970915826863843 0  0.3722167817676917 0.2029084173136195 0  0.4693047108508938 0.1970915826863783 0  0.3348752705822316 0.202908417313609 0  0.3871533862418661 0.2029084173136212 0  0.4543681063767183 0.1970915826863795 0  0.4991779197992749 0.1970915826863902 0  0.4020059614928624 0.203547899597858 0  0.4394315019025246 0.1970915826863714 0  0.2550657455369551 0.2034088125358657 0  0.2548908499171161 0.1966940311614271 0  0.5946539510196798 0.2024302972968126 0  0.267698176732111 0.2039977513680092 0  0.4261685417851465 0.196409292431739 0  0.3590076176283495 0.196411355804271 0  0.5571672426447437 0.2036011176410121 0  0.3066757059912147 0.1964092924317024 0  0.594380730180568 0.1966558399668133 0  0.4842413153245942 0.2040749161535287 0  0.4693047108503577 0.2040749161535231 0  0.3871533862424271 0.1959250838464788 0  0.372246743208829 0.1959123236376545 0  0.5141145242731028 0.2040749161535395 0  0.4543681063761134 0.2040749161535186 0  0.4019979587101454 0.1959834479682427 0  0.4394608940728603 0.2040870543693135 0  0.5439623148931173 0.2040856076781014 0  0.5290511287473298 0.2040749161535501 0  0.4991779197988497 0.2040749161535382 0  0.3347912413592433 0.1959225448935183 0  0.3199680582793816 0.1959123018030061 0  0.2825051229162361 0.1959834479681729 0  0.3590471196690275 0.2036304442587945 0  0.5571594006495384 0.1963685282145804 0  0.3067669986803285 0.203627750582736 0  0.4262598344738712 0.2036568242185335 0  0.5814408164431408 0.2041285596160068 0  0.5688286748170428 0.1961819304477386 0  0.4145905603063645 0.2038180695522843 0  0.3473758401724931 0.2038180695522752 0  0.2950977245128307 0.2038180695522663 0  0.5688286748170693 0.203818069552238 0  0.2950977245127906 0.1961819304477774 0  0.3473758401723931 0.1961819304478349 0  0.4145905603061963 0.1961819304479011 0  0.2601812407614425 0.2056861609747042
[...]
<PointData  Vectors="f_40-1"> 
<DataArray  type="Float64"  Name="f_40-1"  NumberOfComponents="3" format="ascii">0.0000000000000000e+00 0.0000000000000000e+00 0.0000000000000000e+00  0.0000000000000000e+00 0.0000000000000000e+00 0.0000000000000000e+00  0.0000000000000000e+00 0.0000000000000000e+00 0.0000000000000000e+00  0.0000000000000000e+00 0.0000000000000000e+00 0.0000000000000000e+00  -1.0600821159026642e-05 -7.1176995232713282e-05 0.0000000000000000e+00  -4.7521309150724402e-06 -7.3561284125859270e-05 0.0000000000000000e+00  0.0000000000000000e+00 0.0000000000000000e+00 0.0000000000000000e+00  0.0000000000000000e+00 0.0000000000000000e+00 0.0000000000000000e+00  0.0000000000000000e+00 0.0000000000000000e+00 0.0000000000000000e+00  0.0000000000000000e+00 0.0000000000000000e+00 0.0000000000000000e+00  -7.8510104635267565e-06 -7.2369926543527569e-05 0.0000000000000000e+00  0.0000000000000000e+00 0.0000000000000000e+00 0.0000000000000000e+00  0.0000000000000000e+00 0.0000000000000000e+00 0.0000000000000000e+00  0.0000000000000000e+00 0.0000000000000000e+00 0.0000000000000000e+00  0.0000000000000000e+00 0.0000000000000000e+00 0.0000000000000000e+00  0.0000000000000000e+00 0.0000000000000000e+00 0.0000000000000000e+00  0.0000000000000000e+00 0.0000000000000000e+00 0.0000000000000000e+00  0.0000000000000000e+00 0.0000000000000000e+00 0.0000000000000000e+00  0.0000000000000000e+00 0.0000000000000000e+00 0.0000000000000000e+00  0.0000000000000000e+00 0.0000000000000000e+00 0.0000000000000000e+00  0.0000000000000000e+00 0.0000000000000000e+00 0.0000000000000000e+00  0.0000000000000000e+00 0.0000000000000000e+00 0.0000000000000000e+00  0.0000000000000000e+00 0.0000000000000000e+00 0.0000000000000000e+00  0.0000000000000000e+00 0.0000000000000000e+00 0.0000000000000000e+00  0.0000000000000000e+00 0.0000000000000000e+00 0.0000000000000000e+00  0.0000000000000000e+00 0.0000000000000000e+00 0.0000000000000000e+00  0.0000000000000000e+00 0.0000000000000000e+00 0.0000000000000000e+00  0.0000000000000000e+00 0.0000000000000000e+00 0.0000000000000000e+00  0.0000000000000000e+00 0.0000000000000000e+00 0.0000000000000000e+00  0.0000000000000000e+00 0.0000000000000000e+00 0.0000000000000000e+00  0.0000000000000000e+00 0.0000000000000000e+00 0.0000000000000000e+00  0.0000000000000000e+00 0.0000000000000000e+00 0.0000000000000000e+00  0.0000000000000000e+00 0.0000000000000000e+00 0.0000000000000000e+00  0.0000000000000000e+00 0.0000000000000000e+00 0.0000000000000000e+00  0.0000000000000000e+00 0.0000000000000000e+00 0.0000000000000000e+00  0.0000000000000000e+00 0.0000000000000000e+00 0.0000000000000000e+00  0.0000000000000000e+00 0.0000000000000000e+00 0.0000000000000000e+00  0.0000000000000000e+00 0.0000000000000000e+00 0.0000000000000000e+00  0.0000000000000000e+00 0.0000000000000000e+00 0.0000000000000000e+00  0.0000000000000000e+00 0.0000000000000000e+00 0.0000000000000000e+00  0.0000000000000000e+00 0.0000000000000000e+00 0.0000000000000000e+00  0.0000000000000000e+00 0.0000000000000000e+00 0.0000000000000000e+00  0.0000000000000000e+00 0.0000000000000000e+00 0.0000000000000000e+00  0.0000000000000000e+00 0.0000000000000000e+00 0.0000000000000000e+00  0.0000000000000000e+00 0.0000000000000000e+00 0.0000000000000000e+00  0.0000000000000000e+00 0.0000000000000000e+00 0.0000000000000000e+00  0.0000000000000000e+00 0.0000000000000000e+00 0.0000000000000000e+00  0.0000000000000000e+00 0.0000000000000000e+00 0.0000000000000000e+00  0.0000000000000000e+00 0.0000000000000000e+00 0.0000000000000000e+00  0.0000000000000000e+00 0.0000000000000000e+00 0.0000000000000000e+00  0.0000000000000000e+00 0.0000000000000000e+00 0.0000000000000000e+00  0.0000000000000000e+00 0.0000000000000000e+00 0.0000000000000000e+00  0.0000000000000000e+00 0.0000000000000000e+00 0.0000000000000000e+00  0.0000000000000000e+00 0.0000000000000000e+00 0.0000000000000000e+00  0.0000000000000000e+00 0.0000000000000000e+00 0.0000000000000000e+00  0.0000000000000000e+00 0.0000000000000000e+00 0.0000000000000000e+00  0.0000000000000000e+00 0.0000000000000000e+00 0.0000000000000000e+00  0.0000000000000000e+00 0.0000000000000000e+00 0.0000000000000000e+00  0.0000000000000000e+00 0.0000000000000000e+00 0.0000000000000000e+00  0.0000000000000000e+00 0.0000000000000000e+00 0.0000000000000000e+00  0.0000000000000000e+00 0.0000000000000000e+00 0.0000000000000000e+00  0.0000000000000000e+00 0.0000000000000000e+00 0.0000000000000000e+00  0.0000000000000000e+00 0.0000000000000000e+00 0.0000000000000000e+00  0.0000000000000000e+00 0.0000000000000000e+00 0.0000000000000000e+00  0.0000000000000000e+00 0.0000000000000000e+00 0.0000000000000000e+00  0.0000000000000000e+00 0.0000000000000000e+00 0.0000000000000000e+00  0.0000000000000000e+00 0.0000000000000000e+00 0.0000000000000000e+00  0.0000000000000000e+00 0.0000000000000000e+00 0.0000000000000000e+00  0.0000000000000000e+00 0.0000000000000000e+00 0.0000000000000000e+00  0.0000000000000000e+00 0.0000000000000000e+00 0.0000000000000000e+00  0.0000000000000000e+00 0.0000000000000000e+00 0.0000000000000000e+00  0.0000000000000000e+00 0.0000000000000000e+00 0.0000000000000000e+00  0.0000000000000000e+00 0.0000000000000000e+00 0.0000000000000000e+00  0.0000000000000000e+00 0.0000000000000000e+00 0.0000000000000000e+00  0.0000000000000000e+00 0.0000000000000000e+00 0.0000000000000000e+00  0.0000000000000000e+00 0.0000000000000000e+00 0.0000000000000000e+00  0.0000000000000000e+00 0.0000000000000000e+00 0.0000000000000000e+00  0.0000000000000000e+00 0.0000000000000000e+00 0.0000000000000000e+00  0.0000000000000000e+00 0.0000000000000000e+00 0.0000000000000000e+00  0.0000000000000000e+00 0.0000000000000000e+00 0.0000000000000000e+00  0.0000000000000000e+00 0.0000000000000000e+00 0.0000000000000000e+00  0.0000000000000000e+00 0.0000000000000000e+00 0.0000000000000000e+00  0.0000000000000000e+00 0.0000000000000000e+00 0.0000000000000000e+00  0.0000000000000000e+00 0.0000000000000000e+00 0.0000000000000000e+00  0.0000000000000000e+00 0.0000000000000000e+00 0.0000000000000000e+00  0.0000000000000000e+00 0.0000000000000000e+00 0.0000000000000000e+00  0.0000000000000000e+00 0.0000000000000000e+00 0.0000000000000000e+00  0.0000000000000000e+00 0.0000000000000000e+00 0.0000000000000000e+00  0.0000000000000000e+00 0.0000000000000000e+00 0.0000000000000000e+00  0.0000000000000000e+00 0.0000000000000000e+00 0.0000000000000000e+00  0.0000000000000000e+00 0.0000000000000000e+00 0.0000000000000000e+00  0.0000000000000000e+00 0.0000000000000000e+00 0.0000000000000000e+00  0.0000000000000000e+00 0.0000000000000000e+00 0.0000000000000000e+00  0.0000000000000000e+00 0.0000000000000000e+00 0.0000000000000000e+00  0.0000000000000000e+00 0.0000000000000000e+00 0.0000000000000000e+00  0.0000000000000000e+00 0.0000000000000000e+00 0.0000000000000000e+00  0.0000000000000000e+00 0.0000000000000000e+00 0.0000000000000000e+00  0.0000000000000000e+00 0.0000000000000000e+00 0.0000000000000000e+00  0.0000000000000000e+00 0.0000000000000000e+00 0.0000000000000000e+00  0.0000000000000000e+00 0.0000000000000000e+00 0.0000000000000000e+00  0.0000000000000000e+00 0.0000000000000000e+00 0.0000000000000000e+00  0.0000000000000000e+00 0.0000000000000000e+00 0.0000000000000000e+00  0.0000000000000000e+00 0.0000000000000000e+00 0.0000000000000000e+00  0.0000000000000000e+00 0.0000000000000000e+00 0.0000000000000000e+00  0.0000000000000000e+00 0.0000000000000000e+00 0.0000000000000000e+00  0.0000000000000000e+00 0.0000000000000000e+00 0.0000000000000000e+00  0.0000000000000000e+00 0.0000000000000000e+00 0.0000000000000000e+00  0.0000000000000000e+00 0.0000000000000000e+00 0.0000000000000000e+00  0.0000000000000000e+00 0.0000000000000000e+00 0.0000000000000000e+00  0.0000000000000000e+00 0.0000000000000000e+00 0.0000000000000000e+00  0.0000000000000000e+00 0.0000000000000000e+00 0.0000000000000000e+00  0.0000000000000000e+00 0.0000000000000000e+00 0.0000000000000000e+00  0.0000000000000000e+00 0.0000000000000000e+00 0.0000000000000000e+00  0.0000000000000000e+00 0.0000000000000000e+00 0.0000000000000000e+00  0.0000000000000000e+00 0.0000000000000000e+00 0.0000000000000000e+00  0.0000000000000000e+00 0.0000000000000000e+00 0.0000000000000000e+00  0.0000000000000000e+00 0.0000000000000000e+00 0.0000000000000000e+00  0.0000000000000000e+00 0.0000000000000000e+00 0.0000000000000000e+00  0.0000000000000000e+00 0.0000000000000000e+00 0.0000000000000000e+00  0.0000000000000000e+00 0.0000000000000000e+00 0.0000000000000000e+00  0.0000000000000000e+00 0.0000000000000000e+00 0.0000000000000000e+00  0.0000000000000000e+00 0.0000000000000000e+00 0.0000000000000000e+00  0.0000000000000000e+00 0.0000000000000000e+00 0.0000000000000000e+00  0.0000000000000000e+00 0.0000000000000000e+00 0.0000000000000000e+00  0.0000000000000000e+00 0.0000000000000000e+00 0.0000000000000000e+00  0.0000000000000000e+00 0.0000000000000000e+00 0.0000000000000000e+00  0.0000000000000000e+00 0.0000000000000000e+00 0.0000000000000000e+00  0.0000000000000000e+00 0.0000000000000000e+00 0.0000000000000000e+00  0.0000000000000000e+00 0.0000000000000000e+00 0.0000000000000000e+00  0.0000000000000000e+00 0.0000000000000000e+00 0.0000000000000000e+00  0.0000000000000000e+00 0.0000000000000000e+00 0.0000000000000000e+00  0.0000000000000000e+00 0.0000000000000000e+00 0.0000000000000000e+00  0.0000000000000000e+00 0.0000000000000000e+00 0.0000000000000000e+00  0.0000000000000000e+00 0.0000000000000000e+00 0.0000000000000000e+00  0.0000000000000000e+00 0.0000000000000000e+00 0.0000000000000000e+00  0.0000000000000000e+00 0.0000000000000000e+00 0.0000000000000000e+00  0.0000000000000000e+00 0.0000000000000000e+00 0.0000000000000000e+00  0.0000000000000000e+00 0.0000000000000000e+00 0.0000000000000000e+00  0.0000000000000000e+00 0.0000000000000000e+00 0.0000000000000000e+00  0.0000000000000000e+00 0.0000000000000000e+00 0.0000000000000000e+00  0.0000000000000000e+00 0.0000000000000000e+00 0.0000000000000000e+00  0.0000000000000000e+00 0.0000000000000000e+00 0.0000000000000000e+00  0.0000000000000000e+00 0.0000000000000000e+00 0.0000000000000000e+00  1.4448085239446510e-07 -2.1811239434359055e-06 0.0000000000000000e+00  3.7310301649482369e-07 -2.4899795985309433e-06 0.0000000000000000e+00  6.9396395908555188e-07 -2.7825591779374591e-06 0.0000000000000000e+00  1.0752892833271111e-06 -3.1166997196295895e-06 0.0000000000000000e+00  1.4435448075231994e-06 -3.5425731224537588e-06 0.0000000000000000e+00  1.8108488190934809e-06 -4.0910090916895233e-06 0.0000000000000000e+00  2.1368442159968180e-06 -4.7146175509570372e-06 0.0000000000000000e+00  2.4371372518111675e-06 -5.4430187887484699e-06 0.0000000000000000e+00  2.7418110208559949e-06 -6.2530524211132657e-06 0.0000000000000000e+00  2.9914386778719665e-06 -7.1417962535278436e-06 0.0000000000000000e+00  3.2462297896367624e-06 -8.1245217893858761e-06 0.0000000000000000e+00  3.4478185956443008e-06 -9.1747944289476549e-06 0.0000000000000000e+00  3.6447155066228751e-06 -1.0306789089418403e-05 0.0000000000000000e+00  3.8013440309500942e-06 -1.1502993317404318e-05 0.0000000000000000e+00  3.9301507567476435e-06 -1.2773083373009242e-05 0.0000000000000000e+00  4.0559851979316687e-06 -1.4108732015705356e-05 0.0000000000000000e+00  4.1325749938820936e-06 -1.5494921529262344e-05 0.0000000000000000e+00  4.2040664202408122e-06 -1.6956157867093308e-05 0.0000000000000000e+00  4.2300098711169897e-06 -1.8456809728409741e-05 0.0000000000000000e+00  4.2492116428593933e-06 -2.0024079038680721e-05 0.0000000000000000e+00  4.2288513584539582e-06 -2.1627762508494403e-05 0.0000000000000000e+00  4.1912715310874902e-06 -2.3288989736459732e-05 0.0000000000000000e+00  4.1235366576657085e-06 -2.4988332608159922e-05 0.0000000000000000e+00  4.0282658241880038e-06 -2.6731383353519958e-05 0.0000000000000000e+00  3.9228283940710096e-06 -2.8515986428006373e-05 0.0000000000000000e+00  3.7818040337193525e-06 -3.0328072152201716e-05 0.0000000000000000e+00  3.6176140315216042e-06 -3.2192096905851513e-05 0.0000000000000000e+00  3.4271798706593173e-06 -3.4071505693809052e-05 0.0000000000000000e+00  3.2133393507269593e-06 -3.5996193477342843e-05 0.0000000000000000e+00  2.9734194491223454e-06 -3.7935608486914571e-05 0.0000000000000000e+00  2.7110887347327218e-06 -3.9913662093385802e-05 0.0000000000000000e+00  2.4211876575075288e-06 -4.1901885539700824e-05 0.0000000000000000e+00  2.1106823290787166e-06 -4.3925999302832781e-05 0.0000000000000000e+00  1.7719506421773368e-06 -4.5953229095083994e-05 0.0000000000000000e+00  1.4087233721358567e-06 -4.8015574377090744e-05 0.0000000000000000e+00  1.0208315148410889e-06 -5.0078592042612496e-05 0.0000000000000000e+00  6.1003964811782463e-07 -5.2169684314372659e-05 0.0000000000000000e+00  1.7381536268727410e-07 -5.4259271496382738e-05 0.0000000000000000e+00  -2.8661373190576185e-07 -5.6372982655270015e-05 0.0000000000000000e+00  -7.7379808748945995e-07 -5.8483054742403958e-05 0.0000000000000000e+00  -1.2868484715826660e-06 -6.0609411591726083e-05 0.0000000000000000e+00  -1.8215122037960345e-06 -6.2735806934071173e-05 0.0000000000000000e+00  -2.3848769200005963e-06 -6.4871434291432375e-05 0.0000000000000000e+00  -2.9623088493339472e-06 -6.7008089683169819e-05 0.0000000000000000e+00  -3.5683462750694949e-06 -6.9139943345603825e-05 0.0000000000000000e+00  -4.1802845887764065e-06 -7.1297269259808777e-05 0.0000000000000000e+00  -6.3623337384596376e-06 -7.2960528486056057e-05 0.0000000000000000e+00  -9.2760308592046610e-06 -7.1779822683908361e-05 0.0000000000000000e+00  -1.0014517452446041e-05 -6.9082345388820707e-05 0.0000000000000000e+00  -9.3912618416053170e-06 -6.6880995741158794e-05 0.0000000000000000e+00  -8.7733832272327494e-06 -6.4668488300134564e-05 0.0000000000000000e+00  -8.1809893303505574e-06 -6.2469047922758468e-05 0.0000000000000000e+00  -7.6032811483006513e-06 -6.0274528742139752e-05 0.0000000000000000e+00  -7.0534282046171020e-06 -5.8086999048925841e-05 0.0000000000000000e+00  -6.5187246792082594e-06 -5.5907999050235909e-05 0.0000000000000000e+00  -6.0109719840227663e-06 -5.3731334377407738e-05 0.0000000000000000e+00  -5.5200867950146422e-06 -5.1574789444264867e-05 0.0000000000000000e+00  -5.0539645106111059e-06 -4.9417080515395835e-05 0.0000000000000000e+00  -4.6037873090750813e-06 -4.7283503175845921e-05 0.0000000000000000e+00  -4.1788883958430598e-06 -4.5152644253266658e-05 0.0000000000000000e+00  -3.7681664376383853e-06 -4.3049648977269921e-05 0.0000000000000000e+00  -3.3830036511583882e-06 -4.0953067225366305e-05 0.0000000000000000e+00  -3.0104070561495185e-06 -3.8888253219123612e-05 0.0000000000000000e+00  -2.6645073553589003e-06 -3.6833670586956913e-05 0.0000000000000000e+00  -2.3295192728959029e-06 -3.4813733851592362e-05 0.0000000000000000e+00  -2.0229607159957845e-06 -3.2808004638571558e-05 0.0000000000000000e+00  -1.7256975408895572e-06 -3.0842548788363901e-05 0.0000000000000000e+00  -1.4573443778941688e-06 -2.8896240940015202e-05 0.0000000000000000e+00  -1.1959520150602350e-06 -2.6994169228850428e-05 0.0000000000000000e+00  -9.6521987947127293e-07 -2.5116310776254691e-05 0.0000000000000000e+00  -7.4377897266121693e-07 -2.3282714125060398e-05 0.0000000000000000e+00  -5.4674992078572229e-07 -2.1483655564116512e-05 0.0000000000000000e+00  -3.7334089923138109e-07 -1.9732630293412792e-05 0.0000000000000000e+00  -2.0086319003610501e-07 -1.8021330097397159e-05 0.0000000000000000e+00  -5.8513792165103017e-08 -1.6353829507404321e-05 0.0000000000000000e+00  7.2348958416856678e-08 -1.4747718790468758e-05 0.0000000000000000e+00  1.7922747221025080e-07 -1.3180412794488417e-05 0.0000000000000000e+00  2.7350519887881433e-07 -1.1682465797611934e-05 0.0000000000000000e+00  3.4438851869933311e-07 -1.0227388861915913e-05 0.0000000000000000e+00  4.0734663693822005e-07 -8.8517680637354342e-06 0.0000000000000000e+00  4.4369203292077096e-07 -7.5245041796925559e-06 0.0000000000000000e+00  4.5840812030841909e-07 -6.2806427748347933e-06 0.0000000000000000e+00  4.7824441545898958e-07 -5.0930464067190126e-06 0.0000000000000000e+00  4.6682929423923698e-07 -3.9859020029931577e-06 0.0000000000000000e+00  4.4638823617320656e-07 -2.9648790636966797e-06 0.0000000000000000e+00  4.0147949142014737e-07 -2.0149086245760797e-06 0.0000000000000000e+00  3.5415615866884906e-07 -1.1652361764581724e-06 0.0000000000000000e+00  2.7591394720482364e-07 -3.8841286589169820e-07 0.0000000000000000e+00  1.7699099258721101e-07 2.8105928620608741e-07 0.0000000000000000e+00  9.1984731382980193e-08 8.6998983197454750e-07 0.0000000000000000e+00  -2.7984450911588404e-08 1.3703816977451512e-06 0.0000000000000000e+00  -1.1474447439456244e-07 1.7602796793880457e-06 0.0000000000000000e+00  -1.7750951260856777e-07 1.9790162791590104e-06 0.0000000000000000e+00  -1.1863850566810651e-07 1.9683828123526452e-06 0.0000000000000000e+00  -3.3756498020903701e-07 -1.1777316183649413e-07 0.0000000000000000e+00  -6.8099635406158780e-06 -6.9105521003584564e-05 0.0000000000000000e+00  -5.5812879537105006e-06 -6.4961245410646019e-05 0.0000000000000000e+00  -3.8712960226906714e-06 -5.8203175779915504e-05 0.0000000000000000e+00  3.8516447105008914e-07 -6.1344443922014913e-07 0.0000000000000000e+00  -2.9294327307918532e-06 -5.3976339485506011e-05 0.0000000000000000e+00  8.4682053304931546e-07 -1.4679425242145626e-06 0.0000000000000000e+00  -2.0246054768439667e-06 -4.9726612470624881e-05 0.0000000000000000e+00  1.4628983863955784e-06 -3.6565857318518253e-06 0.0000000000000000e+00  1.7714935583797154e-06 -5.4925325139935460e-06 0.0000000000000000e+00  -1.2094753186546286e-06 -4.5529949770610816e-05 0.0000000000000000e+00  2.1479146855308898e-06 -1.1471284328763105e-05 0.0000000000000000e+00  1.5484766932520832e-07 -3.7354642891119038e-05 0.0000000000000000e+00  1.9686323225716861e-06 -7.5340392385706974e-06 0.0000000000000000e+00  2.1803425914320403e-06 -1.4284352292223103e-05 0.0000000000000000e+00  7.0540249513566599e-07 -3.3407127484076234e-05 0.0000000000000000e+00  -4.8315892608050547e-07 -4.1400714332310090e-05 0.0000000000000000e+00  2.1070448410154302e-06 -1.7355010853115159e-05 0.0000000000000000e+00  1.1685275537040610e-06 -2.9576796820027599e-05 0.0000000000000000e+00  1.9284129089455571e-06 -2.0470468773109366e-05 0.0000000000000000e+00  1.5713409499747790e-06 -2.5977716489105722e-05 0.0000000000000000e+00  1.7749213764022364e-06 -2.3071689910073206e-05 0.0000000000000000e+00  2.0971920874651149e-06 -9.3746771912173835e-06 0.0000000000000000e+00  -4.7922815763909861e-06 -6.1689427631537194e-05 0.0000000000000000e+00  1.1688266333367467e-06 -2.4499671435429140e-06 0.0000000000000000e+00  -7.1968150134724068e-06 -6.6618144142258206e-05 0.0000000000000000e+00  -5.1622413550984536e-08 5.3432660557417522e-07 0.0000000000000000e+00  -3.2914640187191118e-06 -5.1451591530817831e-05 0.0000000000000000e+00  -4.2490645273389160e-06 -5.5738318655723919e-05 0.0000000000000000e+00  8.5049076860388485e-07 -1.8216638126354315e-06 0.0000000000000000e+00  1.9866469516644295e-06 -5.1484936791042100e-06 0.0000000000000000e+00  -9.3888376586663615e-07 -3.8925512336521844e-05 0.0000000000000000e+00  -2.4210698839933673e-06 -4.7210841876977762e-05 0.0000000000000000e+00  2.7366294460415606e-06 -1.3396540096588648e-05 0.0000000000000000e+00  -3.2503900450769391e-07 -3.4911027433946613e-05 0.0000000000000000e+00  2.3091842889084314e-06 -7.1398025099339829e-06 0.0000000000000000e+00  2.7482658527467326e-06 -1.6342448211723409e-05 0.0000000000000000e+00  2.0436467270785783e-07 -3.1004510202492535e-05 0.0000000000000000e+00  -1.6373314500237082e-06 -4.3030235282149354e-05 0.0000000000000000e+00  2.8129773717809328e-06 -1.9601788005007381e-05 0.0000000000000000e+00  6.5037734574293232e-07 -2.7224602428758719e-05 0.0000000000000000e+00  -3.8563629660950984e-07 -5.2187955622618574e-07 0.0000000000000000e+00  -4.2240913831665335e-07 4.3351128760541874e-07 0.0000000000000000e+00  -6.6617473482893104e-06 -7.1075922806870380e-05 0.0000000000000000e+00  2.1707628192388429e-0