<?xml version="1.0"?>
<VTKFile type="UnstructuredGrid"  version="0.1"  >
<UnstructuredGrid>
<Piece  NumberOfPoints="1419" NumberOfCells="2698">
<Points>
<DataArray  type="Float64"  NumberOfComponents="3"  format="ascii">0 0 0  0 0.41 0  2.5 0 0  2.5 0.41 0  0.6 0.19 0  0.6 0.21 0  0.25 0.2 0  0.15 0.2 0  0.2489897948556636 0.21 0  0.2489897948556636 0.19 0  0.6 0.2 0  0 0.3807142857143437 0  0 0.3514285714286952 0  0 0.3221428571430699 0  0 0.29285714285744 0  0 0.2635714285718054 0  0 0.2342857142861561 0  0 0.2050000000005308 0  0 0.175714285714732 0  0 0.1464285714289574 0  0 0.1171428571431897 0  0 0.08785714285737878 0  0 0.05857142857161107 0  0 0.02928571428580012 0  0.03015443760436003 0 0  0.06140001986583606 0 0  0.09377624077125973 0 0  0.1273239957535082 0 0  0.1620856860351972 0 0  0.1981052433264291 0 0  0.235428184091502 0 0  0.2741016576309132 0 0  0.3141745521465447 0 0  0.3556974926295285 0 0  0.3987229542472677 0 0  0.4433053055141081 0 0  0.4895008759286886 0 0  0.5373680609405097 0 0  0.5869673343216626 0 0  0.6383613676634521 0 0  0.6916151138468254 0 0  0.7467958595648856 0 0  0.8039733463919316 0 0  0.8632198139502143 0 0  0.9246101326867038 0 0  0.9882218810934433 0 0  1.054135445558498 0 0  1.122434100542598 0 0  1.193204177141305 0 0  1.266535089879536 0 0  1.342519516046404 0 0  1.421253448503939 0 0  1.502836389106271 0 0  1.587371439758838 0 0  1.674965418777374 0 0  1.765729001825544 0 0  1.859776908880082 0 0  1.957227977487062 0 0  2.058205329869943 0 0  2.162836591189951 0 0  2.271253957290865 0 0  2.383594446803425 0 0  2.5 0.1024999999997612 0  2.5 0.2049999999994743 0  2.5 0.3074999999997183 0  2.383594446803656 0.41 0  2.271253957291315 0.41 0  2.162836591190598 0.41 0  2.058205329870775 0.41 0  1.957227977488067 0.41 0  1.859776908881246 0.41 0  1.765729001826854 0.41 0  1.674965418778818 0.41 0  1.58737143976041 0.41 0  1.502836389107956 0.41 0  1.421253448505726 0.41 0  1.342519516048286 0.41 0  1.266535089881505 0.41 0  1.193204177143353 0.41 0  1.122434100544716 0.41 0  1.05413544556068 0.41 0  0.9882218810956305 0.41 0  0.9246101326886647 0.41 0  0.8632198139519631 0.41 0  0.8039733463934788 0.41 0  0.7467958595662458 0.41 0  0.6916151138480078 0.41 0  0.6383613676644679 0.41 0  0.5869673343225223 0.41 0  0.5373680609412221 0.41 0  0.4895008759292634 0.41 0  0.4433053055145528 0.41 0  0.3987229542475914 0.41 0  0.3556974926297398 0.41 0  0.3141745521466497 0.41 0  0.2741016576310038 0.41 0  0.2354281840915826 0.41 0  0.1981052433265003 0.41 0  0.1620856860352591 0.41 0  0.1273239957535623 0.41 0  0.09377624077128965 0.41 0  0.06140001986584975 0.41 0  0.03015443760436654 0.41 0  0.2497468076502589 0.2050254481002335 0  0.2497468076502614 0.1949745518997913 0  0.2469965252529372 0.1829317073451959 0  0.2439893735792749 0.1762316384219906 0  0.2400332147834255 0.1700443375285386 0  0.2352133972704371 0.1645032867342007 0  0.2296339016332438 0.1597280261969788 0  0.2234150974217223 0.1558215752574715 0  0.2166911463437691 0.1528682099456123 0  0.2096071079204251 0.1509316448471593 0  0.2023158100364996 0.1500536585536553 0  0.194974551899914 0.1502531923497262 0  0.1877417105387872 0.1515259415822739 0  0.1807733240461124 0.153844448527136 0  0.1742197252835808 0.15715869474974 0  0.1682222986673531 0.1613971801805478 0  0.162910430003803 0.1664684656256651 0  0.1583987151779087 0.1722631454351573 0  0.1547844879126891 0.178656207771761 0  0.1521457199348551 0.1855097315605723 0  0.1505393388476355 0.1926758619366523 0  0.1505393388476328 0.2073241380633295 0  0.1521457199348437 0.2144902684393899 0  0.1547844879126531 0.221343792228163 0  0.1583987151778488 0.2277368545647528 0  0.1629104300036858 0.2335315343742052 0  0.1682222986671726 0.2386028198193036 0  0.1742197252833576 0.2428413052501257 0  0.1807733240458683 0.2461555514727623 0  0.1877417105384929 0.2484740584176516 0  0.1949745518995776 0.2497468076502398 0  0.202315810036185 0.2499463414463592 0  0.2096071079201568 0.2490683551528932 0  0.2166911463435495 0.2471317900544655 0  0.2234150974215506 0.2441784247426195 0  0.2296339016331197 0.2402719738031125 0  0.2352133972703547 0.2354967132658811 0  0.2400332147833751 0.2299556624715287 0  0.2439893735792577 0.2237683615780412 0  0.246996525252926 0.2170682926548348 0  0.25645809709277 0.21 0  0.2639263993298655 0.21 0  0.271394701566961 0.21 0  0.2788630038040554 0.21 0  0.2863313060411479 0.21 0  0.2937996082782405 0.21 0  0.301267910515333 0.21 0  0.3087362127524279 0.21 0  0.3162045149895234 0.21 0  0.3236728172265972 0.21 0  0.3311411194636928 0.21 0  0.3386094217007701 0.21 0  0.3460777239378666 0.21 0  0.3535460261749672 0.21 0  0.3610143284120516 0.21 0  0.3684826306491596 0.21 0  0.3759509328862226 0.21 0  0.383419235123329 0.21 0  0.3908875373604028 0.21 0  0.3983558395975142 0.21 0  0.4058241418345938 0.21 0  0.4132924440716992 0.21 0  0.4207607463087888 0.21 0  0.4282290485459029 0.21 0  0.4356973507830418 0.21 0  0.4431656530201649 0.21 0  0.4506339552573136 0.21 0  0.4581022574944306 0.21 0  0.4655705597315852 0.21 0  0.4730388619686996 0.21 0  0.480507164205851 0.21 0  0.4879754664429498 0.21 0  0.4954437686800938 0.21 0  0.502912070917267 0.21 0  0.5103803731544119 0.21 0  0.5178486753915261 0.21 0  0.5253169776286404 0.21 0  0.5327852798657868 0.21 0  0.5402535821029386 0.21 0  0.54772188434007 0.21 0  0.5551901865771842 0.21 0  0.5626584888143201 0.21 0  0.5701267910514778 0.21 0  0.5775950932886138 0.21 0  0.5850633955257281 0.21 0  0.5925316977628483 0.21 0  0.6 0.2050000000000054 0  0.6 0.1950000000000217 0  0.5925316977628897 0.19 0  0.5850633955257988 0.19 0  0.5775950932887378 0.19 0  0.5701267910515998 0.19 0  0.5626584888145268 0.19 0  0.5551901865773963 0.19 0  0.547721884340339 0.19 0  0.5402535821032429 0.19 0  0.5327852798661811 0.19 0  0.5253169776290537 0.19 0  0.5178486753919799 0.19 0  0.5103803731549078 0.19 0  0.502912070917822 0.19 0  0.4954437686807294 0.19 0  0.4879754664436223 0.19 0  0.4805071642065402 0.19 0  0.4730388619694271 0.19 0  0.4655705597323621 0.19 0  0.4581022574952563 0.19 0  0.4506339552581777 0.19 0  0.4431656530210671 0.19 0  0.4356973507839815 0.19 0  0.4282290485468779 0.19 0  0.4207607463097617 0.19 0  0.4132924440726327 0.19 0  0.4058241418354857 0.19 0  0.3983558395983636 0.19 0  0.3908875373612097 0.19 0  0.3834192351240934 0.19 0  0.3759509328869369 0.19 0  0.3684826306498175 0.19 0  0.361014328412667 0.19 0  0.3535460261755617 0.19 0  0.3460777239384295 0.19 0  0.3386094217012945 0.19 0  0.3311411194641595 0.19 0  0.3236728172270245 0.19 0  0.3162045149898895 0.19 0  0.3087362127527544 0.19 0  0.3012679105156187 0.19 0  0.2937996082784807 0.19 0  0.2863313060413428 0.19 0  0.2788630038042048 0.19 0  0.2713947015670686 0.19 0  0.2639263993299336 0.19 0  0.2564580970927985 0.19 0  0.2607803159922026 0.2000727136295815 0  0.5887803774232762 0.2001272386983733 0  0.5745072403740523 0.2002044435018727 0  0.5511891430099709 0.2001122610077113 0  0.2751288526855082 0.20000000000002 0  0.5365194309847112 0.1999999999999436 0  0.2894621222999649 0.1998691686390484 0  0.5215828265105155 0.1999999999999228 0  0.3127789816668748 0.1998657885438805 0  0.3274069683451451 0.2000000000000796 0  0.5066462220363641 0.199999999999908 0  0.3650630746574081 0.199866017807523 0  0.476773013087985 0.1999999999998713 0  0.3417402379596385 0.1998691686391011 0  0.3796850840047755 0.200000000000134 0  0.4618364086138087 0.1999999999998546 0  0.4917096175621762 0.1999999999998808 0  0.3946216884789568 0.2000000000001512 0  0.446899804139621 0.1999999999998389 0  0.4089549580935208 0.1998691686391595 0  0.4322718174608562 0.200127451265745 0  0.4201487168029707 0.1999966199048527 0  0.3528922713220932 0.2000185703532356 0  0.5633122436674589 0.1999814296467508 0  0.3006558810093873 0.1999966199048318 0  0.5815926498168407 0.1966545283159175 0  0.2677053789419034 0.1964246479135325 0  0.5290511287476175 0.1970915826863981 0  0.5439877332217911 0.197091582686394 0  0.2825131256993216 0.2035478995978015 0  0.3199386661080599 0.202908417313604 0  0.4842413153250809 0.1970915826863873 0  0.5141145242734466 0.1970915826863843 0  0.3722167817676917 0.2029084173136195 0  0.4693047108508938 0.1970915826863783 0  0.3348752705822316 0.202908417313609 0  0.3871533862418661 0.2029084173136212 0  0.4543681063767183 0.1970915826863795 0  0.4991779197992749 0.1970915826863902 0  0.4020059614928624 0.203547899597858 0  0.4394315019025246 0.1970915826863714 0  0.2550657455369551 0.2034088125358657 0  0.2548908499171161 0.1966940311614271 0  0.5946539510196798 0.2024302972968126 0  0.267698176732111 0.2039977513680092 0  0.4261685417851465 0.196409292431739 0  0.3590076176283495 0.196411355804271 0  0.5571672426447437 0.2036011176410121 0  0.3066757059912147 0.1964092924317024 0  0.594380730180568 0.1966558399668133 0  0.4842413153245942 0.2040749161535287 0  0.4693047108503577 0.2040749161535231 0  0.3871533862424271 0.1959250838464788 0  0.372246743208829 0.1959123236376545 0  0.5141145242731028 0.2040749161535395 0  0.4543681063761134 0.2040749161535186 0  0.4019979587101454 0.1959834479682427 0  0.4394608940728603 0.2040870543693135 0  0.5439623148931173 0.2040856076781014 0  0.5290511287473298 0.2040749161535501 0  0.4991779197988497 0.2040749161535382 0  0.3347912413592433 0.1959225448935183 0  0.3199680582793816 0.1959123018030061 0  0.2825051229162361 0.1959834479681729 0  0.3590471196690275 0.2036304442587945 0  0.5571594006495384 0.1963685282145804 0  0.3067669986803285 0.203627750582736 0  0.4262598344738712 0.2036568242185335 0  0.5814408164431408 0.2041285596160068 0  0.5688286748170428 0.1961819304477386 0  0.4145905603063645 0.2038180695522843 0  0.3473758401724931 0.2038180695522752 0  0.2950977245128307 0.2038180695522663 0  0.5688286748170693 0.203818069552238 0  0.2950977245127906 0.1961819304477774 0  0.3473758401723931 0.1961819304478349 0  0.4145905603061963 0.1961819304479011 0  0.2601812407614425 0.2056861609747042
[...]
<PointData  Vectors="f_40-1"> 
<DataArray  type="Float64"  Name="f_40-1"  NumberOfComponents="3" format="ascii">0.0000000000000000e+00 0.0000000000000000e+00 0.0000000000000000e+00  0.0000000000000000e+00 0.0000000000000000e+00 0.0000000000000000e+00  0.0000000000000000e+00 0.0000000000000000e+00 0.0000000000000000e+00  0.0000000000000000e+00 0.0000000000000000e+00 0.0000000000000000e+00  -1.0807053474647951e-05 -9.0922641780481970e-05 0.0000000000000000e+00  -3.3945458396040160e-06 -9.3491820415435244e-05 0.0000000000000000e+00  0.0000000000000000e+00 0.0000000000000000e+00 0.0000000000000000e+00  0.0000000000000000e+00 0.0000000000000000e+00 0.0000000000000000e+00  0.0000000000000000e+00 0.0000000000000000e+00 0.0000000000000000e+00  0.0000000000000000e+00 0.0000000000000000e+00 0.0000000000000000e+00  -7.2964917886016863e-06 -9.2207859476758244e-05 0.0000000000000000e+00  0.0000000000000000e+00 0.0000000000000000e+00 0.0000000000000000e+00  0.0000000000000000e+00 0.0000000000000000e+00 0.0000000000000000e+00  0.0000000000000000e+00 0.0000000000000000e+00 0.0000000000000000e+00  0.0000000000000000e+00 0.0000000000000000e+00 0.0000000000000000e+00  0.0000000000000000e+00 0.0000000000000000e+00 0.0000000000000000e+00  0.0000000000000000e+00 0.0000000000000000e+00 0.0000000000000000e+00  0.0000000000000000e+00 0.0000000000000000e+00 0.0000000000000000e+00  0.0000000000000000e+00 0.0000000000000000e+00 0.0000000000000000e+00  0.0000000000000000e+00 0.0000000000000000e+00 0.0000000000000000e+00  0.0000000000000000e+00 0.0000000000000000e+00 0.0000000000000000e+00  0.0000000000000000e+00 0.0000000000000000e+00 0.0000000000000000e+00  0.0000000000000000e+00 0.0000000000000000e+00 0.0000000000000000e+00  0.0000000000000000e+00 0.0000000000000000e+00 0.0000000000000000e+00  0.0000000000000000e+00 0.0000000000000000e+00 0.0000000000000000e+00  0.0000000000000000e+00 0.0000000000000000e+00 0.0000000000000000e+00  0.0000000000000000e+00 0.0000000000000000e+00 0.0000000000000000e+00  0.0000000000000000e+00 0.0000000000000000e+00 0.0000000000000000e+00  0.0000000000000000e+00 0.0000000000000000e+00 0.0000000000000000e+00  0.0000000000000000e+00 0.0000000000000000e+00 0.0000000000000000e+00  0.0000000000000000e+00 0.0000000000000000e+00 0.0000000000000000e+00  0.0000000000000000e+00 0.0000000000000000e+00 0.0000000000000000e+00  0.0000000000000000e+00 0.0000000000000000e+00 0.0000000000000000e+00  0.0000000000000000e+00 0.0000000000000000e+00 0.0000000000000000e+00  0.0000000000000000e+00 0.0000000000000000e+00 0.0000000000000000e+00  0.0000000000000000e+00 0.0000000000000000e+00 0.0000000000000000e+00  0.0000000000000000e+00 0.0000000000000000e+00 0.0000000000000000e+00  0.0000000000000000e+00 0.0000000000000000e+00 0.0000000000000000e+00  0.0000000000000000e+00 0.0000000000000000e+00 0.0000000000000000e+00  0.0000000000000000e+00 0.0000000000000000e+00 0.0000000000000000e+00  0.0000000000000000e+00 0.0000000000000000e+00 0.0000000000000000e+00  0.0000000000000000e+00 0.0000000000000000e+00 0.0000000000000000e+00  0.0000000000000000e+00 0.0000000000000000e+00 0.0000000000000000e+00  0.0000000000000000e+00 0.0000000000000000e+00 0.0000000000000000e+00  0.0000000000000000e+00 0.0000000000000000e+00 0.0000000000000000e+00  0.0000000000000000e+00 0.0000000000000000e+00 0.0000000000000000e+00  0.0000000000000000e+00 0.0000000000000000e+00 0.0000000000000000e+00  0.0000000000000000e+00 0.0000000000000000e+00 0.0000000000000000e+00  0.0000000000000000e+00 0.0000000000000000e+00 0.0000000000000000e+00  0.0000000000000000e+00 0.0000000000000000e+00 0.0000000000000000e+00  0.0000000000000000e+00 0.0000000000000000e+00 0.0000000000000000e+00  0.0000000000000000e+00 0.0000000000000000e+00 0.0000000000000000e+00  0.0000000000000000e+00 0.0000000000000000e+00 0.0000000000000000e+00  0.0000000000000000e+00 0.0000000000000000e+00 0.0000000000000000e+00  0.0000000000000000e+00 0.0000000000000000e+00 0.0000000000000000e+00  0.0000000000000000e+00 0.0000000000000000e+00 0.0000000000000000e+00  0.0000000000000000e+00 0.0000000000000000e+00 0.0000000000000000e+00  0.0000000000000000e+00 0.0000000000000000e+00 0.0000000000000000e+00  0.0000000000000000e+00 0.0000000000000000e+00 0.0000000000000000e+00  0.0000000000000000e+00 0.0000000000000000e+00 0.0000000000000000e+00  0.0000000000000000e+00 0.0000000000000000e+00 0.0000000000000000e+00  0.0000000000000000e+00 0.0000000000000000e+00 0.0000000000000000e+00  0.0000000000000000e+00 0.0000000000000000e+00 0.0000000000000000e+00  0.0000000000000000e+00 0.0000000000000000e+00 0.0000000000000000e+00  0.0000000000000000e+00 0.0000000000000000e+00 0.0000000000000000e+00  0.0000000000000000e+00 0.0000000000000000e+00 0.0000000000000000e+00  0.0000000000000000e+00 0.0000000000000000e+00 0.0000000000000000e+00  0.0000000000000000e+00 0.0000000000000000e+00 0.0000000000000000e+00  0.0000000000000000e+00 0.0000000000000000e+00 0.0000000000000000e+00  0.0000000000000000e+00 0.0000000000000000e+00 0.0000000000000000e+00  0.0000000000000000e+00 0.0000000000000000e+00 0.0000000000000000e+00  0.0000000000000000e+00 0.0000000000000000e+00 0.0000000000000000e+00  0.0000000000000000e+00 0.0000000000000000e+00 0.0000000000000000e+00  0.0000000000000000e+00 0.0000000000000000e+00 0.0000000000000000e+00  0.0000000000000000e+00 0.0000000000000000e+00 0.0000000000000000e+00  0.0000000000000000e+00 0.0000000000000000e+00 0.0000000000000000e+00  0.0000000000000000e+00 0.0000000000000000e+00 0.0000000000000000e+00  0.0000000000000000e+00 0.0000000000000000e+00 0.0000000000000000e+00  0.0000000000000000e+00 0.0000000000000000e+00 0.0000000000000000e+00  0.0000000000000000e+00 0.0000000000000000e+00 0.0000000000000000e+00  0.0000000000000000e+00 0.0000000000000000e+00 0.0000000000000000e+00  0.0000000000000000e+00 0.0000000000000000e+00 0.0000000000000000e+00  0.0000000000000000e+00 0.0000000000000000e+00 0.0000000000000000e+00  0.0000000000000000e+00 0.0000000000000000e+00 0.0000000000000000e+00  0.0000000000000000e+00 0.0000000000000000e+00 0.0000000000000000e+00  0.0000000000000000e+00 0.0000000000000000e+00 0.0000000000000000e+00  0.0000000000000000e+00 0.0000000000000000e+00 0.0000000000000000e+00  0.0000000000000000e+00 0.0000000000000000e+00 0.0000000000000000e+00  0.0000000000000000e+00 0.0000000000000000e+00 0.0000000000000000e+00  0.0000000000000000e+00 0.0000000000000000e+00 0.0000000000000000e+00  0.0000000000000000e+00 0.0000000000000000e+00 0.0000000000000000e+00  0.0000000000000000e+00 0.0000000000000000e+00 0.0000000000000000e+00  0.0000000000000000e+00 0.0000000000000000e+00 0.0000000000000000e+00  0.0000000000000000e+00 0.0000000000000000e+00 0.0000000000000000e+00  0.0000000000000000e+00 0.0000000000000000e+00 0.0000000000000000e+00  0.0000000000000000e+00 0.0000000000000000e+00 0.0000000000000000e+00  0.0000000000000000e+00 0.0000000000000000e+00 0.0000000000000000e+00  0.0000000000000000e+00 0.0000000000000000e+00 0.0000000000000000e+00  0.0000000000000000e+00 0.0000000000000000e+00 0.0000000000000000e+00  0.0000000000000000e+00 0.0000000000000000e+00 0.0000000000000000e+00  0.0000000000000000e+00 0.0000000000000000e+00 0.0000000000000000e+00  0.0000000000000000e+00 0.0000000000000000e+00 0.0000000000000000e+00  0.0000000000000000e+00 0.0000000000000000e+00 0.0000000000000000e+00  0.0000000000000000e+00 0.0000000000000000e+00 0.0000000000000000e+00  0.0000000000000000e+00 0.0000000000000000e+00 0.0000000000000000e+00  0.0000000000000000e+00 0.0000000000000000e+00 0.0000000000000000e+00  0.0000000000000000e+00 0.0000000000000000e+00 0.0000000000000000e+00  0.0000000000000000e+00 0.0000000000000000e+00 0.0000000000000000e+00  0.0000000000000000e+00 0.0000000000000000e+00 0.0000000000000000e+00  0.0000000000000000e+00 0.0000000000000000e+00 0.0000000000000000e+00  0.0000000000000000e+00 0.0000000000000000e+00 0.0000000000000000e+00  0.0000000000000000e+00 0.0000000000000000e+00 0.0000000000000000e+00  0.0000000000000000e+00 0.0000000000000000e+00 0.0000000000000000e+00  0.0000000000000000e+00 0.0000000000000000e+00 0.0000000000000000e+00  0.0000000000000000e+00 0.0000000000000000e+00 0.0000000000000000e+00  0.0000000000000000e+00 0.0000000000000000e+00 0.0000000000000000e+00  0.0000000000000000e+00 0.0000000000000000e+00 0.0000000000000000e+00  0.0000000000000000e+00 0.0000000000000000e+00 0.0000000000000000e+00  0.0000000000000000e+00 0.0000000000000000e+00 0.0000000000000000e+00  0.0000000000000000e+00 0.0000000000000000e+00 0.0000000000000000e+00  0.0000000000000000e+00 0.0000000000000000e+00 0.0000000000000000e+00  0.0000000000000000e+00 0.0000000000000000e+00 0.0000000000000000e+00  0.0000000000000000e+00 0.0000000000000000e+00 0.0000000000000000e+00  0.0000000000000000e+00 0.0000000000000000e+00 0.0000000000000000e+00  0.0000000000000000e+00 0.0000000000000000e+00 0.0000000000000000e+00  0.0000000000000000e+00 0.0000000000000000e+00 0.0000000000000000e+00  0.0000000000000000e+00 0.0000000000000000e+00 0.0000000000000000e+00  0.0000000000000000e+00 0.0000000000000000e+00 0.0000000000000000e+00  0.0000000000000000e+00 0.0000000000000000e+00 0.0000000000000000e+00  0.0000000000000000e+00 0.0000000000000000e+00 0.0000000000000000e+00  0.0000000000000000e+00 0.0000000000000000e+00 0.0000000000000000e+00  0.0000000000000000e+00 0.0000000000000000e+00 0.0000000000000000e+00  0.0000000000000000e+00 0.0000000000000000e+00 0.0000000000000000e+00  0.0000000000000000e+00 0.0000000000000000e+00 0.0000000000000000e+00  0.0000000000000000e+00 0.0000000000000000e+00 0.0000000000000000e+00  0.0000000000000000e+00 0.0000000000000000e+00 0.0000000000000000e+00  0.0000000000000000e+00 0.0000000000000000e+00 0.0000000000000000e+00  0.0000000000000000e+00 0.0000000000000000e+00 0.0000000000000000e+00  0.0000000000000000e+00 0.0000000000000000e+00 0.0000000000000000e+00  0.0000000000000000e+00 0.0000000000000000e+00 0.0000000000000000e+00  0.0000000000000000e+00 0.0000000000000000e+00 0.0000000000000000e+00  0.0000000000000000e+00 0.0000000000000000e+00 0.0000000000000000e+00  0.0000000000000000e+00 0.0000000000000000e+00 0.0000000000000000e+00  2.1504855446747272e-07 -2.4000777352813432e-06 0.0000000000000000e+00  5.2731748723190420e-07 -2.7681597263683889e-06 0.0000000000000000e+00  9.3854588003828492e-07 -3.1391616982316700e-06 0.0000000000000000e+00  1.4190510348728487e-06 -3.5765850903294316e-06 0.0000000000000000e+00  1.8809280976218808e-06 -4.1323142961600058e-06 0.0000000000000000e+00  2.3458280766385208e-06 -4.8414467965442676e-06 0.0000000000000000e+00  2.7601455946676204e-06 -5.6472553760296276e-06 0.0000000000000000e+00  3.1456178707973035e-06 -6.5870409487258053e-06 0.0000000000000000e+00  3.5390840649998609e-06 -7.6309979615077022e-06 0.0000000000000000e+00  3.8657157236261984e-06 -8.7763603145690022e-06 0.0000000000000000e+00  4.2019462970342312e-06 -1.0040251451961484e-05 0.0000000000000000e+00  4.4734096196138012e-06 -1.1391854889842790e-05 0.0000000000000000e+00  4.7423832337037939e-06 -1.2846931939908982e-05 0.0000000000000000e+00  4.9624421927146907e-06 -1.4383439959494174e-05 0.0000000000000000e+00  5.1509249359652987e-06 -1.6014556420253259e-05 0.0000000000000000e+00  5.3378398975635024e-06 -1.7727955973940469e-05 0.0000000000000000e+00  5.4657902838168386e-06 -1.9507140687419144e-05 0.0000000000000000e+00  5.5903247376133568e-06 -2.1379303805532323e-05 0.0000000000000000e+00  5.6602487789248890e-06 -2.3303503777848946e-05 0.0000000000000000e+00  5.7244626641587662e-06 -2.5309766315736345e-05 0.0000000000000000e+00  5.7418455308842317e-06 -2.7363991658404490e-05 0.0000000000000000e+00  5.7409716343621955e-06 -2.9489688710542960e-05 0.0000000000000000e+00  5.7041645499536401e-06 -3.1663127166139447e-05 0.0000000000000000e+00  5.6362867068315318e-06 -3.3892244213484260e-05 0.0000000000000000e+00  5.5577623474908813e-06 -3.6172228501268347e-05 0.0000000000000000e+00  5.4378891516418386e-06 -3.8488456492836948e-05 0.0000000000000000e+00  5.2921459182323992e-06 -4.0867358199454961e-05 0.0000000000000000e+00  5.1161328589433334e-06 -4.3267493906803176e-05 0.0000000000000000e+00  4.9139053009632296e-06 -4.5722348804450303e-05 0.0000000000000000e+00  4.6817010643775540e-06 -4.8196878175450955e-05 0.0000000000000000e+00  4.4243106909272416e-06 -5.0718039663676055e-05 0.0000000000000000e+00  4.1354609705276873e-06 -5.3253085290350181e-05 0.0000000000000000e+00  3.8233623205231337e-06 -5.5830913955792618e-05 0.0000000000000000e+00  3.4791141174809205e-06 -5.8414314777651963e-05 0.0000000000000000e+00  3.1073602063773459e-06 -6.1039073464039305e-05 0.0000000000000000e+00  2.7074847001627878e-06 -6.3665991655217693e-05 0.0000000000000000e+00  2.2818038481138873e-06 -6.6325839410283848e-05 0.0000000000000000e+00  1.8272471453970652e-06 -6.8984917160268131e-05 0.0000000000000000e+00  1.3454719412338917e-06 -7.1672095945803725e-05 0.0000000000000000e+00  8.3342913444802807e-07 -7.4355727608396807e-05 0.0000000000000000e+00  2.9226857708594000e-07 -7.7058301068762822e-05 0.0000000000000000e+00  -2.7342387626094766e-07 -7.9761168195772317e-05 0.0000000000000000e+00  -8.7137071998760655e-07 -8.2474744962977059e-05 0.0000000000000000e+00  -1.4852268125588366e-06 -8.5189632228554666e-05 0.0000000000000000e+00  -2.1315415375611691e-06 -8.7898969204676887e-05 0.0000000000000000e+00  -2.7850913873303166e-06 -9.0636396178831553e-05 0.0000000000000000e+00  -5.4135251345544752e-06 -9.2844099868678656e-05 0.0000000000000000e+00  -9.1079496092231825e-06 -9.1572236116379307e-05 0.0000000000000000e+00  -1.0181247100647266e-05 -8.8251981346096201e-05 0.0000000000000000e+00  -9.5148186661742183e-06 -8.5464264953332949e-05 0.0000000000000000e+00  -8.8549386514040468e-06 -8.2664258574968803e-05 0.0000000000000000e+00  -8.2237215676242350e-06 -7.9879325310038427e-05 0.0000000000000000e+00  -7.6089883855592925e-06 -7.7100096186015279e-05 0.0000000000000000e+00  -7.0252806897768673e-06 -7.4329077702361715e-05 0.0000000000000000e+00  -6.4583065035457171e-06 -7.1568074771429042e-05 0.0000000000000000e+00  -5.9215285246193188e-06 -6.8810198056545556e-05 0.0000000000000000e+00  -5.4031444872312757e-06 -6.6075717676466100e-05 0.0000000000000000e+00  -4.9125523035678336e-06 -6.3340808271289458e-05 0.0000000000000000e+00  -4.4390449406401495e-06 -6.0634045734085196e-05 0.0000000000000000e+00  -3.9940069942580299e-06 -5.7931587688412107e-05 0.0000000000000000e+00  -3.5639063771046687e-06 -5.5262007907274452e-05 0.0000000000000000e+00  -3.1626610344294594e-06 -5.2601505093705129e-05 0.0000000000000000e+00  -2.7742942202489689e-06 -4.9978768355782409e-05 0.0000000000000000e+00  -2.4162311405725368e-06 -4.7369960342213684e-05 0.0000000000000000e+00  -2.0688857458441103e-06 -4.4802697495152858e-05 0.0000000000000000e+00  -1.7539743078133762e-06 -4.2254379413882100e-05 0.0000000000000000e+00  -1.4477753542740483e-06 -3.9754603822637682e-05 0.0000000000000000e+00  -1.1747304977185350e-06 -3.7280118260749130e-05 0.0000000000000000e+00  -9.0741765762708303e-07 -3.4859334879264902e-05 0.0000000000000000e+00  -6.7546982227890925e-07 -3.2470234124539789e-05 0.0000000000000000e+00  -4.5169715808579265e-07 -3.0135691055734275e-05 0.0000000000000000e+00  -2.5615760469700984e-07 -2.7844541148872684e-05 0.0000000000000000e+00  -8.6472062800383079e-08 -2.5613893084435991e-05 0.0000000000000000e+00  8.4137996223224820e-08 -2.3432583384298913e-05 0.0000000000000000e+00  2.2056381875821505e-07 -2.1307715043537504e-05 0.0000000000000000e+00  3.4561561055462029e-07 -1.9258188297919941e-05 0.0000000000000000e+00  4.4370706125213685e-07 -1.7260054028018164e-05 0.0000000000000000e+00  5.2918979026556619e-07 -1.5347269257474072e-05 0.0000000000000000e+00  5.8832944235012670e-07 -1.3491078410386726e-05 0.0000000000000000e+00  6.4119414977456033e-07 -1.1733980625078489e-05 0.0000000000000000e+00  6.6260142714834978e-07 -1.0039222405558402e-05 0.0000000000000000e+00  6.6047675086736334e-07 -8.4499557640193890e-06 0.0000000000000000e+00  6.6729665832266831e-07 -6.9324124270074854e-06 0.0000000000000000e+00  6.3818778017568482e-07 -5.5178722276438987e-06 0.0000000000000000e+00  6.0097091403444639e-07 -4.2115929732498233e-06 0.0000000000000000e+00  5.3588626152280436e-07 -2.9976490762410876e-06 0.0000000000000000e+00  4.7155109992015934e-07 -1.9109652149645628e-06 0.0000000000000000e+00  3.7017060814789504e-07 -9.1775016649662578e-07 0.0000000000000000e+00  2.4653733986191396e-07 -6.2108547304829928e-08 0.0000000000000000e+00  1.4312659617962358e-07 6.9080103675097789e-07 0.0000000000000000e+00  -4.1635755893572159e-10 1.3264152695907582e-06 0.0000000000000000e+00  -1.0324311635736605e-07 1.8218481710391018e-06 0.0000000000000000e+00  -1.8217150995766651e-07 2.1101621458437430e-06 0.0000000000000000e+00  -1.2271850037387840e-07 2.1284013410331697e-06 0.0000000000000000e+00  -3.1678371354222044e-07 -1.4893350895148549e-07 0.0000000000000000e+00  -6.1720542779749550e-06 -8.8067560274945655e-05 0.0000000000000000e+00  -4.8545387804057986e-06 -8.2810509141706864e-05 0.0000000000000000e+00  -3.0452304379707983e-06 -7.4238419814361459e-05 0.0000000000000000e+00  5.3956468322812216e-07 -7.9062850960926008e-07 0.0000000000000000e+00  -2.0594383799859427e-06 -6.8875814487914160e-05 0.0000000000000000e+00  1.1117993877970570e-06 -1.8959304317350335e-06 0.0000000000000000e+00  -1.1113721474919658e-06 -6.3478791955663759e-05 0.0000000000000000e+00  1.8979658006837342e-06 -4.7072644515788544e-06 0.0000000000000000e+00  2.3079451052302265e-06 -7.0577331196827930e-06 0.0000000000000000e+00  -2.6363716126781956e-07 -5.8145999575982268e-05 0.0000000000000000e+00  2.8853127791182183e-06 -1.4723060229102834e-05 0.0000000000000000e+00  1.1345839723149014e-06 -4.7747716274099937e-05 0.0000000000000000e+00  2.5863261061768213e-06 -9.6804403426279552e-06 0.0000000000000000e+00  2.9875588513478022e-06 -1.8317528848749743e-05 0.0000000000000000e+00  1.6866649849747044e-06 -4.2721751667456102e-05 0.0000000000000000e+00  4.8480844531885278e-07 -5.2895682051556253e-05 0.0000000000000000e+00  2.9689257843701110e-06 -2.2243581240977570e-05 0.0000000000000000e+00  2.1410459019839841e-06 -3.7841492419589763e-05 0.0000000000000000e+00  2.8252734586594613e-06 -2.6228282587430602e-05 0.0000000000000000e+00  2.5343105609711663e-06 -3.3248550544733558e-05 0.0000000000000000e+00  2.7055245371726809e-06 -2.9544686703324372e-05 0.0000000000000000e+00  2.7812027677247961e-06 -1.2032809203792381e-05 0.0000000000000000e+00  -4.0294306029536047e-06 -7.8665057012307330e-05 0.0000000000000000e+00  1.5200832708668863e-06 -3.1523782831127047e-06 0.0000000000000000e+00  -6.7860073658644567e-06 -8.4988456004386181e-05 0.0000000000000000e+00  3.3132679955833794e-09 5.2138283966729986e-07 0.0000000000000000e+00  -2.6214172679035191e-06 -6.5743251635458277e-05 0.0000000000000000e+00  -3.6291976570596775e-06 -7.1183298908828149e-05 0.0000000000000000e+00  1.1253610669119206e-06 -2.1928139568465444e-06 0.0000000000000000e+00  2.5753765158892791e-06 -6.5001392188012944e-06 0.0000000000000000e+00  -1.7764230183624673e-07 -4.9828952338522954e-05 0.0000000000000000e+00  -1.7108422841464387e-06 -6.0358650359844030e-05 0.0000000000000000e+00  3.6667817671949110e-06 -1.7076606311911024e-05 0.0000000000000000e+00  4.4751701287310731e-07 -4.4722087919415051e-05 0.0000000000000000e+00  3.0092332889625602e-06 -9.0567308719121968e-06 0.0000000000000000e+00  3.7495803618224977e-06 -2.0847024215208728e-05 0.0000000000000000e+00  9.7885034405113340e-07 -3.9749141901784439e-05 0.0000000000000000e+00  -8.9680352859063133e-07 -5.5047244289081500e-05 0.0000000000000000e+00  3.9128224529286248e-06 -2.4993261557563839e-05 0.0000000000000000e+00  1.4175327088306662e-06 -3.4933938602639322e-05 0.0000000000000000e+00  -3.9178400081875548e-07 -5.7393518001217933e-07 0.0000000000000000e+00  -4.4121210878342812e-07 4.6990312917376628e-07 0.0000000000000000e+00  -5.8818261927371816e-06 -9.0516243607131888e-05 0.0000000000000000e+00  3.4767392496507491e-07 -1.43