<?xml version="1.0"?>
<VTKFile type="UnstructuredGrid"  version="0.1"  >
<UnstructuredGrid>
<Piece  NumberOfPoints="1419" NumberOfCells="2698">
<Points>
<DataArray  type="Float64"  NumberOfComponents="3"  format="ascii">0 0 0  0 0.41 0  2.5 0 0  2.5 0.41 0  0.6 0.19 0  0.6 0.21 0  0.25 0.2 0  0.15 0.2 0  0.2489897948556636 0.21 0  0.2489897948556636 0.19 0  0.6 0.2 0  0 0.3807142857143437 0  0 0.3514285714286952 0  0 0.3221428571430699 0  0 0.29285714285744 0  0 0.2635714285718054 0  0 0.2342857142861561 0  0 0.2050000000005308 0  0 0.175714285714732 0  0 0.1464285714289574 0  0 0.1171428571431897 0  0 0.08785714285737878 0  0 0.05857142857161107 0  0 0.02928571428580012 0  0.03015443760436003 0 0  0.06140001986583606 0 0  0.09377624077125973 0 0  0.1273239957535082 0 0  0.1620856860351972 0 0  0.1981052433264291 0 0  0.235428184091502 0 0  0.2741016576309132 0 0  0.3141745521465447 0 0  0.3556974926295285 0 0  0.3987229542472677 0 0  0.4433053055141081 0 0  0.4895008759286886 0 0  0.5373680609405097 0 0  0.5869673343216626 0 0  0.6383613676634521 0 0  0.6916151138468254 0 0  0.7467958595648856 0 0  0.8039733463919316 0 0  0.8632198139502143 0 0  0.9246101326867038 0 0  0.9882218810934433 0 0  1.054135445558498 0 0  1.122434100542598 0 0  1.193204177141305 0 0  1.266535089879536 0 0  1.342519516046404 0 0  1.421253448503939 0 0  1.502836389106271 0 0  1.587371439758838 0 0  1.674965418777374 0 0  1.765729001825544 0 0  1.859776908880082 0 0  1.957227977487062 0 0  2.058205329869943 0 0  2.162836591189951 0 0  2.271253957290865 0 0  2.383594446803425 0 0  2.5 0.1024999999997612 0  2.5 0.2049999999994743 0  2.5 0.3074999999997183 0  2.383594446803656 0.41 0  2.271253957291315 0.41 0  2.162836591190598 0.41 0  2.058205329870775 0.41 0  1.957227977488067 0.41 0  1.859776908881246 0.41 0  1.765729001826854 0.41 0  1.674965418778818 0.41 0  1.58737143976041 0.41 0  1.502836389107956 0.41 0  1.421253448505726 0.41 0  1.342519516048286 0.41 0  1.266535089881505 0.41 0  1.193204177143353 0.41 0  1.122434100544716 0.41 0  1.05413544556068 0.41 0  0.9882218810956305 0.41 0  0.9246101326886647 0.41 0  0.8632198139519631 0.41 0  0.8039733463934788 0.41 0  0.7467958595662458 0.41 0  0.6916151138480078 0.41 0  0.6383613676644679 0.41 0  0.5869673343225223 0.41 0  0.5373680609412221 0.41 0  0.4895008759292634 0.41 0  0.4433053055145528 0.41 0  0.3987229542475914 0.41 0  0.3556974926297398 0.41 0  0.3141745521466497 0.41 0  0.2741016576310038 0.41 0  0.2354281840915826 0.41 0  0.1981052433265003 0.41 0  0.1620856860352591 0.41 0  0.1273239957535623 0.41 0  0.09377624077128965 0.41 0  0.06140001986584975 0.41 0  0.03015443760436654 0.41 0  0.2497468076502589 0.2050254481002335 0  0.2497468076502614 0.1949745518997913 0  0.2469965252529372 0.1829317073451959 0  0.2439893735792749 0.1762316384219906 0  0.2400332147834255 0.1700443375285386 0  0.2352133972704371 0.1645032867342007 0  0.2296339016332438 0.1597280261969788 0  0.2234150974217223 0.1558215752574715 0  0.2166911463437691 0.1528682099456123 0  0.2096071079204251 0.1509316448471593 0  0.2023158100364996 0.1500536585536553 0  0.194974551899914 0.1502531923497262 0  0.1877417105387872 0.1515259415822739 0  0.1807733240461124 0.153844448527136 0  0.1742197252835808 0.15715869474974 0  0.1682222986673531 0.1613971801805478 0  0.162910430003803 0.1664684656256651 0  0.1583987151779087 0.1722631454351573 0  0.1547844879126891 0.178656207771761 0  0.1521457199348551 0.1855097315605723 0  0.1505393388476355 0.1926758619366523 0  0.1505393388476328 0.2073241380633295 0  0.1521457199348437 0.2144902684393899 0  0.1547844879126531 0.221343792228163 0  0.1583987151778488 0.2277368545647528 0  0.1629104300036858 0.2335315343742052 0  0.1682222986671726 0.2386028198193036 0  0.1742197252833576 0.2428413052501257 0  0.1807733240458683 0.2461555514727623 0  0.1877417105384929 0.2484740584176516 0  0.1949745518995776 0.2497468076502398 0  0.202315810036185 0.2499463414463592 0  0.2096071079201568 0.2490683551528932 0  0.2166911463435495 0.2471317900544655 0  0.2234150974215506 0.2441784247426195 0  0.2296339016331197 0.2402719738031125 0  0.2352133972703547 0.2354967132658811 0  0.2400332147833751 0.2299556624715287 0  0.2439893735792577 0.2237683615780412 0  0.246996525252926 0.2170682926548348 0  0.25645809709277 0.21 0  0.2639263993298655 0.21 0  0.271394701566961 0.21 0  0.2788630038040554 0.21 0  0.2863313060411479 0.21 0  0.2937996082782405 0.21 0  0.301267910515333 0.21 0  0.3087362127524279 0.21 0  0.3162045149895234 0.21 0  0.3236728172265972 0.21 0  0.3311411194636928 0.21 0  0.3386094217007701 0.21 0  0.3460777239378666 0.21 0  0.3535460261749672 0.21 0  0.3610143284120516 0.21 0  0.3684826306491596 0.21 0  0.3759509328862226 0.21 0  0.383419235123329 0.21 0  0.3908875373604028 0.21 0  0.3983558395975142 0.21 0  0.4058241418345938 0.21 0  0.4132924440716992 0.21 0  0.4207607463087888 0.21 0  0.4282290485459029 0.21 0  0.4356973507830418 0.21 0  0.4431656530201649 0.21 0  0.4506339552573136 0.21 0  0.4581022574944306 0.21 0  0.4655705597315852 0.21 0  0.4730388619686996 0.21 0  0.480507164205851 0.21 0  0.4879754664429498 0.21 0  0.4954437686800938 0.21 0  0.502912070917267 0.21 0  0.5103803731544119 0.21 0  0.5178486753915261 0.21 0  0.5253169776286404 0.21 0  0.5327852798657868 0.21 0  0.5402535821029386 0.21 0  0.54772188434007 0.21 0  0.5551901865771842 0.21 0  0.5626584888143201 0.21 0  0.5701267910514778 0.21 0  0.5775950932886138 0.21 0  0.5850633955257281 0.21 0  0.5925316977628483 0.21 0  0.6 0.2050000000000054 0  0.6 0.1950000000000217 0  0.5925316977628897 0.19 0  0.5850633955257988 0.19 0  0.5775950932887378 0.19 0  0.5701267910515998 0.19 0  0.5626584888145268 0.19 0  0.5551901865773963 0.19 0  0.547721884340339 0.19 0  0.5402535821032429 0.19 0  0.5327852798661811 0.19 0  0.5253169776290537 0.19 0  0.5178486753919799 0.19 0  0.5103803731549078 0.19 0  0.502912070917822 0.19 0  0.4954437686807294 0.19 0  0.4879754664436223 0.19 0  0.4805071642065402 0.19 0  0.4730388619694271 0.19 0  0.4655705597323621 0.19 0  0.4581022574952563 0.19 0  0.4506339552581777 0.19 0  0.4431656530210671 0.19 0  0.4356973507839815 0.19 0  0.4282290485468779 0.19 0  0.4207607463097617 0.19 0  0.4132924440726327 0.19 0  0.4058241418354857 0.19 0  0.3983558395983636 0.19 0  0.3908875373612097 0.19 0  0.3834192351240934 0.19 0  0.3759509328869369 0.19 0  0.3684826306498175 0.19 0  0.361014328412667 0.19 0  0.3535460261755617 0.19 0  0.3460777239384295 0.19 0  0.3386094217012945 0.19 0  0.3311411194641595 0.19 0  0.3236728172270245 0.19 0  0.3162045149898895 0.19 0  0.3087362127527544 0.19 0  0.3012679105156187 0.19 0  0.2937996082784807 0.19 0  0.2863313060413428 0.19 0  0.2788630038042048 0.19 0  0.2713947015670686 0.19 0  0.2639263993299336 0.19 0  0.2564580970927985 0.19 0  0.2607803159922026 0.2000727136295815 0  0.5887803774232762 0.2001272386983733 0  0.5745072403740523 0.2002044435018727 0  0.5511891430099709 0.2001122610077113 0  0.2751288526855082 0.20000000000002 0  0.5365194309847112 0.1999999999999436 0  0.2894621222999649 0.1998691686390484 0  0.5215828265105155 0.1999999999999228 0  0.3127789816668748 0.1998657885438805 0  0.3274069683451451 0.2000000000000796 0  0.5066462220363641 0.199999999999908 0  0.3650630746574081 0.199866017807523 0  0.476773013087985 0.1999999999998713 0  0.3417402379596385 0.1998691686391011 0  0.3796850840047755 0.200000000000134 0  0.4618364086138087 0.1999999999998546 0  0.4917096175621762 0.1999999999998808 0  0.3946216884789568 0.2000000000001512 0  0.446899804139621 0.1999999999998389 0  0.4089549580935208 0.1998691686391595 0  0.4322718174608562 0.200127451265745 0  0.4201487168029707 0.1999966199048527 0  0.3528922713220932 0.2000185703532356 0  0.5633122436674589 0.1999814296467508 0  0.3006558810093873 0.1999966199048318 0  0.5815926498168407 0.1966545283159175 0  0.2677053789419034 0.1964246479135325 0  0.5290511287476175 0.1970915826863981 0  0.5439877332217911 0.197091582686394 0  0.2825131256993216 0.2035478995978015 0  0.3199386661080599 0.202908417313604 0  0.4842413153250809 0.1970915826863873 0  0.5141145242734466 0.1970915826863843 0  0.3722167817676917 0.2029084173136195 0  0.4693047108508938 0.1970915826863783 0  0.3348752705822316 0.202908417313609 0  0.3871533862418661 0.2029084173136212 0  0.4543681063767183 0.1970915826863795 0  0.4991779197992749 0.1970915826863902 0  0.4020059614928624 0.203547899597858 0  0.4394315019025246 0.1970915826863714 0  0.2550657455369551 0.2034088125358657 0  0.2548908499171161 0.1966940311614271 0  0.5946539510196798 0.2024302972968126 0  0.267698176732111 0.2039977513680092 0  0.4261685417851465 0.196409292431739 0  0.3590076176283495 0.196411355804271 0  0.5571672426447437 0.2036011176410121 0  0.3066757059912147 0.1964092924317024 0  0.594380730180568 0.1966558399668133 0  0.4842413153245942 0.2040749161535287 0  0.4693047108503577 0.2040749161535231 0  0.3871533862424271 0.1959250838464788 0  0.372246743208829 0.1959123236376545 0  0.5141145242731028 0.2040749161535395 0  0.4543681063761134 0.2040749161535186 0  0.4019979587101454 0.1959834479682427 0  0.4394608940728603 0.2040870543693135 0  0.5439623148931173 0.2040856076781014 0  0.5290511287473298 0.2040749161535501 0  0.4991779197988497 0.2040749161535382 0  0.3347912413592433 0.1959225448935183 0  0.3199680582793816 0.1959123018030061 0  0.2825051229162361 0.1959834479681729 0  0.3590471196690275 0.2036304442587945 0  0.5571594006495384 0.1963685282145804 0  0.3067669986803285 0.203627750582736 0  0.4262598344738712 0.2036568242185335 0  0.5814408164431408 0.2041285596160068 0  0.5688286748170428 0.1961819304477386 0  0.4145905603063645 0.2038180695522843 0  0.3473758401724931 0.2038180695522752 0  0.2950977245128307 0.2038180695522663 0  0.5688286748170693 0.203818069552238 0  0.2950977245127906 0.1961819304477774 0  0.3473758401723931 0.1961819304478349 0  0.4145905603061963 0.1961819304479011 0  0.2601812407614425 0.2056861609747042
[...]
<PointData  Vectors="f_40-1"> 
<DataArray  type="Float64"  Name="f_40-1"  NumberOfComponents="3" format="ascii">0.0000000000000000e+00 0.0000000000000000e+00 0.0000000000000000e+00  0.0000000000000000e+00 0.0000000000000000e+00 0.0000000000000000e+00  0.0000000000000000e+00 0.0000000000000000e+00 0.0000000000000000e+00  0.0000000000000000e+00 0.0000000000000000e+00 0.0000000000000000e+00  -1.0588380719409631e-05 -7.0240424094075550e-05 0.0000000000000000e+00  -4.8140430071932148e-06 -7.2614977120407582e-05 0.0000000000000000e+00  0.0000000000000000e+00 0.0000000000000000e+00 0.0000000000000000e+00  0.0000000000000000e+00 0.0000000000000000e+00 0.0000000000000000e+00  0.0000000000000000e+00 0.0000000000000000e+00 0.0000000000000000e+00  0.0000000000000000e+00 0.0000000000000000e+00 0.0000000000000000e+00  -7.8746579171410952e-06 -7.1428492964608175e-05 0.0000000000000000e+00  0.0000000000000000e+00 0.0000000000000000e+00 0.0000000000000000e+00  0.0000000000000000e+00 0.0000000000000000e+00 0.0000000000000000e+00  0.0000000000000000e+00 0.0000000000000000e+00 0.0000000000000000e+00  0.0000000000000000e+00 0.0000000000000000e+00 0.0000000000000000e+00  0.0000000000000000e+00 0.0000000000000000e+00 0.0000000000000000e+00  0.0000000000000000e+00 0.0000000000000000e+00 0.0000000000000000e+00  0.0000000000000000e+00 0.0000000000000000e+00 0.0000000000000000e+00  0.0000000000000000e+00 0.0000000000000000e+00 0.0000000000000000e+00  0.0000000000000000e+00 0.0000000000000000e+00 0.0000000000000000e+00  0.0000000000000000e+00 0.0000000000000000e+00 0.0000000000000000e+00  0.0000000000000000e+00 0.0000000000000000e+00 0.0000000000000000e+00  0.0000000000000000e+00 0.0000000000000000e+00 0.0000000000000000e+00  0.0000000000000000e+00 0.0000000000000000e+00 0.0000000000000000e+00  0.0000000000000000e+00 0.0000000000000000e+00 0.0000000000000000e+00  0.0000000000000000e+00 0.0000000000000000e+00 0.0000000000000000e+00  0.0000000000000000e+00 0.0000000000000000e+00 0.0000000000000000e+00  0.0000000000000000e+00 0.0000000000000000e+00 0.0000000000000000e+00  0.0000000000000000e+00 0.0000000000000000e+00 0.0000000000000000e+00  0.0000000000000000e+00 0.0000000000000000e+00 0.0000000000000000e+00  0.0000000000000000e+00 0.0000000000000000e+00 0.0000000000000000e+00  0.0000000000000000e+00 0.0000000000000000e+00 0.0000000000000000e+00  0.0000000000000000e+00 0.0000000000000000e+00 0.0000000000000000e+00  0.0000000000000000e+00 0.0000000000000000e+00 0.0000000000000000e+00  0.0000000000000000e+00 0.0000000000000000e+00 0.0000000000000000e+00  0.0000000000000000e+00 0.0000000000000000e+00 0.0000000000000000e+00  0.0000000000000000e+00 0.0000000000000000e+00 0.0000000000000000e+00  0.0000000000000000e+00 0.0000000000000000e+00 0.0000000000000000e+00  0.0000000000000000e+00 0.0000000000000000e+00 0.0000000000000000e+00  0.0000000000000000e+00 0.0000000000000000e+00 0.0000000000000000e+00  0.0000000000000000e+00 0.0000000000000000e+00 0.0000000000000000e+00  0.0000000000000000e+00 0.0000000000000000e+00 0.0000000000000000e+00  0.0000000000000000e+00 0.0000000000000000e+00 0.0000000000000000e+00  0.0000000000000000e+00 0.0000000000000000e+00 0.0000000000000000e+00  0.0000000000000000e+00 0.0000000000000000e+00 0.0000000000000000e+00  0.0000000000000000e+00 0.0000000000000000e+00 0.0000000000000000e+00  0.0000000000000000e+00 0.0000000000000000e+00 0.0000000000000000e+00  0.0000000000000000e+00 0.0000000000000000e+00 0.0000000000000000e+00  0.0000000000000000e+00 0.0000000000000000e+00 0.0000000000000000e+00  0.0000000000000000e+00 0.0000000000000000e+00 0.0000000000000000e+00  0.0000000000000000e+00 0.0000000000000000e+00 0.0000000000000000e+00  0.0000000000000000e+00 0.0000000000000000e+00 0.0000000000000000e+00  0.0000000000000000e+00 0.0000000000000000e+00 0.0000000000000000e+00  0.0000000000000000e+00 0.0000000000000000e+00 0.0000000000000000e+00  0.0000000000000000e+00 0.0000000000000000e+00 0.0000000000000000e+00  0.0000000000000000e+00 0.0000000000000000e+00 0.0000000000000000e+00  0.0000000000000000e+00 0.0000000000000000e+00 0.0000000000000000e+00  0.0000000000000000e+00 0.0000000000000000e+00 0.0000000000000000e+00  0.0000000000000000e+00 0.0000000000000000e+00 0.0000000000000000e+00  0.0000000000000000e+00 0.0000000000000000e+00 0.0000000000000000e+00  0.0000000000000000e+00 0.0000000000000000e+00 0.0000000000000000e+00  0.0000000000000000e+00 0.0000000000000000e+00 0.0000000000000000e+00  0.0000000000000000e+00 0.0000000000000000e+00 0.0000000000000000e+00  0.0000000000000000e+00 0.0000000000000000e+00 0.0000000000000000e+00  0.0000000000000000e+00 0.0000000000000000e+00 0.0000000000000000e+00  0.0000000000000000e+00 0.0000000000000000e+00 0.0000000000000000e+00  0.0000000000000000e+00 0.0000000000000000e+00 0.0000000000000000e+00  0.0000000000000000e+00 0.0000000000000000e+00 0.0000000000000000e+00  0.0000000000000000e+00 0.0000000000000000e+00 0.0000000000000000e+00  0.0000000000000000e+00 0.0000000000000000e+00 0.0000000000000000e+00  0.0000000000000000e+00 0.0000000000000000e+00 0.0000000000000000e+00  0.0000000000000000e+00 0.0000000000000000e+00 0.0000000000000000e+00  0.0000000000000000e+00 0.0000000000000000e+00 0.0000000000000000e+00  0.0000000000000000e+00 0.0000000000000000e+00 0.0000000000000000e+00  0.0000000000000000e+00 0.0000000000000000e+00 0.0000000000000000e+00  0.0000000000000000e+00 0.0000000000000000e+00 0.0000000000000000e+00  0.0000000000000000e+00 0.0000000000000000e+00 0.0000000000000000e+00  0.0000000000000000e+00 0.0000000000000000e+00 0.0000000000000000e+00  0.0000000000000000e+00 0.0000000000000000e+00 0.0000000000000000e+00  0.0000000000000000e+00 0.0000000000000000e+00 0.0000000000000000e+00  0.0000000000000000e+00 0.0000000000000000e+00 0.0000000000000000e+00  0.0000000000000000e+00 0.0000000000000000e+00 0.0000000000000000e+00  0.0000000000000000e+00 0.0000000000000000e+00 0.0000000000000000e+00  0.0000000000000000e+00 0.0000000000000000e+00 0.0000000000000000e+00  0.0000000000000000e+00 0.0000000000000000e+00 0.0000000000000000e+00  0.0000000000000000e+00 0.0000000000000000e+00 0.0000000000000000e+00  0.0000000000000000e+00 0.0000000000000000e+00 0.0000000000000000e+00  0.0000000000000000e+00 0.0000000000000000e+00 0.0000000000000000e+00  0.0000000000000000e+00 0.0000000000000000e+00 0.0000000000000000e+00  0.0000000000000000e+00 0.0000000000000000e+00 0.0000000000000000e+00  0.0000000000000000e+00 0.0000000000000000e+00 0.0000000000000000e+00  0.0000000000000000e+00 0.0000000000000000e+00 0.0000000000000000e+00  0.0000000000000000e+00 0.0000000000000000e+00 0.0000000000000000e+00  0.0000000000000000e+00 0.0000000000000000e+00 0.0000000000000000e+00  0.0000000000000000e+00 0.0000000000000000e+00 0.0000000000000000e+00  0.0000000000000000e+00 0.0000000000000000e+00 0.0000000000000000e+00  0.0000000000000000e+00 0.0000000000000000e+00 0.0000000000000000e+00  0.0000000000000000e+00 0.0000000000000000e+00 0.0000000000000000e+00  0.0000000000000000e+00 0.0000000000000000e+00 0.0000000000000000e+00  0.0000000000000000e+00 0.0000000000000000e+00 0.0000000000000000e+00  0.0000000000000000e+00 0.0000000000000000e+00 0.0000000000000000e+00  0.0000000000000000e+00 0.0000000000000000e+00 0.0000000000000000e+00  0.0000000000000000e+00 0.0000000000000000e+00 0.0000000000000000e+00  0.0000000000000000e+00 0.0000000000000000e+00 0.0000000000000000e+00  0.0000000000000000e+00 0.0000000000000000e+00 0.0000000000000000e+00  0.0000000000000000e+00 0.0000000000000000e+00 0.0000000000000000e+00  0.0000000000000000e+00 0.0000000000000000e+00 0.0000000000000000e+00  0.0000000000000000e+00 0.0000000000000000e+00 0.0000000000000000e+00  0.0000000000000000e+00 0.0000000000000000e+00 0.0000000000000000e+00  0.0000000000000000e+00 0.0000000000000000e+00 0.0000000000000000e+00  0.0000000000000000e+00 0.0000000000000000e+00 0.0000000000000000e+00  0.0000000000000000e+00 0.0000000000000000e+00 0.0000000000000000e+00  0.0000000000000000e+00 0.0000000000000000e+00 0.0000000000000000e+00  0.0000000000000000e+00 0.0000000000000000e+00 0.0000000000000000e+00  0.0000000000000000e+00 0.0000000000000000e+00 0.0000000000000000e+00  0.0000000000000000e+00 0.0000000000000000e+00 0.0000000000000000e+00  0.0000000000000000e+00 0.0000000000000000e+00 0.0000000000000000e+00  0.0000000000000000e+00 0.0000000000000000e+00 0.0000000000000000e+00  0.0000000000000000e+00 0.0000000000000000e+00 0.0000000000000000e+00  0.0000000000000000e+00 0.0000000000000000e+00 0.0000000000000000e+00  0.0000000000000000e+00 0.0000000000000000e+00 0.0000000000000000e+00  0.0000000000000000e+00 0.0000000000000000e+00 0.0000000000000000e+00  0.0000000000000000e+00 0.0000000000000000e+00 0.0000000000000000e+00  0.0000000000000000e+00 0.0000000000000000e+00 0.0000000000000000e+00  0.0000000000000000e+00 0.0000000000000000e+00 0.0000000000000000e+00  0.0000000000000000e+00 0.0000000000000000e+00 0.0000000000000000e+00  0.0000000000000000e+00 0.0000000000000000e+00 0.0000000000000000e+00  0.0000000000000000e+00 0.0000000000000000e+00 0.0000000000000000e+00  0.0000000000000000e+00 0.0000000000000000e+00 0.0000000000000000e+00  0.0000000000000000e+00 0.0000000000000000e+00 0.0000000000000000e+00  0.0000000000000000e+00 0.0000000000000000e+00 0.0000000000000000e+00  0.0000000000000000e+00 0.0000000000000000e+00 0.0000000000000000e+00  0.0000000000000000e+00 0.0000000000000000e+00 0.0000000000000000e+00  0.0000000000000000e+00 0.0000000000000000e+00 0.0000000000000000e+00  0.0000000000000000e+00 0.0000000000000000e+00 0.0000000000000000e+00  0.0000000000000000e+00 0.0000000000000000e+00 0.0000000000000000e+00  0.0000000000000000e+00 0.0000000000000000e+00 0.0000000000000000e+00  0.0000000000000000e+00 0.0000000000000000e+00 0.0000000000000000e+00  0.0000000000000000e+00 0.0000000000000000e+00 0.0000000000000000e+00  0.0000000000000000e+00 0.0000000000000000e+00 0.0000000000000000e+00  0.0000000000000000e+00 0.0000000000000000e+00 0.0000000000000000e+00  0.0000000000000000e+00 0.0000000000000000e+00 0.0000000000000000e+00  0.0000000000000000e+00 0.0000000000000000e+00 0.0000000000000000e+00  1.4109315568766702e-07 -2.1698852960233732e-06 0.0000000000000000e+00  3.6567917108789930e-07 -2.4758791620474312e-06 0.0000000000000000e+00  6.8214454737603469e-07 -2.7647466211762333e-06 0.0000000000000000e+00  1.0586439295681155e-06 -3.0940266269383814e-06 0.0000000000000000e+00  1.4223390488355742e-06 -3.5137874738444443e-06 0.0000000000000000e+00  1.7849112180162964e-06 -4.0546407368269782e-06 0.0000000000000000e+00  2.1066235500459883e-06 -4.6696484730808223e-06 0.0000000000000000e+00  2.4027964429939696e-06 -5.3880657037310995e-06 0.0000000000000000e+00  2.7031876124676712e-06 -6.1870458178477494e-06 0.0000000000000000e+00  2.9491012461795959e-06 -7.0636626856004437e-06 0.0000000000000000e+00  3.1999770802576599e-06 -8.0330927172727386e-06 0.0000000000000000e+00  3.3982067099716768e-06 -9.0691178935227512e-06 0.0000000000000000e+00  3.5916488011794964e-06 -1.0185830597527546e-05 0.0000000000000000e+00  3.7452381994151079e-06 -1.1365934803979235e-05 0.0000000000000000e+00  3.8711927568109102e-06 -1.2618942214137026e-05 0.0000000000000000e+00  3.9941132875034290e-06 -1.3936710817581516e-05 0.0000000000000000e+00  4.0682595236224230e-06 -1.5304299437348876e-05 0.0000000000000000e+00  4.1372342018558936e-06 -1.6746076007553091e-05 0.0000000000000000e+00  4.1610994961712901e-06 -1.8226672199765117e-05 0.0000000000000000e+00  4.1781802029772931e-06 -1.9773143973819803e-05 0.0000000000000000e+00  4.1560528094104316e-06 -2.1355483765607605e-05 0.0000000000000000e+00  4.1167632427123475e-06 -2.2994699168151984e-05 0.0000000000000000e+00  4.0475995642277906e-06 -2.4671569510588619e-05 0.0000000000000000e+00  3.9510768479040558e-06 -2.6391576583480785e-05 0.0000000000000000e+00  3.8444154582688126e-06 -2.8152686729383101e-05 0.0000000000000000e+00  3.7024506864719750e-06 -2.9940863946801050e-05 0.0000000000000000e+00  3.5374573500330810e-06 -3.1780459697667916e-05 0.0000000000000000e+00  3.3464190257149561e-06 -3.3635163560177560e-05 0.0000000000000000e+00  3.1321162672640556e-06 -3.5534688595773171e-05 0.0000000000000000e+00  2.8919275050539517e-06 -3.7448706655825311e-05 0.0000000000000000e+00  2.6294678628672953e-06 -3.9400975359610348e-05 0.0000000000000000e+00  2.3396317789546052e-06 -4.1363238853205251e-05 0.0000000000000000e+00  2.0293246314568501e-06 -4.3361056622358732e-05 0.0000000000000000e+00  1.6909869612397698e-06 -4.5361876775776258e-05 0.0000000000000000e+00  1.3283056278386867e-06 -4.7397506897635703e-05 0.0000000000000000e+00  9.4113225211646923e-07 -4.9433741914386174e-05 0.0000000000000000e+00  5.3120509447642665e-07 -5.1497813584888850e-05 0.0000000000000000e+00  9.6017788675461836e-08 -5.3560348264461156e-05 0.0000000000000000e+00  -3.6322245946719856e-07 -5.5646811301829275e-05 0.0000000000000000e+00  -8.4904174075676099e-07 -5.7729634120727928e-05 0.0000000000000000e+00  -1.3605631015372055e-06 -5.9828611113770343e-05 0.0000000000000000e+00  -1.8935518670660933e-06 -6.1927615456422444e-05 0.0000000000000000e+00  -2.4550628173238767e-06 -6.4035779543861868e-05 0.0000000000000000e+00  -3.0305485571450289e-06 -6.6144958841745906e-05 0.0000000000000000e+00  -3.6344470148624370e-06 -6.8249374400646828e-05 0.0000000000000000e+00  -4.2441844300829987e-06 -7.0379125818437833e-05 0.0000000000000000e+00  -6.4047413042982307e-06 -7.2016692126982540e-05 0.0000000000000000e+00  -9.2813224070771724e-06 -7.0840786274011292e-05 0.0000000000000000e+00  -1.0004158730674466e-05 -6.8173108993502740e-05 0.0000000000000000e+00  -9.3831818483940749e-06 -6.5999643309250098e-05 0.0000000000000000e+00  -8.7675271811822033e-06 -6.3815079690496753e-05 0.0000000000000000e+00  -8.1771966354390985e-06 -6.1643483657089699e-05 0.0000000000000000e+00  -7.6014611683441729e-06 -5.9476770481372901e-05 0.0000000000000000e+00  -7.0534198875214639e-06 -5.7316987445618394e-05 0.0000000000000000e+00  -6.5204465121962300e-06 -5.5165661474908171e-05 0.0000000000000000e+00  -6.0142599145884594e-06 -5.3016634376336010e-05 0.0000000000000000e+00  -5.5248608340242669e-06 -5.0887565500804159e-05 0.0000000000000000e+00  -5.0600719720489259e-06 -4.8757300658298341e-05 0.0000000000000000e+00  -4.6111666586488602e-06 -4.6650969801458922e-05 0.0000000000000000e+00  -4.1873793561865539e-06 -4.4547284459370215e-05 0.0000000000000000e+00  -3.7777258537764649e-06 -4.2471217601313359e-05 0.0000000000000000e+00  -3.3934660520708639e-06 -4.0401439745724577e-05 0.0000000000000000e+00  -3.0217506577379030e-06 -3.8363136760631105e-05 0.0000000000000000e+00  -2.6765518469823502e-06 -3.6334890893732153e-05 0.0000000000000000e+00  -2.3422670399445188e-06 -3.4340955044984347e-05 0.0000000000000000e+00  -2.0362122613498284e-06 -3.2361002715546142e-05 0.0000000000000000e+00  -1.7394738299900880e-06 -3.0420922112984003e-05 0.0000000000000000e+00  -1.4714344868748785e-06 -2.8499698396199338e-05 0.0000000000000000e+00  -1.2104075306079804e-06 -2.6622252122681050e-05 0.0000000000000000e+00  -9.7980786234624574e-07 -2.4768664507900691e-05 0.0000000000000000e+00  -7.5854440317260610e-07 -2.2958842591237365e-05 0.0000000000000000e+00  -5.6150375286794682e-07 -2.1183135087762344e-05 0.0000000000000000e+00  -3.8796703611108784e-07 -1.9454864435888790e-05 0.0000000000000000e+00  -2.1544490354611203e-07 -1.7765857598185226e-05 0.0000000000000000e+00  -7.2847657148016405e-08 -1.6120049563537581e-05 0.0000000000000000e+00  5.8265659488880677e-08 -1.4534959957741985e-05 0.0000000000000000e+00  1.6554517150798787e-07 -1.2988080690795984e-05 0.0000000000000000e+00  2.6023279808483494e-07 -1.1509792517499405e-05 0.0000000000000000e+00  3.3167501611609687e-07 -1.0073727043419690e-05 0.0000000000000000e+00  3.9512347988353406e-07 -8.7161793610392342e-06 0.0000000000000000e+00  4.3219567424374627e-07 -7.4063263548683293e-06 0.0000000000000000e+00  4.4773874899957852e-07 -6.1788254776151840e-06 0.0000000000000000e+00  4.6822674358428475e-07 -5.0068563432308682e-06 0.0000000000000000e+00  4.5769595478492957e-07 -3.9142716237358912e-06 0.0000000000000000e+00  4.3810489903319307e-07 -2.9067546319408348e-06 0.0000000000000000e+00  3.9421774398861039e-07 -1.9692874213539847e-06 0.0000000000000000e+00  3.4777747353688384e-07 -1.1308391238507969e-06 0.0000000000000000e+00  2.7071751704967872e-07 -3.6426606550008612e-07 0.0000000000000000e+00  1.7306587953949591e-07 2.9638494673371530e-07 0.0000000000000000e+00  8.9042327980663716e-08 8.7754460909429012e-07 0.0000000000000000e+00  -2.9681431268372785e-08 1.3715161907046278e-06 0.0000000000000000e+00  -1.1554814360245267e-07 1.7564057712314756e-06 0.0000000000000000e+00  -1.7742567353897233e-07 1.9718620149296201e-06 0.0000000000000000e+00  -1.1849634194551465e-07 1.9599328116405519e-06 0.0000000000000000e+00  -3.3847275967759929e-07 -1.1629575630376584e-07 0.0000000000000000e+00  -6.8379446484787087e-06 -6.8205726119828654e-05 0.0000000000000000e+00  -5.6139405725902074e-06 -6.4114347757408539e-05 0.0000000000000000e+00  -3.9093135036845978e-06 -5.7442511963368661e-05 0.0000000000000000e+00  3.7755136638228018e-07 -6.0507348085436463e-07 0.0000000000000000e+00  -2.9699001281481374e-06 -5.3269665197002916e-05 0.0000000000000000e+00  8.3372449053157973e-07 -1.4477272377750937e-06 0.0000000000000000e+00  -2.0674646450678538e-06 -4.9074463762991149e-05 0.0000000000000000e+00  1.4414548291835074e-06 -3.6069181530844592e-06 0.0000000000000000e+00  1.7451199168411891e-06 -5.4185110668278764e-06 0.0000000000000000e+00  -1.2541878497458431e-06 -4.4931787742506175e-05 0.0000000000000000e+00  2.1118433503528504e-06 -1.1317437849424688e-05 0.0000000000000000e+00  1.0801533455777822e-07 -3.6862079907905820e-05 0.0000000000000000e+00  1.9383161739115140e-06 -7.4325243650116253e-06 0.0000000000000000e+00  2.1409524553832929e-06 -1.4093485658846073e-05 0.0000000000000000e+00  6.5829233158202105e-07 -3.2965773668609829e-05 0.0000000000000000e+00  -5.2919403057766789e-07 -4.0855813997161878e-05 0.0000000000000000e+00  2.0650848083144820e-06 -1.7123614395586902e-05 0.0000000000000000e+00  1.1216602211438711e-06 -2.9185281179069150e-05 0.0000000000000000e+00  1.8848455291377327e-06 -2.0197878772354431e-05 0.0000000000000000e+00  1.5247893677469692e-06 -2.5633351938014105e-05 0.0000000000000000e+00  1.7298195858514711e-06 -2.2765177314101224e-05 0.0000000000000000e+00  2.0636873982795658e-06 -9.2489265370544927e-06 0.0000000000000000e+00  -4.8269663874009514e-06 -6.0884069443216113e-05 0.0000000000000000e+00  1.1514943945831522e-06 -2.4167616432572919e-06 0.0000000000000000e+00  -7.2142317251560930e-06 -6.5746629992247745e-05 0.0000000000000000e+00  -5.4361233299125646e-08 5.3457489715407564e-07 0.0000000000000000e+00  -3.3226016130954661e-06 -5.0773954666559899e-05 0.0000000000000000e+00  -4.2774627550485111e-06 -5.5005860613717788e-05 0.0000000000000000e+00  8.3704437605601082e-07 -1.8037963791573839e-06 0.0000000000000000e+00  1.9578634381100148e-06 -5.0843330066571725e-06 0.0000000000000000e+00  -9.7522330383802405e-07 -3.8408878386125604e-05 0.0000000000000000e+00  -2.4544389464533462e-06 -4.6587568814608370e-05 0.0000000000000000e+00  2.6914184996060653e-06 -1.3222180372528913e-05 0.0000000000000000e+00  -3.6214056275185769e-07 -3.4446277736785070e-05 0.0000000000000000e+00  2.2750134016911150e-06 -7.0489005467352522e-06 0.0000000000000000e+00  2.6996846272525458e-06 -1.6129035057404927e-05 0.0000000000000000e+00  1.6697955354629829e-07 -3.0590396614917060e-05 0.0000000000000000e+00  -1.6724298488060640e-06 -4.2460696867251597e-05 0.0000000000000000e+00  2.7597594300942365e-06 -1.9346303822880968e-05 0.0000000000000000e+00  6.1318098033169582e-07 -2.6859629203495104e-05 0.0000000000000000e+00  -3.8520472882810730e-07 -5.1920462383000756e-07 0.0000000000000000e+00  -4.2138096665692957e-07 4.3159672299172602e-07 0.0000000000000000e+00  -6.6962867484606821e-06 -7.0153290327047997e-05 0.0000000000000000e+00  2.1075760007264326e-0