<?xml version="1.0"?>
<VTKFile type="UnstructuredGrid"  version="0.1"  >
<UnstructuredGrid>
<Piece  NumberOfPoints="1419" NumberOfCells="2698">
<Points>
<DataArray  type="Float64"  NumberOfComponents="3"  format="ascii">0 0 0  0 0.41 0  2.5 0 0  2.5 0.41 0  0.6 0.19 0  0.6 0.21 0  0.25 0.2 0  0.15 0.2 0  0.2489897948556636 0.21 0  0.2489897948556636 0.19 0  0.6 0.2 0  0 0.3807142857143437 0  0 0.3514285714286952 0  0 0.3221428571430699 0  0 0.29285714285744 0  0 0.2635714285718054 0  0 0.2342857142861561 0  0 0.2050000000005308 0  0 0.175714285714732 0  0 0.1464285714289574 0  0 0.1171428571431897 0  0 0.08785714285737878 0  0 0.05857142857161107 0  0 0.02928571428580012 0  0.03015443760436003 0 0  0.06140001986583606 0 0  0.09377624077125973 0 0  0.1273239957535082 0 0  0.1620856860351972 0 0  0.1981052433264291 0 0  0.235428184091502 0 0  0.2741016576309132 0 0  0.3141745521465447 0 0  0.3556974926295285 0 0  0.3987229542472677 0 0  0.4433053055141081 0 0  0.4895008759286886 0 0  0.5373680609405097 0 0  0.5869673343216626 0 0  0.6383613676634521 0 0  0.6916151138468254 0 0  0.7467958595648856 0 0  0.8039733463919316 0 0  0.8632198139502143 0 0  0.9246101326867038 0 0  0.9882218810934433 0 0  1.054135445558498 0 0  1.122434100542598 0 0  1.193204177141305 0 0  1.266535089879536 0 0  1.342519516046404 0 0  1.421253448503939 0 0  1.502836389106271 0 0  1.587371439758838 0 0  1.674965418777374 0 0  1.765729001825544 0 0  1.859776908880082 0 0  1.957227977487062 0 0  2.058205329869943 0 0  2.162836591189951 0 0  2.271253957290865 0 0  2.383594446803425 0 0  2.5 0.1024999999997612 0  2.5 0.2049999999994743 0  2.5 0.3074999999997183 0  2.383594446803656 0.41 0  2.271253957291315 0.41 0  2.162836591190598 0.41 0  2.058205329870775 0.41 0  1.957227977488067 0.41 0  1.859776908881246 0.41 0  1.765729001826854 0.41 0  1.674965418778818 0.41 0  1.58737143976041 0.41 0  1.502836389107956 0.41 0  1.421253448505726 0.41 0  1.342519516048286 0.41 0  1.266535089881505 0.41 0  1.193204177143353 0.41 0  1.122434100544716 0.41 0  1.05413544556068 0.41 0  0.9882218810956305 0.41 0  0.9246101326886647 0.41 0  0.8632198139519631 0.41 0  0.8039733463934788 0.41 0  0.7467958595662458 0.41 0  0.6916151138480078 0.41 0  0.6383613676644679 0.41 0  0.5869673343225223 0.41 0  0.5373680609412221 0.41 0  0.4895008759292634 0.41 0  0.4433053055145528 0.41 0  0.3987229542475914 0.41 0  0.3556974926297398 0.41 0  0.3141745521466497 0.41 0  0.2741016576310038 0.41 0  0.2354281840915826 0.41 0  0.1981052433265003 0.41 0  0.1620856860352591 0.41 0  0.1273239957535623 0.41 0  0.09377624077128965 0.41 0  0.06140001986584975 0.41 0  0.03015443760436654 0.41 0  0.2497468076502589 0.2050254481002335 0  0.2497468076502614 0.1949745518997913 0  0.2469965252529372 0.1829317073451959 0  0.2439893735792749 0.1762316384219906 0  0.2400332147834255 0.1700443375285386 0  0.2352133972704371 0.1645032867342007 0  0.2296339016332438 0.1597280261969788 0  0.2234150974217223 0.1558215752574715 0  0.2166911463437691 0.1528682099456123 0  0.2096071079204251 0.1509316448471593 0  0.2023158100364996 0.1500536585536553 0  0.194974551899914 0.1502531923497262 0  0.1877417105387872 0.1515259415822739 0  0.1807733240461124 0.153844448527136 0  0.1742197252835808 0.15715869474974 0  0.1682222986673531 0.1613971801805478 0  0.162910430003803 0.1664684656256651 0  0.1583987151779087 0.1722631454351573 0  0.1547844879126891 0.178656207771761 0  0.1521457199348551 0.1855097315605723 0  0.1505393388476355 0.1926758619366523 0  0.1505393388476328 0.2073241380633295 0  0.1521457199348437 0.2144902684393899 0  0.1547844879126531 0.221343792228163 0  0.1583987151778488 0.2277368545647528 0  0.1629104300036858 0.2335315343742052 0  0.1682222986671726 0.2386028198193036 0  0.1742197252833576 0.2428413052501257 0  0.1807733240458683 0.2461555514727623 0  0.1877417105384929 0.2484740584176516 0  0.1949745518995776 0.2497468076502398 0  0.202315810036185 0.2499463414463592 0  0.2096071079201568 0.2490683551528932 0  0.2166911463435495 0.2471317900544655 0  0.2234150974215506 0.2441784247426195 0  0.2296339016331197 0.2402719738031125 0  0.2352133972703547 0.2354967132658811 0  0.2400332147833751 0.2299556624715287 0  0.2439893735792577 0.2237683615780412 0  0.246996525252926 0.2170682926548348 0  0.25645809709277 0.21 0  0.2639263993298655 0.21 0  0.271394701566961 0.21 0  0.2788630038040554 0.21 0  0.2863313060411479 0.21 0  0.2937996082782405 0.21 0  0.301267910515333 0.21 0  0.3087362127524279 0.21 0  0.3162045149895234 0.21 0  0.3236728172265972 0.21 0  0.3311411194636928 0.21 0  0.3386094217007701 0.21 0  0.3460777239378666 0.21 0  0.3535460261749672 0.21 0  0.3610143284120516 0.21 0  0.3684826306491596 0.21 0  0.3759509328862226 0.21 0  0.383419235123329 0.21 0  0.3908875373604028 0.21 0  0.3983558395975142 0.21 0  0.4058241418345938 0.21 0  0.4132924440716992 0.21 0  0.4207607463087888 0.21 0  0.4282290485459029 0.21 0  0.4356973507830418 0.21 0  0.4431656530201649 0.21 0  0.4506339552573136 0.21 0  0.4581022574944306 0.21 0  0.4655705597315852 0.21 0  0.4730388619686996 0.21 0  0.480507164205851 0.21 0  0.4879754664429498 0.21 0  0.4954437686800938 0.21 0  0.502912070917267 0.21 0  0.5103803731544119 0.21 0  0.5178486753915261 0.21 0  0.5253169776286404 0.21 0  0.5327852798657868 0.21 0  0.5402535821029386 0.21 0  0.54772188434007 0.21 0  0.5551901865771842 0.21 0  0.5626584888143201 0.21 0  0.5701267910514778 0.21 0  0.5775950932886138 0.21 0  0.5850633955257281 0.21 0  0.5925316977628483 0.21 0  0.6 0.2050000000000054 0  0.6 0.1950000000000217 0  0.5925316977628897 0.19 0  0.5850633955257988 0.19 0  0.5775950932887378 0.19 0  0.5701267910515998 0.19 0  0.5626584888145268 0.19 0  0.5551901865773963 0.19 0  0.547721884340339 0.19 0  0.5402535821032429 0.19 0  0.5327852798661811 0.19 0  0.5253169776290537 0.19 0  0.5178486753919799 0.19 0  0.5103803731549078 0.19 0  0.502912070917822 0.19 0  0.4954437686807294 0.19 0  0.4879754664436223 0.19 0  0.4805071642065402 0.19 0  0.4730388619694271 0.19 0  0.4655705597323621 0.19 0  0.4581022574952563 0.19 0  0.4506339552581777 0.19 0  0.4431656530210671 0.19 0  0.4356973507839815 0.19 0  0.4282290485468779 0.19 0  0.4207607463097617 0.19 0  0.4132924440726327 0.19 0  0.4058241418354857 0.19 0  0.3983558395983636 0.19 0  0.3908875373612097 0.19 0  0.3834192351240934 0.19 0  0.3759509328869369 0.19 0  0.3684826306498175 0.19 0  0.361014328412667 0.19 0  0.3535460261755617 0.19 0  0.3460777239384295 0.19 0  0.3386094217012945 0.19 0  0.3311411194641595 0.19 0  0.3236728172270245 0.19 0  0.3162045149898895 0.19 0  0.3087362127527544 0.19 0  0.3012679105156187 0.19 0  0.2937996082784807 0.19 0  0.2863313060413428 0.19 0  0.2788630038042048 0.19 0  0.2713947015670686 0.19 0  0.2639263993299336 0.19 0  0.2564580970927985 0.19 0  0.2607803159922026 0.2000727136295815 0  0.5887803774232762 0.2001272386983733 0  0.5745072403740523 0.2002044435018727 0  0.5511891430099709 0.2001122610077113 0  0.2751288526855082 0.20000000000002 0  0.5365194309847112 0.1999999999999436 0  0.2894621222999649 0.1998691686390484 0  0.5215828265105155 0.1999999999999228 0  0.3127789816668748 0.1998657885438805 0  0.3274069683451451 0.2000000000000796 0  0.5066462220363641 0.199999999999908 0  0.3650630746574081 0.199866017807523 0  0.476773013087985 0.1999999999998713 0  0.3417402379596385 0.1998691686391011 0  0.3796850840047755 0.200000000000134 0  0.4618364086138087 0.1999999999998546 0  0.4917096175621762 0.1999999999998808 0  0.3946216884789568 0.2000000000001512 0  0.446899804139621 0.1999999999998389 0  0.4089549580935208 0.1998691686391595 0  0.4322718174608562 0.200127451265745 0  0.4201487168029707 0.1999966199048527 0  0.3528922713220932 0.2000185703532356 0  0.5633122436674589 0.1999814296467508 0  0.3006558810093873 0.1999966199048318 0  0.5815926498168407 0.1966545283159175 0  0.2677053789419034 0.1964246479135325 0  0.5290511287476175 0.1970915826863981 0  0.5439877332217911 0.197091582686394 0  0.2825131256993216 0.2035478995978015 0  0.3199386661080599 0.202908417313604 0  0.4842413153250809 0.1970915826863873 0  0.5141145242734466 0.1970915826863843 0  0.3722167817676917 0.2029084173136195 0  0.4693047108508938 0.1970915826863783 0  0.3348752705822316 0.202908417313609 0  0.3871533862418661 0.2029084173136212 0  0.4543681063767183 0.1970915826863795 0  0.4991779197992749 0.1970915826863902 0  0.4020059614928624 0.203547899597858 0  0.4394315019025246 0.1970915826863714 0  0.2550657455369551 0.2034088125358657 0  0.2548908499171161 0.1966940311614271 0  0.5946539510196798 0.2024302972968126 0  0.267698176732111 0.2039977513680092 0  0.4261685417851465 0.196409292431739 0  0.3590076176283495 0.196411355804271 0  0.5571672426447437 0.2036011176410121 0  0.3066757059912147 0.1964092924317024 0  0.594380730180568 0.1966558399668133 0  0.4842413153245942 0.2040749161535287 0  0.4693047108503577 0.2040749161535231 0  0.3871533862424271 0.1959250838464788 0  0.372246743208829 0.1959123236376545 0  0.5141145242731028 0.2040749161535395 0  0.4543681063761134 0.2040749161535186 0  0.4019979587101454 0.1959834479682427 0  0.4394608940728603 0.2040870543693135 0  0.5439623148931173 0.2040856076781014 0  0.5290511287473298 0.2040749161535501 0  0.4991779197988497 0.2040749161535382 0  0.3347912413592433 0.1959225448935183 0  0.3199680582793816 0.1959123018030061 0  0.2825051229162361 0.1959834479681729 0  0.3590471196690275 0.2036304442587945 0  0.5571594006495384 0.1963685282145804 0  0.3067669986803285 0.203627750582736 0  0.4262598344738712 0.2036568242185335 0  0.5814408164431408 0.2041285596160068 0  0.5688286748170428 0.1961819304477386 0  0.4145905603063645 0.2038180695522843 0  0.3473758401724931 0.2038180695522752 0  0.2950977245128307 0.2038180695522663 0  0.5688286748170693 0.203818069552238 0  0.2950977245127906 0.1961819304477774 0  0.3473758401723931 0.1961819304478349 0  0.4145905603061963 0.1961819304479011 0  0.2601812407614425 0.2056861609747042
[...]
<PointData  Vectors="f_40-1"> 
<DataArray  type="Float64"  Name="f_40-1"  NumberOfComponents="3" format="ascii">0.0000000000000000e+00 0.0000000000000000e+00 0.0000000000000000e+00  0.0000000000000000e+00 0.0000000000000000e+00 0.0000000000000000e+00  0.0000000000000000e+00 0.0000000000000000e+00 0.0000000000000000e+00  0.0000000000000000e+00 0.0000000000000000e+00 0.0000000000000000e+00  -1.0620189019916210e-05 -7.2702342633848793e-05 0.0000000000000000e+00  -4.6504573520376947e-06 -7.5102274677638856e-05 0.0000000000000000e+00  0.0000000000000000e+00 0.0000000000000000e+00 0.0000000000000000e+00  0.0000000000000000e+00 0.0000000000000000e+00 0.0000000000000000e+00  0.0000000000000000e+00 0.0000000000000000e+00 0.0000000000000000e+00  0.0000000000000000e+00 0.0000000000000000e+00 0.0000000000000000e+00  -7.8116114433594723e-06 -7.3903086082397531e-05 0.0000000000000000e+00  0.0000000000000000e+00 0.0000000000000000e+00 0.0000000000000000e+00  0.0000000000000000e+00 0.0000000000000000e+00 0.0000000000000000e+00  0.0000000000000000e+00 0.0000000000000000e+00 0.0000000000000000e+00  0.0000000000000000e+00 0.0000000000000000e+00 0.0000000000000000e+00  0.0000000000000000e+00 0.0000000000000000e+00 0.0000000000000000e+00  0.0000000000000000e+00 0.0000000000000000e+00 0.0000000000000000e+00  0.0000000000000000e+00 0.0000000000000000e+00 0.0000000000000000e+00  0.0000000000000000e+00 0.0000000000000000e+00 0.0000000000000000e+00  0.0000000000000000e+00 0.0000000000000000e+00 0.0000000000000000e+00  0.0000000000000000e+00 0.0000000000000000e+00 0.0000000000000000e+00  0.0000000000000000e+00 0.0000000000000000e+00 0.0000000000000000e+00  0.0000000000000000e+00 0.0000000000000000e+00 0.0000000000000000e+00  0.0000000000000000e+00 0.0000000000000000e+00 0.0000000000000000e+00  0.0000000000000000e+00 0.0000000000000000e+00 0.0000000000000000e+00  0.0000000000000000e+00 0.0000000000000000e+00 0.0000000000000000e+00  0.0000000000000000e+00 0.0000000000000000e+00 0.0000000000000000e+00  0.0000000000000000e+00 0.0000000000000000e+00 0.0000000000000000e+00  0.0000000000000000e+00 0.0000000000000000e+00 0.0000000000000000e+00  0.0000000000000000e+00 0.0000000000000000e+00 0.0000000000000000e+00  0.0000000000000000e+00 0.0000000000000000e+00 0.0000000000000000e+00  0.0000000000000000e+00 0.0000000000000000e+00 0.0000000000000000e+00  0.0000000000000000e+00 0.0000000000000000e+00 0.0000000000000000e+00  0.0000000000000000e+00 0.0000000000000000e+00 0.0000000000000000e+00  0.0000000000000000e+00 0.0000000000000000e+00 0.0000000000000000e+00  0.0000000000000000e+00 0.0000000000000000e+00 0.0000000000000000e+00  0.0000000000000000e+00 0.0000000000000000e+00 0.0000000000000000e+00  0.0000000000000000e+00 0.0000000000000000e+00 0.0000000000000000e+00  0.0000000000000000e+00 0.0000000000000000e+00 0.0000000000000000e+00  0.0000000000000000e+00 0.0000000000000000e+00 0.0000000000000000e+00  0.0000000000000000e+00 0.0000000000000000e+00 0.0000000000000000e+00  0.0000000000000000e+00 0.0000000000000000e+00 0.0000000000000000e+00  0.0000000000000000e+00 0.0000000000000000e+00 0.0000000000000000e+00  0.0000000000000000e+00 0.0000000000000000e+00 0.0000000000000000e+00  0.0000000000000000e+00 0.0000000000000000e+00 0.0000000000000000e+00  0.0000000000000000e+00 0.0000000000000000e+00 0.0000000000000000e+00  0.0000000000000000e+00 0.0000000000000000e+00 0.0000000000000000e+00  0.0000000000000000e+00 0.0000000000000000e+00 0.0000000000000000e+00  0.0000000000000000e+00 0.0000000000000000e+00 0.0000000000000000e+00  0.0000000000000000e+00 0.0000000000000000e+00 0.0000000000000000e+00  0.0000000000000000e+00 0.0000000000000000e+00 0.0000000000000000e+00  0.0000000000000000e+00 0.0000000000000000e+00 0.0000000000000000e+00  0.0000000000000000e+00 0.0000000000000000e+00 0.0000000000000000e+00  0.0000000000000000e+00 0.0000000000000000e+00 0.0000000000000000e+00  0.0000000000000000e+00 0.0000000000000000e+00 0.0000000000000000e+00  0.0000000000000000e+00 0.0000000000000000e+00 0.0000000000000000e+00  0.0000000000000000e+00 0.0000000000000000e+00 0.0000000000000000e+00  0.0000000000000000e+00 0.0000000000000000e+00 0.0000000000000000e+00  0.0000000000000000e+00 0.0000000000000000e+00 0.0000000000000000e+00  0.0000000000000000e+00 0.0000000000000000e+00 0.0000000000000000e+00  0.0000000000000000e+00 0.0000000000000000e+00 0.0000000000000000e+00  0.0000000000000000e+00 0.0000000000000000e+00 0.0000000000000000e+00  0.0000000000000000e+00 0.0000000000000000e+00 0.0000000000000000e+00  0.0000000000000000e+00 0.0000000000000000e+00 0.0000000000000000e+00  0.0000000000000000e+00 0.0000000000000000e+00 0.0000000000000000e+00  0.0000000000000000e+00 0.0000000000000000e+00 0.0000000000000000e+00  0.0000000000000000e+00 0.0000000000000000e+00 0.0000000000000000e+00  0.0000000000000000e+00 0.0000000000000000e+00 0.0000000000000000e+00  0.0000000000000000e+00 0.0000000000000000e+00 0.0000000000000000e+00  0.0000000000000000e+00 0.0000000000000000e+00 0.0000000000000000e+00  0.0000000000000000e+00 0.0000000000000000e+00 0.0000000000000000e+00  0.0000000000000000e+00 0.0000000000000000e+00 0.0000000000000000e+00  0.0000000000000000e+00 0.0000000000000000e+00 0.0000000000000000e+00  0.0000000000000000e+00 0.0000000000000000e+00 0.0000000000000000e+00  0.0000000000000000e+00 0.0000000000000000e+00 0.0000000000000000e+00  0.0000000000000000e+00 0.0000000000000000e+00 0.0000000000000000e+00  0.0000000000000000e+00 0.0000000000000000e+00 0.0000000000000000e+00  0.0000000000000000e+00 0.0000000000000000e+00 0.0000000000000000e+00  0.0000000000000000e+00 0.0000000000000000e+00 0.0000000000000000e+00  0.0000000000000000e+00 0.0000000000000000e+00 0.0000000000000000e+00  0.0000000000000000e+00 0.0000000000000000e+00 0.0000000000000000e+00  0.0000000000000000e+00 0.0000000000000000e+00 0.0000000000000000e+00  0.0000000000000000e+00 0.0000000000000000e+00 0.0000000000000000e+00  0.0000000000000000e+00 0.0000000000000000e+00 0.0000000000000000e+00  0.0000000000000000e+00 0.0000000000000000e+00 0.0000000000000000e+00  0.0000000000000000e+00 0.0000000000000000e+00 0.0000000000000000e+00  0.0000000000000000e+00 0.0000000000000000e+00 0.0000000000000000e+00  0.0000000000000000e+00 0.0000000000000000e+00 0.0000000000000000e+00  0.0000000000000000e+00 0.0000000000000000e+00 0.0000000000000000e+00  0.0000000000000000e+00 0.0000000000000000e+00 0.0000000000000000e+00  0.0000000000000000e+00 0.0000000000000000e+00 0.0000000000000000e+00  0.0000000000000000e+00 0.0000000000000000e+00 0.0000000000000000e+00  0.0000000000000000e+00 0.0000000000000000e+00 0.0000000000000000e+00  0.0000000000000000e+00 0.0000000000000000e+00 0.0000000000000000e+00  0.0000000000000000e+00 0.0000000000000000e+00 0.0000000000000000e+00  0.0000000000000000e+00 0.0000000000000000e+00 0.0000000000000000e+00  0.0000000000000000e+00 0.0000000000000000e+00 0.0000000000000000e+00  0.0000000000000000e+00 0.0000000000000000e+00 0.0000000000000000e+00  0.0000000000000000e+00 0.0000000000000000e+00 0.0000000000000000e+00  0.0000000000000000e+00 0.0000000000000000e+00 0.0000000000000000e+00  0.0000000000000000e+00 0.0000000000000000e+00 0.0000000000000000e+00  0.0000000000000000e+00 0.0000000000000000e+00 0.0000000000000000e+00  0.0000000000000000e+00 0.0000000000000000e+00 0.0000000000000000e+00  0.0000000000000000e+00 0.0000000000000000e+00 0.0000000000000000e+00  0.0000000000000000e+00 0.0000000000000000e+00 0.0000000000000000e+00  0.0000000000000000e+00 0.0000000000000000e+00 0.0000000000000000e+00  0.0000000000000000e+00 0.0000000000000000e+00 0.0000000000000000e+00  0.0000000000000000e+00 0.0000000000000000e+00 0.0000000000000000e+00  0.0000000000000000e+00 0.0000000000000000e+00 0.0000000000000000e+00  0.0000000000000000e+00 0.0000000000000000e+00 0.0000000000000000e+00  0.0000000000000000e+00 0.0000000000000000e+00 0.0000000000000000e+00  0.0000000000000000e+00 0.0000000000000000e+00 0.0000000000000000e+00  0.0000000000000000e+00 0.0000000000000000e+00 0.0000000000000000e+00  0.0000000000000000e+00 0.0000000000000000e+00 0.0000000000000000e+00  0.0000000000000000e+00 0.0000000000000000e+00 0.0000000000000000e+00  0.0000000000000000e+00 0.0000000000000000e+00 0.0000000000000000e+00  0.0000000000000000e+00 0.0000000000000000e+00 0.0000000000000000e+00  0.0000000000000000e+00 0.0000000000000000e+00 0.0000000000000000e+00  0.0000000000000000e+00 0.0000000000000000e+00 0.0000000000000000e+00  0.0000000000000000e+00 0.0000000000000000e+00 0.0000000000000000e+00  0.0000000000000000e+00 0.0000000000000000e+00 0.0000000000000000e+00  0.0000000000000000e+00 0.0000000000000000e+00 0.0000000000000000e+00  0.0000000000000000e+00 0.0000000000000000e+00 0.0000000000000000e+00  0.0000000000000000e+00 0.0000000000000000e+00 0.0000000000000000e+00  0.0000000000000000e+00 0.0000000000000000e+00 0.0000000000000000e+00  0.0000000000000000e+00 0.0000000000000000e+00 0.0000000000000000e+00  0.0000000000000000e+00 0.0000000000000000e+00 0.0000000000000000e+00  0.0000000000000000e+00 0.0000000000000000e+00 0.0000000000000000e+00  0.0000000000000000e+00 0.0000000000000000e+00 0.0000000000000000e+00  0.0000000000000000e+00 0.0000000000000000e+00 0.0000000000000000e+00  0.0000000000000000e+00 0.0000000000000000e+00 0.0000000000000000e+00  0.0000000000000000e+00 0.0000000000000000e+00 0.0000000000000000e+00  0.0000000000000000e+00 0.0000000000000000e+00 0.0000000000000000e+00  0.0000000000000000e+00 0.0000000000000000e+00 0.0000000000000000e+00  0.0000000000000000e+00 0.0000000000000000e+00 0.0000000000000000e+00  0.0000000000000000e+00 0.0000000000000000e+00 0.0000000000000000e+00  0.0000000000000000e+00 0.0000000000000000e+00 0.0000000000000000e+00  0.0000000000000000e+00 0.0000000000000000e+00 0.0000000000000000e+00  0.0000000000000000e+00 0.0000000000000000e+00 0.0000000000000000e+00  0.0000000000000000e+00 0.0000000000000000e+00 0.0000000000000000e+00  0.0000000000000000e+00 0.0000000000000000e+00 0.0000000000000000e+00  0.0000000000000000e+00 0.0000000000000000e+00 0.0000000000000000e+00  0.0000000000000000e+00 0.0000000000000000e+00 0.0000000000000000e+00  1.4999999825199965e-07 -2.1992510522844376e-06 0.0000000000000000e+00  3.8519199466987633e-07 -2.5127585764699394e-06 0.0000000000000000e+00  7.1319949575988128e-07 -2.8113883619088777e-06 0.0000000000000000e+00  1.1023696347204301e-06 -3.1534569081128031e-06 0.0000000000000000e+00  1.4780374801648566e-06 -3.5892997272975496e-06 0.0000000000000000e+00  1.8530364099701635e-06 -4.1500985815175720e-06 0.0000000000000000e+00  2.1859972954970058e-06 -4.7877286784390256e-06 0.0000000000000000e+00  2.4929930542207695e-06 -5.5324050230493802e-06 0.0000000000000000e+00  2.8046357866749889e-06 -6.3604557549991437e-06 0.0000000000000000e+00  3.0603080851543973e-06 -7.2689656614249133e-06 0.0000000000000000e+00  3.3214732743332652e-06 -8.2733595848858764e-06 0.0000000000000000e+00  3.5285318927011779e-06 -9.3468518029618717e-06 0.0000000000000000e+00  3.7310559605592409e-06 -1.0503750112609751e-05 0.0000000000000000e+00  3.8926357349147041e-06 -1.1726189822601320e-05 0.0000000000000000e+00  4.0260909030118619e-06 -1.3024115375080784e-05 0.0000000000000000e+00  4.1566751342302745e-06 -1.4388896951016751e-05 0.0000000000000000e+00  4.2372506409726680e-06 -1.5805393395179776e-05 0.0000000000000000e+00  4.3128480514993432e-06 -1.7298333212600669e-05 0.0000000000000000e+00  4.3421850735749000e-06 -1.8831659061325079e-05 0.0000000000000000e+00  4.3648512478440287e-06 -2.0432808109797510e-05 0.0000000000000000e+00  4.3473808573044020e-06 -2.2071260467846997e-05 0.0000000000000000e+00  4.3125989114365523e-06 -2.3768342532089528e-05 0.0000000000000000e+00  4.2472058907919247e-06 -2.5504289147213587e-05 0.0000000000000000e+00  4.1539905427500860e-06 -2.7284872395250686e-05 0.0000000000000000e+00  4.0505639756352816e-06 -2.9107737543365456e-05 0.0000000000000000e+00  3.9110908113528836e-06 -3.0958761481355101e-05 0.0000000000000000e+00  3.7482304472057616e-06 -3.2862569220628591e-05 0.0000000000000000e+00  3.5588032197682039e-06 -3.4782210107116337e-05 0.0000000000000000e+00  3.3457401580551573e-06 -3.6747873018938485e-05 0.0000000000000000e+00  3.1062845067069080e-06 -3.8728644170777530e-05 0.0000000000000000e+00  2.8441917297132943e-06 -4.0748683495185963e-05 0.0000000000000000e+00  2.5542146713274096e-06 -4.2779177571760422e-05 0.0000000000000000e+00  2.2434179441418249e-06 -4.4846107016450982e-05 0.0000000000000000e+00  1.9040778388444897e-06 -4.6916337817733472e-05 0.0000000000000000e+00  1.5399964615228019e-06 -4.9022179509392850e-05 0.0000000000000000e+00  1.1509711831480112e-06 -5.1128803912356107e-05 0.0000000000000000e+00  7.3880936187821392e-07 -5.3263888714824098e-05 0.0000000000000000e+00  3.0093630617802890e-07 -5.5397520796043814e-05 0.0000000000000000e+00  -1.6138719704081750e-07 -5.7555593893152945e-05 0.0000000000000000e+00  -6.5075112496274922e-07 -5.9710030329722433e-05 0.0000000000000000e+00  -1.1662462434586411e-06 -6.1880963227598415e-05 0.0000000000000000e+00  -1.7035909638724459e-06 -6.4051952923229949e-05 0.0000000000000000e+00  -2.2699259832314424e-06 -6.6232291865905480e-05 0.0000000000000000e+00  -2.8504778340221511e-06 -6.8413679877684326e-05 0.0000000000000000e+00  -3.4599472785538235e-06 -7.0590204749690523e-05 0.0000000000000000e+00  -4.0754191292649420e-06 -7.2792421314172762e-05 0.0000000000000000e+00  -6.2923973548754022e-06 -7.4497548831145314e-05 0.0000000000000000e+00  -9.2665179960573507e-06 -7.3309130571224499e-05 0.0000000000000000e+00  -1.0030541243431566e-05 -7.0563181736423336e-05 0.0000000000000000e+00  -9.4036261230626763e-06 -6.8316439421188484e-05 0.0000000000000000e+00  -8.7821777705402978e-06 -6.6058443144711976e-05 0.0000000000000000e+00  -8.1864738817632545e-06 -6.3813675070622240e-05 0.0000000000000000e+00  -7.6056023785332661e-06 -6.1573890380219208e-05 0.0000000000000000e+00  -7.0528464612613862e-06 -5.9341191514862217e-05 0.0000000000000000e+00  -6.5153715905360888e-06 -5.7117140176350212e-05 0.0000000000000000e+00  -6.0051128328681786e-06 -5.4895483677034787e-05 0.0000000000000000e+00  -5.5118505199541567e-06 -5.2694208660158651e-05 0.0000000000000000e+00  -5.0435980928673233e-06 -5.0491822135501138e-05 0.0000000000000000e+00  -4.5913896929052267e-06 -4.8313887437099605e-05 0.0000000000000000e+00  -4.1647189275840079e-06 -4.6138790141878295e-05 0.0000000000000000e+00  -3.7522942367957319e-06 -4.3991954112158630e-05 0.0000000000000000e+00  -3.3656964326407728e-06 -4.1851734479695477e-05 0.0000000000000000e+00  -2.9916991678475311e-06 -3.9743757594527492e-05 0.0000000000000000e+00  -2.6446906416094784e-06 -3.7646295701544256e-05 0.0000000000000000e+00  -2.3085887891964364e-06 -3.5584024593207974e-05 0.0000000000000000e+00  -2.0012394453570373e-06 -3.3536325487955523e-05 0.0000000000000000e+00  -1.7031503177617748e-06 -3.1529551485120526e-05 0.0000000000000000e+00  -1.4343127140615663e-06 -2.9542399096693965e-05 0.0000000000000000e+00  -1.1723508594812883e-06 -2.7600227349046219e-05 0.0000000000000000e+00  -9.4142653639980497e-07 -2.5682845677621337e-05 0.0000000000000000e+00  -7.1971887549588764e-07 -2.3810531564427120e-05 0.0000000000000000e+00  -5.2272929366534803e-07 -2.1973444205366986e-05 0.0000000000000000e+00  -3.4954685241735814e-07 -2.0185359770424261e-05 0.0000000000000000e+00  -1.7715933117761197e-07 -1.8437750021200328e-05 0.0000000000000000e+00  -3.5229086971580657e-08 -1.6734917441623586e-05 0.0000000000000000e+00  9.5211632700606303e-08 -1.5094565659993724e-05 0.0000000000000000e+00  2.0142506528273247e-07 -1.3493986609830562e-05 0.0000000000000000e+00  2.9502490356834630e-07 -1.1964014679043596e-05 0.0000000000000000e+00  3.6498961551849065e-07 -1.0477967407634996e-05 0.0000000000000000e+00  4.2714274145987085e-07 -9.0729025408354797e-06 0.0000000000000000e+00  4.6229955350309974e-07 -7.7172730056074048e-06 0.0000000000000000e+00  4.7566596414774350e-07 -6.4467556357989841e-06 0.0000000000000000e+00  4.9443932430796965e-07 -5.2336973120631615e-06 0.0000000000000000e+00  4.8158471341239324e-07 -4.1028298191791896e-06 0.0000000000000000e+00  4.5976205811985811e-07 -3.0597990555114863e-06 0.0000000000000000e+00  4.1319444186985876e-07 -2.0894552441313032e-06 0.0000000000000000e+00  3.6444036768763099e-07 -1.2214926199280949e-06 0.0000000000000000e+00  2.8428190410510310e-07 -4.2796627298878514e-07 0.0000000000000000e+00  1.8330065815942554e-07 2.5588010485490728e-07 0.0000000000000000e+00  9.6708485126260724e-08 8.5747354535543886e-07 0.0000000000000000e+00  -2.5270840174740558e-08 1.3683251794194091e-06 0.0000000000000000e+00  -1.1346648861062444e-07 1.7663834830927449e-06 0.0000000000000000e+00  -1.7765987666348651e-07 1.9904697924107127e-06 0.0000000000000000e+00  -1.1887352685579414e-07 1.9819640173185543e-06 0.0000000000000000e+00  -3.3605632092139391e-07 -1.2018109971671044e-07 0.0000000000000000e+00  -6.7635908738990028e-06 -7.0570893960665947e-05 0.0000000000000000e+00  -5.5274102039918718e-06 -6.6340502740503109e-05 0.0000000000000000e+00  -3.8088311151238639e-06 -5.9442046652904743e-05 0.0000000000000000e+00  3.9753494134387385e-07 -6.2709238167815448e-07 0.0000000000000000e+00  -2.8630638510504700e-06 -5.5127316282243460e-05 0.0000000000000000e+00  8.6808868943897434e-07 -1.5009004731497817e-06 0.0000000000000000e+00  -1.9544230333805015e-06 -5.0788819670859448e-05 0.0000000000000000e+00  1.4977310427828592e-06 -3.7375467553590798e-06 0.0000000000000000e+00  1.8143472413133568e-06 -5.6131803903694098e-06 0.0000000000000000e+00  -1.1363498191712546e-06 -4.6504262460390925e-05 0.0000000000000000e+00  2.2065697748091321e-06 -1.1722004059214525e-05 0.0000000000000000e+00  2.3129388673015401e-07 -3.8157022642123427e-05 0.0000000000000000e+00  2.0179044937172695e-06 -7.6994915373455825e-06 0.0000000000000000e+00  2.2444173422840310e-06 -1.4595382439644430e-05 0.0000000000000000e+00  7.8224492551659737e-07 -3.4126123705352634e-05 0.0000000000000000e+00  -4.0794847139392782e-07 -4.2288309978268896e-05 0.0000000000000000e+00  2.1753258087580985e-06 -1.7732065503843508e-05 0.0000000000000000e+00  1.2449246435811551e-06 -3.0214636551088538e-05 0.0000000000000000e+00  1.9993374633727302e-06 -2.0914624945157347e-05 0.0000000000000000e+00  1.6471809537760843e-06 -2.6538767898232739e-05 0.0000000000000000e+00  1.8483702261185602e-06 -2.3571095507951599e-05 0.0000000000000000e+00  2.1516608604815454e-06 -9.5796172327098767e-06 0.0000000000000000e+00  -4.7351670984288247e-06 -6.3001061738145563e-05 0.0000000000000000e+00  1.1969775777928904e-06 -2.5040954916297700e-06 0.0000000000000000e+00  -7.1676923908753413e-06 -6.8037509543668041e-05 0.0000000000000000e+00  -4.7168327625114204e-08 5.3384167003230133e-07 0.0000000000000000e+00  -3.2403253984349880e-06 -5.2555326438900007e-05 0.0000000000000000e+00  -4.2023020467180133e-06 -5.6931302381329829e-05 0.0000000000000000e+00  8.7234790872415783e-07 -1.8507206627158846e-06 0.0000000000000000e+00  2.0334338070148318e-06 -5.2530192040371544e-06 0.0000000000000000e+00  -8.7949168360748654e-07 -3.9767120563966607e-05 0.0000000000000000e+00  -2.3663760939851831e-06 -4.8226070600232273e-05 0.0000000000000000e+00  2.8101799479390000e-06 -1.3680631273883459e-05 0.0000000000000000e+00  -2.6446629883694585e-07 -3.5668156451306667e-05 0.0000000000000000e+00  2.3647398961448404e-06 -7.2879075492025200e-06 0.0000000000000000e+00  2.8273221384088963e-06 -1.6690162846197038e-05 0.0000000000000000e+00  2.6534503790632682e-07 -3.1679187353343708e-05 0.0000000000000000e+00  -1.5798940841623379e-06 -4.3957979622098080e-05 0.0000000000000000e+00  2.8996083589389980e-06 -2.0018026084905490e-05 0.0000000000000000e+00  7.1100245493442129e-07 -2.7819257611427279e-05 0.0000000000000000e+00  -3.8630303253594940e-07 -5.2619367292097528e-07 0.0000000000000000e+00  -4.2404899996319537e-07 4.3658981322109649e-07 0.0000000000000000e+00  -6.6046554052525746e-06 -7.2578452775557087e-05 0.0000000000000000e+00  2.2736530779840532e-0