<?xml version="1.0"?>
<VTKFile type="UnstructuredGrid"  version="0.1"  >
<UnstructuredGrid>
<Piece  NumberOfPoints="1419" NumberOfCells="2698">
<Points>
<DataArray  type="Float64"  NumberOfComponents="3"  format="ascii">0 0 0  0 0.41 0  2.5 0 0  2.5 0.41 0  0.6 0.19 0  0.6 0.21 0  0.25 0.2 0  0.15 0.2 0  0.2489897948556636 0.21 0  0.2489897948556636 0.19 0  0.6 0.2 0  0 0.3807142857143437 0  0 0.3514285714286952 0  0 0.3221428571430699 0  0 0.29285714285744 0  0 0.2635714285718054 0  0 0.2342857142861561 0  0 0.2050000000005308 0  0 0.175714285714732 0  0 0.1464285714289574 0  0 0.1171428571431897 0  0 0.08785714285737878 0  0 0.05857142857161107 0  0 0.02928571428580012 0  0.03015443760436003 0 0  0.06140001986583606 0 0  0.09377624077125973 0 0  0.1273239957535082 0 0  0.1620856860351972 0 0  0.1981052433264291 0 0  0.235428184091502 0 0  0.2741016576309132 0 0  0.3141745521465447 0 0  0.3556974926295285 0 0  0.3987229542472677 0 0  0.4433053055141081 0 0  0.4895008759286886 0 0  0.5373680609405097 0 0  0.5869673343216626 0 0  0.6383613676634521 0 0  0.6916151138468254 0 0  0.7467958595648856 0 0  0.8039733463919316 0 0  0.8632198139502143 0 0  0.9246101326867038 0 0  0.9882218810934433 0 0  1.054135445558498 0 0  1.122434100542598 0 0  1.193204177141305 0 0  1.266535089879536 0 0  1.342519516046404 0 0  1.421253448503939 0 0  1.502836389106271 0 0  1.587371439758838 0 0  1.674965418777374 0 0  1.765729001825544 0 0  1.859776908880082 0 0  1.957227977487062 0 0  2.058205329869943 0 0  2.162836591189951 0 0  2.271253957290865 0 0  2.383594446803425 0 0  2.5 0.1024999999997612 0  2.5 0.2049999999994743 0  2.5 0.3074999999997183 0  2.383594446803656 0.41 0  2.271253957291315 0.41 0  2.162836591190598 0.41 0  2.058205329870775 0.41 0  1.957227977488067 0.41 0  1.859776908881246 0.41 0  1.765729001826854 0.41 0  1.674965418778818 0.41 0  1.58737143976041 0.41 0  1.502836389107956 0.41 0  1.421253448505726 0.41 0  1.342519516048286 0.41 0  1.266535089881505 0.41 0  1.193204177143353 0.41 0  1.122434100544716 0.41 0  1.05413544556068 0.41 0  0.9882218810956305 0.41 0  0.9246101326886647 0.41 0  0.8632198139519631 0.41 0  0.8039733463934788 0.41 0  0.7467958595662458 0.41 0  0.6916151138480078 0.41 0  0.6383613676644679 0.41 0  0.5869673343225223 0.41 0  0.5373680609412221 0.41 0  0.4895008759292634 0.41 0  0.4433053055145528 0.41 0  0.3987229542475914 0.41 0  0.3556974926297398 0.41 0  0.3141745521466497 0.41 0  0.2741016576310038 0.41 0  0.2354281840915826 0.41 0  0.1981052433265003 0.41 0  0.1620856860352591 0.41 0  0.1273239957535623 0.41 0  0.09377624077128965 0.41 0  0.06140001986584975 0.41 0  0.03015443760436654 0.41 0  0.2497468076502589 0.2050254481002335 0  0.2497468076502614 0.1949745518997913 0  0.2469965252529372 0.1829317073451959 0  0.2439893735792749 0.1762316384219906 0  0.2400332147834255 0.1700443375285386 0  0.2352133972704371 0.1645032867342007 0  0.2296339016332438 0.1597280261969788 0  0.2234150974217223 0.1558215752574715 0  0.2166911463437691 0.1528682099456123 0  0.2096071079204251 0.1509316448471593 0  0.2023158100364996 0.1500536585536553 0  0.194974551899914 0.1502531923497262 0  0.1877417105387872 0.1515259415822739 0  0.1807733240461124 0.153844448527136 0  0.1742197252835808 0.15715869474974 0  0.1682222986673531 0.1613971801805478 0  0.162910430003803 0.1664684656256651 0  0.1583987151779087 0.1722631454351573 0  0.1547844879126891 0.178656207771761 0  0.1521457199348551 0.1855097315605723 0  0.1505393388476355 0.1926758619366523 0  0.1505393388476328 0.2073241380633295 0  0.1521457199348437 0.2144902684393899 0  0.1547844879126531 0.221343792228163 0  0.1583987151778488 0.2277368545647528 0  0.1629104300036858 0.2335315343742052 0  0.1682222986671726 0.2386028198193036 0  0.1742197252833576 0.2428413052501257 0  0.1807733240458683 0.2461555514727623 0  0.1877417105384929 0.2484740584176516 0  0.1949745518995776 0.2497468076502398 0  0.202315810036185 0.2499463414463592 0  0.2096071079201568 0.2490683551528932 0  0.2166911463435495 0.2471317900544655 0  0.2234150974215506 0.2441784247426195 0  0.2296339016331197 0.2402719738031125 0  0.2352133972703547 0.2354967132658811 0  0.2400332147833751 0.2299556624715287 0  0.2439893735792577 0.2237683615780412 0  0.246996525252926 0.2170682926548348 0  0.25645809709277 0.21 0  0.2639263993298655 0.21 0  0.271394701566961 0.21 0  0.2788630038040554 0.21 0  0.2863313060411479 0.21 0  0.2937996082782405 0.21 0  0.301267910515333 0.21 0  0.3087362127524279 0.21 0  0.3162045149895234 0.21 0  0.3236728172265972 0.21 0  0.3311411194636928 0.21 0  0.3386094217007701 0.21 0  0.3460777239378666 0.21 0  0.3535460261749672 0.21 0  0.3610143284120516 0.21 0  0.3684826306491596 0.21 0  0.3759509328862226 0.21 0  0.383419235123329 0.21 0  0.3908875373604028 0.21 0  0.3983558395975142 0.21 0  0.4058241418345938 0.21 0  0.4132924440716992 0.21 0  0.4207607463087888 0.21 0  0.4282290485459029 0.21 0  0.4356973507830418 0.21 0  0.4431656530201649 0.21 0  0.4506339552573136 0.21 0  0.4581022574944306 0.21 0  0.4655705597315852 0.21 0  0.4730388619686996 0.21 0  0.480507164205851 0.21 0  0.4879754664429498 0.21 0  0.4954437686800938 0.21 0  0.502912070917267 0.21 0  0.5103803731544119 0.21 0  0.5178486753915261 0.21 0  0.5253169776286404 0.21 0  0.5327852798657868 0.21 0  0.5402535821029386 0.21 0  0.54772188434007 0.21 0  0.5551901865771842 0.21 0  0.5626584888143201 0.21 0  0.5701267910514778 0.21 0  0.5775950932886138 0.21 0  0.5850633955257281 0.21 0  0.5925316977628483 0.21 0  0.6 0.2050000000000054 0  0.6 0.1950000000000217 0  0.5925316977628897 0.19 0  0.5850633955257988 0.19 0  0.5775950932887378 0.19 0  0.5701267910515998 0.19 0  0.5626584888145268 0.19 0  0.5551901865773963 0.19 0  0.547721884340339 0.19 0  0.5402535821032429 0.19 0  0.5327852798661811 0.19 0  0.5253169776290537 0.19 0  0.5178486753919799 0.19 0  0.5103803731549078 0.19 0  0.502912070917822 0.19 0  0.4954437686807294 0.19 0  0.4879754664436223 0.19 0  0.4805071642065402 0.19 0  0.4730388619694271 0.19 0  0.4655705597323621 0.19 0  0.4581022574952563 0.19 0  0.4506339552581777 0.19 0  0.4431656530210671 0.19 0  0.4356973507839815 0.19 0  0.4282290485468779 0.19 0  0.4207607463097617 0.19 0  0.4132924440726327 0.19 0  0.4058241418354857 0.19 0  0.3983558395983636 0.19 0  0.3908875373612097 0.19 0  0.3834192351240934 0.19 0  0.3759509328869369 0.19 0  0.3684826306498175 0.19 0  0.361014328412667 0.19 0  0.3535460261755617 0.19 0  0.3460777239384295 0.19 0  0.3386094217012945 0.19 0  0.3311411194641595 0.19 0  0.3236728172270245 0.19 0  0.3162045149898895 0.19 0  0.3087362127527544 0.19 0  0.3012679105156187 0.19 0  0.2937996082784807 0.19 0  0.2863313060413428 0.19 0  0.2788630038042048 0.19 0  0.2713947015670686 0.19 0  0.2639263993299336 0.19 0  0.2564580970927985 0.19 0  0.2607803159922026 0.2000727136295815 0  0.5887803774232762 0.2001272386983733 0  0.5745072403740523 0.2002044435018727 0  0.5511891430099709 0.2001122610077113 0  0.2751288526855082 0.20000000000002 0  0.5365194309847112 0.1999999999999436 0  0.2894621222999649 0.1998691686390484 0  0.5215828265105155 0.1999999999999228 0  0.3127789816668748 0.1998657885438805 0  0.3274069683451451 0.2000000000000796 0  0.5066462220363641 0.199999999999908 0  0.3650630746574081 0.199866017807523 0  0.476773013087985 0.1999999999998713 0  0.3417402379596385 0.1998691686391011 0  0.3796850840047755 0.200000000000134 0  0.4618364086138087 0.1999999999998546 0  0.4917096175621762 0.1999999999998808 0  0.3946216884789568 0.2000000000001512 0  0.446899804139621 0.1999999999998389 0  0.4089549580935208 0.1998691686391595 0  0.4322718174608562 0.200127451265745 0  0.4201487168029707 0.1999966199048527 0  0.3528922713220932 0.2000185703532356 0  0.5633122436674589 0.1999814296467508 0  0.3006558810093873 0.1999966199048318 0  0.5815926498168407 0.1966545283159175 0  0.2677053789419034 0.1964246479135325 0  0.5290511287476175 0.1970915826863981 0  0.5439877332217911 0.197091582686394 0  0.2825131256993216 0.2035478995978015 0  0.3199386661080599 0.202908417313604 0  0.4842413153250809 0.1970915826863873 0  0.5141145242734466 0.1970915826863843 0  0.3722167817676917 0.2029084173136195 0  0.4693047108508938 0.1970915826863783 0  0.3348752705822316 0.202908417313609 0  0.3871533862418661 0.2029084173136212 0  0.4543681063767183 0.1970915826863795 0  0.4991779197992749 0.1970915826863902 0  0.4020059614928624 0.203547899597858 0  0.4394315019025246 0.1970915826863714 0  0.2550657455369551 0.2034088125358657 0  0.2548908499171161 0.1966940311614271 0  0.5946539510196798 0.2024302972968126 0  0.267698176732111 0.2039977513680092 0  0.4261685417851465 0.196409292431739 0  0.3590076176283495 0.196411355804271 0  0.5571672426447437 0.2036011176410121 0  0.3066757059912147 0.1964092924317024 0  0.594380730180568 0.1966558399668133 0  0.4842413153245942 0.2040749161535287 0  0.4693047108503577 0.2040749161535231 0  0.3871533862424271 0.1959250838464788 0  0.372246743208829 0.1959123236376545 0  0.5141145242731028 0.2040749161535395 0  0.4543681063761134 0.2040749161535186 0  0.4019979587101454 0.1959834479682427 0  0.4394608940728603 0.2040870543693135 0  0.5439623148931173 0.2040856076781014 0  0.5290511287473298 0.2040749161535501 0  0.4991779197988497 0.2040749161535382 0  0.3347912413592433 0.1959225448935183 0  0.3199680582793816 0.1959123018030061 0  0.2825051229162361 0.1959834479681729 0  0.3590471196690275 0.2036304442587945 0  0.5571594006495384 0.1963685282145804 0  0.3067669986803285 0.203627750582736 0  0.4262598344738712 0.2036568242185335 0  0.5814408164431408 0.2041285596160068 0  0.5688286748170428 0.1961819304477386 0  0.4145905603063645 0.2038180695522843 0  0.3473758401724931 0.2038180695522752 0  0.2950977245128307 0.2038180695522663 0  0.5688286748170693 0.203818069552238 0  0.2950977245127906 0.1961819304477774 0  0.3473758401723931 0.1961819304478349 0  0.4145905603061963 0.1961819304479011 0  0.2601812407614425 0.2056861609747042
[...]
<PointData  Vectors="f_40-1"> 
<DataArray  type="Float64"  Name="f_40-1"  NumberOfComponents="3" format="ascii">0.0000000000000000e+00 0.0000000000000000e+00 0.0000000000000000e+00  0.0000000000000000e+00 0.0000000000000000e+00 0.0000000000000000e+00  0.0000000000000000e+00 0.0000000000000000e+00 0.0000000000000000e+00  0.0000000000000000e+00 0.0000000000000000e+00 0.0000000000000000e+00  -1.0801102533850887e-05 -9.0252780251125959e-05 0.0000000000000000e+00  -3.4415990999185501e-06 -9.2816245434236384e-05 0.0000000000000000e+00  0.0000000000000000e+00 0.0000000000000000e+00 0.0000000000000000e+00  0.0000000000000000e+00 0.0000000000000000e+00 0.0000000000000000e+00  0.0000000000000000e+00 0.0000000000000000e+00 0.0000000000000000e+00  0.0000000000000000e+00 0.0000000000000000e+00 0.0000000000000000e+00  -7.3163746299422210e-06 -9.1535147701358722e-05 0.0000000000000000e+00  0.0000000000000000e+00 0.0000000000000000e+00 0.0000000000000000e+00  0.0000000000000000e+00 0.0000000000000000e+00 0.0000000000000000e+00  0.0000000000000000e+00 0.0000000000000000e+00 0.0000000000000000e+00  0.0000000000000000e+00 0.0000000000000000e+00 0.0000000000000000e+00  0.0000000000000000e+00 0.0000000000000000e+00 0.0000000000000000e+00  0.0000000000000000e+00 0.0000000000000000e+00 0.0000000000000000e+00  0.0000000000000000e+00 0.0000000000000000e+00 0.0000000000000000e+00  0.0000000000000000e+00 0.0000000000000000e+00 0.0000000000000000e+00  0.0000000000000000e+00 0.0000000000000000e+00 0.0000000000000000e+00  0.0000000000000000e+00 0.0000000000000000e+00 0.0000000000000000e+00  0.0000000000000000e+00 0.0000000000000000e+00 0.0000000000000000e+00  0.0000000000000000e+00 0.0000000000000000e+00 0.0000000000000000e+00  0.0000000000000000e+00 0.0000000000000000e+00 0.0000000000000000e+00  0.0000000000000000e+00 0.0000000000000000e+00 0.0000000000000000e+00  0.0000000000000000e+00 0.0000000000000000e+00 0.0000000000000000e+00  0.0000000000000000e+00 0.0000000000000000e+00 0.0000000000000000e+00  0.0000000000000000e+00 0.0000000000000000e+00 0.0000000000000000e+00  0.0000000000000000e+00 0.0000000000000000e+00 0.0000000000000000e+00  0.0000000000000000e+00 0.0000000000000000e+00 0.0000000000000000e+00  0.0000000000000000e+00 0.0000000000000000e+00 0.0000000000000000e+00  0.0000000000000000e+00 0.0000000000000000e+00 0.0000000000000000e+00  0.0000000000000000e+00 0.0000000000000000e+00 0.0000000000000000e+00  0.0000000000000000e+00 0.0000000000000000e+00 0.0000000000000000e+00  0.0000000000000000e+00 0.0000000000000000e+00 0.0000000000000000e+00  0.0000000000000000e+00 0.0000000000000000e+00 0.0000000000000000e+00  0.0000000000000000e+00 0.0000000000000000e+00 0.0000000000000000e+00  0.0000000000000000e+00 0.0000000000000000e+00 0.0000000000000000e+00  0.0000000000000000e+00 0.0000000000000000e+00 0.0000000000000000e+00  0.0000000000000000e+00 0.0000000000000000e+00 0.0000000000000000e+00  0.0000000000000000e+00 0.0000000000000000e+00 0.0000000000000000e+00  0.0000000000000000e+00 0.0000000000000000e+00 0.0000000000000000e+00  0.0000000000000000e+00 0.0000000000000000e+00 0.0000000000000000e+00  0.0000000000000000e+00 0.0000000000000000e+00 0.0000000000000000e+00  0.0000000000000000e+00 0.0000000000000000e+00 0.0000000000000000e+00  0.0000000000000000e+00 0.0000000000000000e+00 0.0000000000000000e+00  0.0000000000000000e+00 0.0000000000000000e+00 0.0000000000000000e+00  0.0000000000000000e+00 0.0000000000000000e+00 0.0000000000000000e+00  0.0000000000000000e+00 0.0000000000000000e+00 0.0000000000000000e+00  0.0000000000000000e+00 0.0000000000000000e+00 0.0000000000000000e+00  0.0000000000000000e+00 0.0000000000000000e+00 0.0000000000000000e+00  0.0000000000000000e+00 0.0000000000000000e+00 0.0000000000000000e+00  0.0000000000000000e+00 0.0000000000000000e+00 0.0000000000000000e+00  0.0000000000000000e+00 0.0000000000000000e+00 0.0000000000000000e+00  0.0000000000000000e+00 0.0000000000000000e+00 0.0000000000000000e+00  0.0000000000000000e+00 0.0000000000000000e+00 0.0000000000000000e+00  0.0000000000000000e+00 0.0000000000000000e+00 0.0000000000000000e+00  0.0000000000000000e+00 0.0000000000000000e+00 0.0000000000000000e+00  0.0000000000000000e+00 0.0000000000000000e+00 0.0000000000000000e+00  0.0000000000000000e+00 0.0000000000000000e+00 0.0000000000000000e+00  0.0000000000000000e+00 0.0000000000000000e+00 0.0000000000000000e+00  0.0000000000000000e+00 0.0000000000000000e+00 0.0000000000000000e+00  0.0000000000000000e+00 0.0000000000000000e+00 0.0000000000000000e+00  0.0000000000000000e+00 0.0000000000000000e+00 0.0000000000000000e+00  0.0000000000000000e+00 0.0000000000000000e+00 0.0000000000000000e+00  0.0000000000000000e+00 0.0000000000000000e+00 0.0000000000000000e+00  0.0000000000000000e+00 0.0000000000000000e+00 0.0000000000000000e+00  0.0000000000000000e+00 0.0000000000000000e+00 0.0000000000000000e+00  0.0000000000000000e+00 0.0000000000000000e+00 0.0000000000000000e+00  0.0000000000000000e+00 0.0000000000000000e+00 0.0000000000000000e+00  0.0000000000000000e+00 0.0000000000000000e+00 0.0000000000000000e+00  0.0000000000000000e+00 0.0000000000000000e+00 0.0000000000000000e+00  0.0000000000000000e+00 0.0000000000000000e+00 0.0000000000000000e+00  0.0000000000000000e+00 0.0000000000000000e+00 0.0000000000000000e+00  0.0000000000000000e+00 0.0000000000000000e+00 0.0000000000000000e+00  0.0000000000000000e+00 0.0000000000000000e+00 0.0000000000000000e+00  0.0000000000000000e+00 0.0000000000000000e+00 0.0000000000000000e+00  0.0000000000000000e+00 0.0000000000000000e+00 0.0000000000000000e+00  0.0000000000000000e+00 0.0000000000000000e+00 0.0000000000000000e+00  0.0000000000000000e+00 0.0000000000000000e+00 0.0000000000000000e+00  0.0000000000000000e+00 0.0000000000000000e+00 0.0000000000000000e+00  0.0000000000000000e+00 0.0000000000000000e+00 0.0000000000000000e+00  0.0000000000000000e+00 0.0000000000000000e+00 0.0000000000000000e+00  0.0000000000000000e+00 0.0000000000000000e+00 0.0000000000000000e+00  0.0000000000000000e+00 0.0000000000000000e+00 0.0000000000000000e+00  0.0000000000000000e+00 0.0000000000000000e+00 0.0000000000000000e+00  0.0000000000000000e+00 0.0000000000000000e+00 0.0000000000000000e+00  0.0000000000000000e+00 0.0000000000000000e+00 0.0000000000000000e+00  0.0000000000000000e+00 0.0000000000000000e+00 0.0000000000000000e+00  0.0000000000000000e+00 0.0000000000000000e+00 0.0000000000000000e+00  0.0000000000000000e+00 0.0000000000000000e+00 0.0000000000000000e+00  0.0000000000000000e+00 0.0000000000000000e+00 0.0000000000000000e+00  0.0000000000000000e+00 0.0000000000000000e+00 0.0000000000000000e+00  0.0000000000000000e+00 0.0000000000000000e+00 0.0000000000000000e+00  0.0000000000000000e+00 0.0000000000000000e+00 0.0000000000000000e+00  0.0000000000000000e+00 0.0000000000000000e+00 0.0000000000000000e+00  0.0000000000000000e+00 0.0000000000000000e+00 0.0000000000000000e+00  0.0000000000000000e+00 0.0000000000000000e+00 0.0000000000000000e+00  0.0000000000000000e+00 0.0000000000000000e+00 0.0000000000000000e+00  0.0000000000000000e+00 0.0000000000000000e+00 0.0000000000000000e+00  0.0000000000000000e+00 0.0000000000000000e+00 0.0000000000000000e+00  0.0000000000000000e+00 0.0000000000000000e+00 0.0000000000000000e+00  0.0000000000000000e+00 0.0000000000000000e+00 0.0000000000000000e+00  0.0000000000000000e+00 0.0000000000000000e+00 0.0000000000000000e+00  0.0000000000000000e+00 0.0000000000000000e+00 0.0000000000000000e+00  0.0000000000000000e+00 0.0000000000000000e+00 0.0000000000000000e+00  0.0000000000000000e+00 0.0000000000000000e+00 0.0000000000000000e+00  0.0000000000000000e+00 0.0000000000000000e+00 0.0000000000000000e+00  0.0000000000000000e+00 0.0000000000000000e+00 0.0000000000000000e+00  0.0000000000000000e+00 0.0000000000000000e+00 0.0000000000000000e+00  0.0000000000000000e+00 0.0000000000000000e+00 0.0000000000000000e+00  0.0000000000000000e+00 0.0000000000000000e+00 0.0000000000000000e+00  0.0000000000000000e+00 0.0000000000000000e+00 0.0000000000000000e+00  0.0000000000000000e+00 0.0000000000000000e+00 0.0000000000000000e+00  0.0000000000000000e+00 0.0000000000000000e+00 0.0000000000000000e+00  0.0000000000000000e+00 0.0000000000000000e+00 0.0000000000000000e+00  0.0000000000000000e+00 0.0000000000000000e+00 0.0000000000000000e+00  0.0000000000000000e+00 0.0000000000000000e+00 0.0000000000000000e+00  0.0000000000000000e+00 0.0000000000000000e+00 0.0000000000000000e+00  0.0000000000000000e+00 0.0000000000000000e+00 0.0000000000000000e+00  0.0000000000000000e+00 0.0000000000000000e+00 0.0000000000000000e+00  0.0000000000000000e+00 0.0000000000000000e+00 0.0000000000000000e+00  0.0000000000000000e+00 0.0000000000000000e+00 0.0000000000000000e+00  0.0000000000000000e+00 0.0000000000000000e+00 0.0000000000000000e+00  0.0000000000000000e+00 0.0000000000000000e+00 0.0000000000000000e+00  0.0000000000000000e+00 0.0000000000000000e+00 0.0000000000000000e+00  0.0000000000000000e+00 0.0000000000000000e+00 0.0000000000000000e+00  0.0000000000000000e+00 0.0000000000000000e+00 0.0000000000000000e+00  0.0000000000000000e+00 0.0000000000000000e+00 0.0000000000000000e+00  0.0000000000000000e+00 0.0000000000000000e+00 0.0000000000000000e+00  0.0000000000000000e+00 0.0000000000000000e+00 0.0000000000000000e+00  0.0000000000000000e+00 0.0000000000000000e+00 0.0000000000000000e+00  0.0000000000000000e+00 0.0000000000000000e+00 0.0000000000000000e+00  0.0000000000000000e+00 0.0000000000000000e+00 0.0000000000000000e+00  0.0000000000000000e+00 0.0000000000000000e+00 0.0000000000000000e+00  0.0000000000000000e+00 0.0000000000000000e+00 0.0000000000000000e+00  0.0000000000000000e+00 0.0000000000000000e+00 0.0000000000000000e+00  0.0000000000000000e+00 0.0000000000000000e+00 0.0000000000000000e+00  0.0000000000000000e+00 0.0000000000000000e+00 0.0000000000000000e+00  0.0000000000000000e+00 0.0000000000000000e+00 0.0000000000000000e+00  0.0000000000000000e+00 0.0000000000000000e+00 0.0000000000000000e+00  0.0000000000000000e+00 0.0000000000000000e+00 0.0000000000000000e+00  0.0000000000000000e+00 0.0000000000000000e+00 0.0000000000000000e+00  2.1269881500087139e-07 -2.3931663950349570e-06 0.0000000000000000e+00  5.2219197605306425e-07 -2.7592775821187877e-06 0.0000000000000000e+00  9.3044008730710181e-07 -3.1276244905577958e-06 0.0000000000000000e+00  1.4076730717106959e-06 -3.5615342972836115e-06 0.0000000000000000e+00  1.8664638608387706e-06 -4.1128451980931860e-06 0.0000000000000000e+00  2.3281317937331449e-06 -4.8165196657787909e-06 0.0000000000000000e+00  2.7395252085706628e-06 -5.6161406976825333e-06 0.0000000000000000e+00  3.1221706115049292e-06 -6.5487493282051784e-06 0.0000000000000000e+00  3.5126813046411728e-06 -7.5847657616278941e-06 0.0000000000000000e+00  3.8367507993125122e-06 -8.7214160221363858e-06 0.0000000000000000e+00  4.1702624902648035e-06 -9.9757650566291682e-06 0.0000000000000000e+00  4.4393943193180596e-06 -1.1317139075872099e-05 0.0000000000000000e+00  4.7059556934776915e-06 -1.2761249926425167e-05 0.0000000000000000e+00  4.9238923047839227e-06 -1.4286207479550262e-05 0.0000000000000000e+00  5.1103743693858556e-06 -1.5905069058902857e-05 0.0000000000000000e+00  5.2952374911470910e-06 -1.7605647687086450e-05 0.0000000000000000e+00  5.4214603653805132e-06 -1.9371491527566520e-05 0.0000000000000000e+00  5.5442055013245590e-06 -2.1229708925604590e-05 0.0000000000000000e+00  5.6126427838062459e-06 -2.3139531621499118e-05 0.0000000000000000e+00  5.6753305449593787e-06 -2.5130896831450132e-05 0.0000000000000000e+00  5.6914286645669378e-06 -2.7169830127772356e-05 0.0000000000000000e+00  5.6892996368832146e-06 -2.9279765177750692e-05 0.0000000000000000e+00  5.6514296829851820e-06 -3.1437115907856884e-05 0.0000000000000000e+00  5.5826030884292288e-06 -3.3649738872212047e-05 0.0000000000000000e+00  5.5031425993025059e-06 -3.5912915850368449e-05 0.0000000000000000e+00  5.3825227760130614e-06 -3.8212037124752531e-05 0.0000000000000000e+00  5.2361190767992043e-06 -4.0573472849451766e-05 0.0000000000000000e+00  5.0595772492891777e-06 -4.2955941213662589e-05 0.0000000000000000e+00  4.8569106706950108e-06 -4.5392812700102231e-05 0.0000000000000000e+00  4.6243946000098095e-06 -4.7849188717451112e-05 0.0000000000000000e+00  4.3667813268077387e-06 -5.0351929228297051e-05 0.0000000000000000e+00  4.0778350391232652e-06 -5.2868425555879661e-05 0.0000000000000000e+00  3.7657247134063738e-06 -5.5427475009372076e-05 0.0000000000000000e+00  3.4215921122829935e-06 -5.7992010138394054e-05 0.0000000000000000e+00  3.0500502218379426e-06 -6.0597695769671494e-05 0.0000000000000000e+00  2.6504989375909301e-06 -6.3205487497223269e-05 0.0000000000000000e+00  2.2252356740895432e-06 -6.5846047668067619e-05 0.0000000000000000e+00  1.7712080503809201e-06 -6.8485810212585003e-05 0.0000000000000000e+00  1.2900586771200407e-06 -7.1153542286137627e-05 0.0000000000000000e+00  7.7875503504273240e-07 -7.3817721601609034e-05 0.0000000000000000e+00  2.3843796935593553e-07 -7.6500754829354392e-05 0.0000000000000000e+00  -3.2631650319345088e-07 -7.9184072223865417e-05 0.0000000000000000e+00  -9.2321121953684815e-07 -8.1878050207392068e-05 0.0000000000000000e+00  -1.5359559050560785e-06 -8.4573328710851078e-05 0.0000000000000000e+00  -2.1810347608263245e-06 -8.7263080679321942e-05 0.0000000000000000e+00  -2.8333032036597103e-06 -8.9980840884129243e-05 0.0000000000000000e+00  -5.4467642006616079e-06 -9.2169977575972569e-05 0.0000000000000000e+00  -9.1147242173080085e-06 -9.0900930814163676e-05 0.0000000000000000e+00  -1.0176516556757069e-05 -8.7601672958491589e-05 0.0000000000000000e+00  -9.5114202828398948e-06 -8.4833827577927471e-05 0.0000000000000000e+00  -8.8528328637820211e-06 -8.2053726974639404e-05 0.0000000000000000e+00  -8.2228069357439818e-06 -7.9288634050658525e-05 0.0000000000000000e+00  -7.6092074009334977e-06 -7.6529219349747294e-05 0.0000000000000000e+00  -7.0265326904994811e-06 -7.3777974492157374e-05 0.0000000000000000e+00  -6.4605420464961094e-06 -7.1036695831239811e-05 0.0000000000000000e+00  -5.9246438830585410e-06 -6.8298515430448691e-05 0.0000000000000000e+00  -5.4070930664835079e-06 -6.5583623385401932e-05 0.0000000000000000e+00  -4.9172369337348334e-06 -6.2868274786627041e-05 0.0000000000000000e+00  -4.4444321709301106e-06 -6.0180940345607001e-05 0.0000000000000000e+00  -3.9999939966203733e-06 -5.7497854066827191e-05 0.0000000000000000e+00  -3.5704724229674667e-06 -5.4847479299242295e-05 0.0000000000000000e+00  -3.1696997294379174e-06 -5.2206088686902197e-05 0.0000000000000000e+00  -2.7818000103329678e-06 -4.9602264386214423e-05 0.0000000000000000e+00  -2.4240870383691950e-06 -4.7012241082568937e-05 0.0000000000000000e+00  -2.0771033218605178e-06 -4.4463532528836496e-05 0.0000000000000000e+00  -1.7624231756770707e-06 -4.1933605815665841e-05 0.0000000000000000e+00  -1.4564802100832220e-06 -3.9451945000730180e-05 0.0000000000000000e+00  -1.1835527293471003e-06 -3.6995363810421927e-05 0.0000000000000000e+00  -9.1640385700518822e-07 -3.4592167609504892e-05 0.0000000000000000e+00  -6.8446578101500109e-07 -3.2220398807933597e-05 0.0000000000000000e+00  -4.6074630606611890e-07 -2.9902841067687863e-05 0.0000000000000000e+00  -2.6513460478282437e-07 -2.7628376463364209e-05 0.0000000000000000e+00  -9.5307326410302560e-08 -2.5413991511537630e-05 0.0000000000000000e+00  7.5378153748474947e-08 -2.3248620406946728e-05 0.0000000000000000e+00  2.1201067364459772e-07 -2.1139260442276163e-05 0.0000000000000000e+00  3.3726027890000807e-07 -1.9104772791243604e-05 0.0000000000000000e+00  4.3564516024353328e-07 -1.7121247233665731e-05 0.0000000000000000e+00  5.2141636397894812e-07 -1.5222532673370611e-05 0.0000000000000000e+00  5.8093927699440321e-07 -1.3379942853923517e-05 0.0000000000000000e+00  6.3412533926206692e-07 -1.1635782475582913e-05 0.0000000000000000e+00  6.5601476479008494e-07 -9.9534856500675474e-06 0.0000000000000000e+00  6.5443096883785707e-07 -8.3759313144381121e-06 0.0000000000000000e+00  6.6165836555748184e-07 -6.8695750870067112e-06 0.0000000000000000e+00  6.3310947325846710e-07 -5.4654549187232134e-06 0.0000000000000000e+00  5.9641614860017360e-07 -4.1688462809211466e-06 0.0000000000000000e+00  5.3196428690674050e-07 -2.9638467376682539e-06 0.0000000000000000e+00  4.6814797228327632e-07 -1.8851928794769190e-06 0.0000000000000000e+00  3.6748891562260971e-07 -8.9930625419445604e-07 0.0000000000000000e+00  2.4462164243183376e-07 -4.9966315747769365e-08 0.0000000000000000e+00  1.4175715185109263e-07 6.9739459875282804e-07 0.0000000000000000e+00  -1.0748175602891403e-09 1.3284415207372354e-06 0.0000000000000000e+00  -1.0344695111608677e-07 1.8203093896747799e-06 0.0000000000000000e+00  -1.8191122935304852e-07 2.1062614207766198e-06 0.0000000000000000e+00  -1.2253970104854201e-07 2.1234837703540359e-06 0.0000000000000000e+00  -3.1751188508902417e-07 -1.4788178896973861e-07 0.0000000000000000e+00  -6.1945485863732650e-06 -8.7424539839776622e-05 0.0000000000000000e+00  -4.8797855060630184e-06 -8.2205211557481606e-05 0.0000000000000000e+00  -3.0734769562961229e-06 -7.3694615393887544e-05 0.0000000000000000e+00  5.3455409347068525e-07 -7.8462411693746864e-07 0.0000000000000000e+00  -2.0889710832056338e-06 -6.8370511138557760e-05 0.0000000000000000e+00  1.1032091840831748e-06 -1.8814170652209893e-06 0.0000000000000000e+00  -1.1421844933018186e-06 -6.3012385136366903e-05 0.0000000000000000e+00  1.8838171871425275e-06 -4.6716384793797992e-06 0.0000000000000000e+00  2.2904557565256483e-06 -7.0046630919295281e-06 0.0000000000000000e+00  -2.9538975947967500e-07 -5.7718112240902064e-05 0.0000000000000000e+00  2.8611686850007255e-06 -1.4612767778520013e-05 0.0000000000000000e+00  1.1019492971778885e-06 -4.7395202456620041e-05 0.0000000000000000e+00  2.5661579656621532e-06 -9.6076486335457643e-06 0.0000000000000000e+00  2.9610745659639483e-06 -1.8180731416333572e-05 0.0000000000000000e+00  1.6540809242228025e-06 -4.2405808030636452e-05 0.0000000000000000e+00  4.5244969326305826e-07 -5.2505805615316834e-05 0.0000000000000000e+00  2.9405972097830076e-06 -2.2077762966979609e-05 0.0000000000000000e+00  2.1088400466955303e-06 -3.7561154942825702e-05 0.0000000000000000e+00  2.7957496631021391e-06 -2.6032970040959553e-05 0.0000000000000000e+00  2.5024891631900792e-06 -3.3001925957850608e-05 0.0000000000000000e+00  2.6748338919419345e-06 -2.9325119332482109e-05 0.0000000000000000e+00  2.7588295448381439e-06 -1.1942663990971293e-05 0.0000000000000000e+00  -4.0557203759361000e-06 -7.8089369349613452e-05 0.0000000000000000e+00  1.5086742398833254e-06 -3.1285680633268381e-06 0.0000000000000000e+00  -6.8006690898610360e-06 -8.4365405374920083e-05 0.0000000000000000e+00  1.5631179630735421e-09 5.2202658030931780e-07 0.0000000000000000e+00  -2.6440754176800174e-06 -6.5258465521221375e-05 0.0000000000000000e+00  -3.6503517101958401e-06 -7.0659416427054002e-05 0.0000000000000000e+00  1.1163571839166332e-06 -2.1804218025940136e-06 0.0000000000000000e+00  2.5560667345315075e-06 -6.4544528725409287e-06 0.0000000000000000e+00  -2.0292730599037712e-07 -4.9459032446588123e-05 0.0000000000000000e+00  -1.7346866965224566e-06 -5.9912641085529658e-05 0.0000000000000000e+00  3.6361144075690677e-06 -1.6951917237109549e-05 0.0000000000000000e+00  4.2196161131048662e-07 -4.4389205550512840e-05 0.0000000000000000e+00  2.9862369230696664e-06 -8.9918667691006625e-06 0.0000000000000000e+00  3.7165187345154999e-06 -2.0694358417579330e-05 0.0000000000000000e+00  9.5332204252596920e-07 -3.9452419961666653e-05 0.0000000000000000e+00  -9.2152026518486326e-07 -5.4639570781407073e-05 0.0000000000000000e+00  3.8764191686204261e-06 -2.4810530350597146e-05 0.0000000000000000e+00  1.3923250687709015e-06 -3.4672324713525453e-05 0.0000000000000000e+00  -3.9164726738587150e-07 -5.7229441982013329e-07 0.0000000000000000e+00  -4.4064587624643586e-07 4.6878028573777938e-07 0.0000000000000000e+00  -5.9092466456967776e-06 -8.9857069299394569e-05 0.0000000000000000e+00  3.4336100025062530e-07 -1.42