<?xml version="1.0"?>
<VTKFile type="UnstructuredGrid"  version="0.1"  >
<UnstructuredGrid>
<Piece  NumberOfPoints="1419" NumberOfCells="2698">
<Points>
<DataArray  type="Float64"  NumberOfComponents="3"  format="ascii">0 0 0  0 0.41 0  2.5 0 0  2.5 0.41 0  0.6 0.19 0  0.6 0.21 0  0.25 0.2 0  0.15 0.2 0  0.2489897948556636 0.21 0  0.2489897948556636 0.19 0  0.6 0.2 0  0 0.3807142857143437 0  0 0.3514285714286952 0  0 0.3221428571430699 0  0 0.29285714285744 0  0 0.2635714285718054 0  0 0.2342857142861561 0  0 0.2050000000005308 0  0 0.175714285714732 0  0 0.1464285714289574 0  0 0.1171428571431897 0  0 0.08785714285737878 0  0 0.05857142857161107 0  0 0.02928571428580012 0  0.03015443760436003 0 0  0.06140001986583606 0 0  0.09377624077125973 0 0  0.1273239957535082 0 0  0.1620856860351972 0 0  0.1981052433264291 0 0  0.235428184091502 0 0  0.2741016576309132 0 0  0.3141745521465447 0 0  0.3556974926295285 0 0  0.3987229542472677 0 0  0.4433053055141081 0 0  0.4895008759286886 0 0  0.5373680609405097 0 0  0.5869673343216626 0 0  0.6383613676634521 0 0  0.6916151138468254 0 0  0.7467958595648856 0 0  0.8039733463919316 0 0  0.8632198139502143 0 0  0.9246101326867038 0 0  0.9882218810934433 0 0  1.054135445558498 0 0  1.122434100542598 0 0  1.193204177141305 0 0  1.266535089879536 0 0  1.342519516046404 0 0  1.421253448503939 0 0  1.502836389106271 0 0  1.587371439758838 0 0  1.674965418777374 0 0  1.765729001825544 0 0  1.859776908880082 0 0  1.957227977487062 0 0  2.058205329869943 0 0  2.162836591189951 0 0  2.271253957290865 0 0  2.383594446803425 0 0  2.5 0.1024999999997612 0  2.5 0.2049999999994743 0  2.5 0.3074999999997183 0  2.383594446803656 0.41 0  2.271253957291315 0.41 0  2.162836591190598 0.41 0  2.058205329870775 0.41 0  1.957227977488067 0.41 0  1.859776908881246 0.41 0  1.765729001826854 0.41 0  1.674965418778818 0.41 0  1.58737143976041 0.41 0  1.502836389107956 0.41 0  1.421253448505726 0.41 0  1.342519516048286 0.41 0  1.266535089881505 0.41 0  1.193204177143353 0.41 0  1.122434100544716 0.41 0  1.05413544556068 0.41 0  0.9882218810956305 0.41 0  0.9246101326886647 0.41 0  0.8632198139519631 0.41 0  0.8039733463934788 0.41 0  0.7467958595662458 0.41 0  0.6916151138480078 0.41 0  0.6383613676644679 0.41 0  0.5869673343225223 0.41 0  0.5373680609412221 0.41 0  0.4895008759292634 0.41 0  0.4433053055145528 0.41 0  0.3987229542475914 0.41 0  0.3556974926297398 0.41 0  0.3141745521466497 0.41 0  0.2741016576310038 0.41 0  0.2354281840915826 0.41 0  0.1981052433265003 0.41 0  0.1620856860352591 0.41 0  0.1273239957535623 0.41 0  0.09377624077128965 0.41 0  0.06140001986584975 0.41 0  0.03015443760436654 0.41 0  0.2497468076502589 0.2050254481002335 0  0.2497468076502614 0.1949745518997913 0  0.2469965252529372 0.1829317073451959 0  0.2439893735792749 0.1762316384219906 0  0.2400332147834255 0.1700443375285386 0  0.2352133972704371 0.1645032867342007 0  0.2296339016332438 0.1597280261969788 0  0.2234150974217223 0.1558215752574715 0  0.2166911463437691 0.1528682099456123 0  0.2096071079204251 0.1509316448471593 0  0.2023158100364996 0.1500536585536553 0  0.194974551899914 0.1502531923497262 0  0.1877417105387872 0.1515259415822739 0  0.1807733240461124 0.153844448527136 0  0.1742197252835808 0.15715869474974 0  0.1682222986673531 0.1613971801805478 0  0.162910430003803 0.1664684656256651 0  0.1583987151779087 0.1722631454351573 0  0.1547844879126891 0.178656207771761 0  0.1521457199348551 0.1855097315605723 0  0.1505393388476355 0.1926758619366523 0  0.1505393388476328 0.2073241380633295 0  0.1521457199348437 0.2144902684393899 0  0.1547844879126531 0.221343792228163 0  0.1583987151778488 0.2277368545647528 0  0.1629104300036858 0.2335315343742052 0  0.1682222986671726 0.2386028198193036 0  0.1742197252833576 0.2428413052501257 0  0.1807733240458683 0.2461555514727623 0  0.1877417105384929 0.2484740584176516 0  0.1949745518995776 0.2497468076502398 0  0.202315810036185 0.2499463414463592 0  0.2096071079201568 0.2490683551528932 0  0.2166911463435495 0.2471317900544655 0  0.2234150974215506 0.2441784247426195 0  0.2296339016331197 0.2402719738031125 0  0.2352133972703547 0.2354967132658811 0  0.2400332147833751 0.2299556624715287 0  0.2439893735792577 0.2237683615780412 0  0.246996525252926 0.2170682926548348 0  0.25645809709277 0.21 0  0.2639263993298655 0.21 0  0.271394701566961 0.21 0  0.2788630038040554 0.21 0  0.2863313060411479 0.21 0  0.2937996082782405 0.21 0  0.301267910515333 0.21 0  0.3087362127524279 0.21 0  0.3162045149895234 0.21 0  0.3236728172265972 0.21 0  0.3311411194636928 0.21 0  0.3386094217007701 0.21 0  0.3460777239378666 0.21 0  0.3535460261749672 0.21 0  0.3610143284120516 0.21 0  0.3684826306491596 0.21 0  0.3759509328862226 0.21 0  0.383419235123329 0.21 0  0.3908875373604028 0.21 0  0.3983558395975142 0.21 0  0.4058241418345938 0.21 0  0.4132924440716992 0.21 0  0.4207607463087888 0.21 0  0.4282290485459029 0.21 0  0.4356973507830418 0.21 0  0.4431656530201649 0.21 0  0.4506339552573136 0.21 0  0.4581022574944306 0.21 0  0.4655705597315852 0.21 0  0.4730388619686996 0.21 0  0.480507164205851 0.21 0  0.4879754664429498 0.21 0  0.4954437686800938 0.21 0  0.502912070917267 0.21 0  0.5103803731544119 0.21 0  0.5178486753915261 0.21 0  0.5253169776286404 0.21 0  0.5327852798657868 0.21 0  0.5402535821029386 0.21 0  0.54772188434007 0.21 0  0.5551901865771842 0.21 0  0.5626584888143201 0.21 0  0.5701267910514778 0.21 0  0.5775950932886138 0.21 0  0.5850633955257281 0.21 0  0.5925316977628483 0.21 0  0.6 0.2050000000000054 0  0.6 0.1950000000000217 0  0.5925316977628897 0.19 0  0.5850633955257988 0.19 0  0.5775950932887378 0.19 0  0.5701267910515998 0.19 0  0.5626584888145268 0.19 0  0.5551901865773963 0.19 0  0.547721884340339 0.19 0  0.5402535821032429 0.19 0  0.5327852798661811 0.19 0  0.5253169776290537 0.19 0  0.5178486753919799 0.19 0  0.5103803731549078 0.19 0  0.502912070917822 0.19 0  0.4954437686807294 0.19 0  0.4879754664436223 0.19 0  0.4805071642065402 0.19 0  0.4730388619694271 0.19 0  0.4655705597323621 0.19 0  0.4581022574952563 0.19 0  0.4506339552581777 0.19 0  0.4431656530210671 0.19 0  0.4356973507839815 0.19 0  0.4282290485468779 0.19 0  0.4207607463097617 0.19 0  0.4132924440726327 0.19 0  0.4058241418354857 0.19 0  0.3983558395983636 0.19 0  0.3908875373612097 0.19 0  0.3834192351240934 0.19 0  0.3759509328869369 0.19 0  0.3684826306498175 0.19 0  0.361014328412667 0.19 0  0.3535460261755617 0.19 0  0.3460777239384295 0.19 0  0.3386094217012945 0.19 0  0.3311411194641595 0.19 0  0.3236728172270245 0.19 0  0.3162045149898895 0.19 0  0.3087362127527544 0.19 0  0.3012679105156187 0.19 0  0.2937996082784807 0.19 0  0.2863313060413428 0.19 0  0.2788630038042048 0.19 0  0.2713947015670686 0.19 0  0.2639263993299336 0.19 0  0.2564580970927985 0.19 0  0.2607803159922026 0.2000727136295815 0  0.5887803774232762 0.2001272386983733 0  0.5745072403740523 0.2002044435018727 0  0.5511891430099709 0.2001122610077113 0  0.2751288526855082 0.20000000000002 0  0.5365194309847112 0.1999999999999436 0  0.2894621222999649 0.1998691686390484 0  0.5215828265105155 0.1999999999999228 0  0.3127789816668748 0.1998657885438805 0  0.3274069683451451 0.2000000000000796 0  0.5066462220363641 0.199999999999908 0  0.3650630746574081 0.199866017807523 0  0.476773013087985 0.1999999999998713 0  0.3417402379596385 0.1998691686391011 0  0.3796850840047755 0.200000000000134 0  0.4618364086138087 0.1999999999998546 0  0.4917096175621762 0.1999999999998808 0  0.3946216884789568 0.2000000000001512 0  0.446899804139621 0.1999999999998389 0  0.4089549580935208 0.1998691686391595 0  0.4322718174608562 0.200127451265745 0  0.4201487168029707 0.1999966199048527 0  0.3528922713220932 0.2000185703532356 0  0.5633122436674589 0.1999814296467508 0  0.3006558810093873 0.1999966199048318 0  0.5815926498168407 0.1966545283159175 0  0.2677053789419034 0.1964246479135325 0  0.5290511287476175 0.1970915826863981 0  0.5439877332217911 0.197091582686394 0  0.2825131256993216 0.2035478995978015 0  0.3199386661080599 0.202908417313604 0  0.4842413153250809 0.1970915826863873 0  0.5141145242734466 0.1970915826863843 0  0.3722167817676917 0.2029084173136195 0  0.4693047108508938 0.1970915826863783 0  0.3348752705822316 0.202908417313609 0  0.3871533862418661 0.2029084173136212 0  0.4543681063767183 0.1970915826863795 0  0.4991779197992749 0.1970915826863902 0  0.4020059614928624 0.203547899597858 0  0.4394315019025246 0.1970915826863714 0  0.2550657455369551 0.2034088125358657 0  0.2548908499171161 0.1966940311614271 0  0.5946539510196798 0.2024302972968126 0  0.267698176732111 0.2039977513680092 0  0.4261685417851465 0.196409292431739 0  0.3590076176283495 0.196411355804271 0  0.5571672426447437 0.2036011176410121 0  0.3066757059912147 0.1964092924317024 0  0.594380730180568 0.1966558399668133 0  0.4842413153245942 0.2040749161535287 0  0.4693047108503577 0.2040749161535231 0  0.3871533862424271 0.1959250838464788 0  0.372246743208829 0.1959123236376545 0  0.5141145242731028 0.2040749161535395 0  0.4543681063761134 0.2040749161535186 0  0.4019979587101454 0.1959834479682427 0  0.4394608940728603 0.2040870543693135 0  0.5439623148931173 0.2040856076781014 0  0.5290511287473298 0.2040749161535501 0  0.4991779197988497 0.2040749161535382 0  0.3347912413592433 0.1959225448935183 0  0.3199680582793816 0.1959123018030061 0  0.2825051229162361 0.1959834479681729 0  0.3590471196690275 0.2036304442587945 0  0.5571594006495384 0.1963685282145804 0  0.3067669986803285 0.203627750582736 0  0.4262598344738712 0.2036568242185335 0  0.5814408164431408 0.2041285596160068 0  0.5688286748170428 0.1961819304477386 0  0.4145905603063645 0.2038180695522843 0  0.3473758401724931 0.2038180695522752 0  0.2950977245128307 0.2038180695522663 0  0.5688286748170693 0.203818069552238 0  0.2950977245127906 0.1961819304477774 0  0.3473758401723931 0.1961819304478349 0  0.4145905603061963 0.1961819304479011 0  0.2601812407614425 0.2056861609747042
[...]
<PointData  Vectors="f_40-1"> 
<DataArray  type="Float64"  Name="f_40-1"  NumberOfComponents="3" format="ascii">0.0000000000000000e+00 0.0000000000000000e+00 0.0000000000000000e+00  0.0000000000000000e+00 0.0000000000000000e+00 0.0000000000000000e+00  0.0000000000000000e+00 0.0000000000000000e+00 0.0000000000000000e+00  0.0000000000000000e+00 0.0000000000000000e+00 0.0000000000000000e+00  -1.0996430333420595e-05 -1.1615316657210227e-04 0.0000000000000000e+00  -1.5842987333448243e-06 -1.1891548065149057e-04 0.0000000000000000e+00  0.0000000000000000e+00 0.0000000000000000e+00 0.0000000000000000e+00  0.0000000000000000e+00 0.0000000000000000e+00 0.0000000000000000e+00  0.0000000000000000e+00 0.0000000000000000e+00 0.0000000000000000e+00  0.0000000000000000e+00 0.0000000000000000e+00 0.0000000000000000e+00  -6.5092377079920822e-06 -1.1753466469919972e-04 0.0000000000000000e+00  0.0000000000000000e+00 0.0000000000000000e+00 0.0000000000000000e+00  0.0000000000000000e+00 0.0000000000000000e+00 0.0000000000000000e+00  0.0000000000000000e+00 0.0000000000000000e+00 0.0000000000000000e+00  0.0000000000000000e+00 0.0000000000000000e+00 0.0000000000000000e+00  0.0000000000000000e+00 0.0000000000000000e+00 0.0000000000000000e+00  0.0000000000000000e+00 0.0000000000000000e+00 0.0000000000000000e+00  0.0000000000000000e+00 0.0000000000000000e+00 0.0000000000000000e+00  0.0000000000000000e+00 0.0000000000000000e+00 0.0000000000000000e+00  0.0000000000000000e+00 0.0000000000000000e+00 0.0000000000000000e+00  0.0000000000000000e+00 0.0000000000000000e+00 0.0000000000000000e+00  0.0000000000000000e+00 0.0000000000000000e+00 0.0000000000000000e+00  0.0000000000000000e+00 0.0000000000000000e+00 0.0000000000000000e+00  0.0000000000000000e+00 0.0000000000000000e+00 0.0000000000000000e+00  0.0000000000000000e+00 0.0000000000000000e+00 0.0000000000000000e+00  0.0000000000000000e+00 0.0000000000000000e+00 0.0000000000000000e+00  0.0000000000000000e+00 0.0000000000000000e+00 0.0000000000000000e+00  0.0000000000000000e+00 0.0000000000000000e+00 0.0000000000000000e+00  0.0000000000000000e+00 0.0000000000000000e+00 0.0000000000000000e+00  0.0000000000000000e+00 0.0000000000000000e+00 0.0000000000000000e+00  0.0000000000000000e+00 0.0000000000000000e+00 0.0000000000000000e+00  0.0000000000000000e+00 0.0000000000000000e+00 0.0000000000000000e+00  0.0000000000000000e+00 0.0000000000000000e+00 0.0000000000000000e+00  0.0000000000000000e+00 0.0000000000000000e+00 0.0000000000000000e+00  0.0000000000000000e+00 0.0000000000000000e+00 0.0000000000000000e+00  0.0000000000000000e+00 0.0000000000000000e+00 0.0000000000000000e+00  0.0000000000000000e+00 0.0000000000000000e+00 0.0000000000000000e+00  0.0000000000000000e+00 0.0000000000000000e+00 0.0000000000000000e+00  0.0000000000000000e+00 0.0000000000000000e+00 0.0000000000000000e+00  0.0000000000000000e+00 0.0000000000000000e+00 0.0000000000000000e+00  0.0000000000000000e+00 0.0000000000000000e+00 0.0000000000000000e+00  0.0000000000000000e+00 0.0000000000000000e+00 0.0000000000000000e+00  0.0000000000000000e+00 0.0000000000000000e+00 0.0000000000000000e+00  0.0000000000000000e+00 0.0000000000000000e+00 0.0000000000000000e+00  0.0000000000000000e+00 0.0000000000000000e+00 0.0000000000000000e+00  0.0000000000000000e+00 0.0000000000000000e+00 0.0000000000000000e+00  0.0000000000000000e+00 0.0000000000000000e+00 0.0000000000000000e+00  0.0000000000000000e+00 0.0000000000000000e+00 0.0000000000000000e+00  0.0000000000000000e+00 0.0000000000000000e+00 0.0000000000000000e+00  0.0000000000000000e+00 0.0000000000000000e+00 0.0000000000000000e+00  0.0000000000000000e+00 0.0000000000000000e+00 0.0000000000000000e+00  0.0000000000000000e+00 0.0000000000000000e+00 0.0000000000000000e+00  0.0000000000000000e+00 0.0000000000000000e+00 0.0000000000000000e+00  0.0000000000000000e+00 0.0000000000000000e+00 0.0000000000000000e+00  0.0000000000000000e+00 0.0000000000000000e+00 0.0000000000000000e+00  0.0000000000000000e+00 0.0000000000000000e+00 0.0000000000000000e+00  0.0000000000000000e+00 0.0000000000000000e+00 0.0000000000000000e+00  0.0000000000000000e+00 0.0000000000000000e+00 0.0000000000000000e+00  0.0000000000000000e+00 0.0000000000000000e+00 0.0000000000000000e+00  0.0000000000000000e+00 0.0000000000000000e+00 0.0000000000000000e+00  0.0000000000000000e+00 0.0000000000000000e+00 0.0000000000000000e+00  0.0000000000000000e+00 0.0000000000000000e+00 0.0000000000000000e+00  0.0000000000000000e+00 0.0000000000000000e+00 0.0000000000000000e+00  0.0000000000000000e+00 0.0000000000000000e+00 0.0000000000000000e+00  0.0000000000000000e+00 0.0000000000000000e+00 0.0000000000000000e+00  0.0000000000000000e+00 0.0000000000000000e+00 0.0000000000000000e+00  0.0000000000000000e+00 0.0000000000000000e+00 0.0000000000000000e+00  0.0000000000000000e+00 0.0000000000000000e+00 0.0000000000000000e+00  0.0000000000000000e+00 0.0000000000000000e+00 0.0000000000000000e+00  0.0000000000000000e+00 0.0000000000000000e+00 0.0000000000000000e+00  0.0000000000000000e+00 0.0000000000000000e+00 0.0000000000000000e+00  0.0000000000000000e+00 0.0000000000000000e+00 0.0000000000000000e+00  0.0000000000000000e+00 0.0000000000000000e+00 0.0000000000000000e+00  0.0000000000000000e+00 0.0000000000000000e+00 0.0000000000000000e+00  0.0000000000000000e+00 0.0000000000000000e+00 0.0000000000000000e+00  0.0000000000000000e+00 0.0000000000000000e+00 0.0000000000000000e+00  0.0000000000000000e+00 0.0000000000000000e+00 0.0000000000000000e+00  0.0000000000000000e+00 0.0000000000000000e+00 0.0000000000000000e+00  0.0000000000000000e+00 0.0000000000000000e+00 0.0000000000000000e+00  0.0000000000000000e+00 0.0000000000000000e+00 0.0000000000000000e+00  0.0000000000000000e+00 0.0000000000000000e+00 0.0000000000000000e+00  0.0000000000000000e+00 0.0000000000000000e+00 0.0000000000000000e+00  0.0000000000000000e+00 0.0000000000000000e+00 0.0000000000000000e+00  0.0000000000000000e+00 0.0000000000000000e+00 0.0000000000000000e+00  0.0000000000000000e+00 0.0000000000000000e+00 0.0000000000000000e+00  0.0000000000000000e+00 0.0000000000000000e+00 0.0000000000000000e+00  0.0000000000000000e+00 0.0000000000000000e+00 0.0000000000000000e+00  0.0000000000000000e+00 0.0000000000000000e+00 0.0000000000000000e+00  0.0000000000000000e+00 0.0000000000000000e+00 0.0000000000000000e+00  0.0000000000000000e+00 0.0000000000000000e+00 0.0000000000000000e+00  0.0000000000000000e+00 0.0000000000000000e+00 0.0000000000000000e+00  0.0000000000000000e+00 0.0000000000000000e+00 0.0000000000000000e+00  0.0000000000000000e+00 0.0000000000000000e+00 0.0000000000000000e+00  0.0000000000000000e+00 0.0000000000000000e+00 0.0000000000000000e+00  0.0000000000000000e+00 0.0000000000000000e+00 0.0000000000000000e+00  0.0000000000000000e+00 0.0000000000000000e+00 0.0000000000000000e+00  0.0000000000000000e+00 0.0000000000000000e+00 0.0000000000000000e+00  0.0000000000000000e+00 0.0000000000000000e+00 0.0000000000000000e+00  0.0000000000000000e+00 0.0000000000000000e+00 0.0000000000000000e+00  0.0000000000000000e+00 0.0000000000000000e+00 0.0000000000000000e+00  0.0000000000000000e+00 0.0000000000000000e+00 0.0000000000000000e+00  0.0000000000000000e+00 0.0000000000000000e+00 0.0000000000000000e+00  0.0000000000000000e+00 0.0000000000000000e+00 0.0000000000000000e+00  0.0000000000000000e+00 0.0000000000000000e+00 0.0000000000000000e+00  0.0000000000000000e+00 0.0000000000000000e+00 0.0000000000000000e+00  0.0000000000000000e+00 0.0000000000000000e+00 0.0000000000000000e+00  0.0000000000000000e+00 0.0000000000000000e+00 0.0000000000000000e+00  0.0000000000000000e+00 0.0000000000000000e+00 0.0000000000000000e+00  0.0000000000000000e+00 0.0000000000000000e+00 0.0000000000000000e+00  0.0000000000000000e+00 0.0000000000000000e+00 0.0000000000000000e+00  0.0000000000000000e+00 0.0000000000000000e+00 0.0000000000000000e+00  0.0000000000000000e+00 0.0000000000000000e+00 0.0000000000000000e+00  0.0000000000000000e+00 0.0000000000000000e+00 0.0000000000000000e+00  0.0000000000000000e+00 0.0000000000000000e+00 0.0000000000000000e+00  0.0000000000000000e+00 0.0000000000000000e+00 0.0000000000000000e+00  0.0000000000000000e+00 0.0000000000000000e+00 0.0000000000000000e+00  0.0000000000000000e+00 0.0000000000000000e+00 0.0000000000000000e+00  0.0000000000000000e+00 0.0000000000000000e+00 0.0000000000000000e+00  0.0000000000000000e+00 0.0000000000000000e+00 0.0000000000000000e+00  0.0000000000000000e+00 0.0000000000000000e+00 0.0000000000000000e+00  0.0000000000000000e+00 0.0000000000000000e+00 0.0000000000000000e+00  0.0000000000000000e+00 0.0000000000000000e+00 0.0000000000000000e+00  0.0000000000000000e+00 0.0000000000000000e+00 0.0000000000000000e+00  0.0000000000000000e+00 0.0000000000000000e+00 0.0000000000000000e+00  0.0000000000000000e+00 0.0000000000000000e+00 0.0000000000000000e+00  0.0000000000000000e+00 0.0000000000000000e+00 0.0000000000000000e+00  0.0000000000000000e+00 0.0000000000000000e+00 0.0000000000000000e+00  0.0000000000000000e+00 0.0000000000000000e+00 0.0000000000000000e+00  0.0000000000000000e+00 0.0000000000000000e+00 0.0000000000000000e+00  0.0000000000000000e+00 0.0000000000000000e+00 0.0000000000000000e+00  0.0000000000000000e+00 0.0000000000000000e+00 0.0000000000000000e+00  0.0000000000000000e+00 0.0000000000000000e+00 0.0000000000000000e+00  0.0000000000000000e+00 0.0000000000000000e+00 0.0000000000000000e+00  0.0000000000000000e+00 0.0000000000000000e+00 0.0000000000000000e+00  0.0000000000000000e+00 0.0000000000000000e+00 0.0000000000000000e+00  0.0000000000000000e+00 0.0000000000000000e+00 0.0000000000000000e+00  0.0000000000000000e+00 0.0000000000000000e+00 0.0000000000000000e+00  0.0000000000000000e+00 0.0000000000000000e+00 0.0000000000000000e+00  0.0000000000000000e+00 0.0000000000000000e+00 0.0000000000000000e+00  0.0000000000000000e+00 0.0000000000000000e+00 0.0000000000000000e+00  0.0000000000000000e+00 0.0000000000000000e+00 0.0000000000000000e+00  0.0000000000000000e+00 0.0000000000000000e+00 0.0000000000000000e+00  0.0000000000000000e+00 0.0000000000000000e+00 0.0000000000000000e+00  3.0101520008136200e-07 -2.6389485505205788e-06 0.0000000000000000e+00  7.1453835341607709e-07 -3.0791741637403564e-06 0.0000000000000000e+00  1.2338407456499890e-06 -3.5491959841071620e-06 0.0000000000000000e+00  1.8331455411033971e-06 -4.1183373266555570e-06 0.0000000000000000e+00  2.4070560648103213e-06 -4.8398467472140123e-06 0.0000000000000000e+00  2.9899831658644657e-06 -5.7534659842454222e-06 0.0000000000000000e+00  3.5111184188250332e-06 -6.7911312658439052e-06 0.0000000000000000e+00  4.0002295565651831e-06 -7.9998823794492967e-06 0.0000000000000000e+00  4.5024850275886164e-06 -9.3414406908553466e-06 0.0000000000000000e+00  4.9234529261981821e-06 -1.0813484389893526e-05 0.0000000000000000e+00  5.3602429067722606e-06 -1.2435154680180748e-05 0.0000000000000000e+00  5.7179230159800392e-06 -1.4170576085512947e-05 0.0000000000000000e+00  6.0764637022287972e-06 -1.6037191207320267e-05 0.0000000000000000e+00  6.3753218898016437e-06 -1.8007290652615981e-05 0.0000000000000000e+00  6.6382817430356220e-06 -2.0098674966264896e-05 0.0000000000000000e+00  6.9017905291474587e-06 -2.2293693364633159e-05 0.0000000000000000e+00  7.0943246165579477e-06 -2.4574312596776215e-05 0.0000000000000000e+00  7.2860217142772288e-06 -2.6970676559885075e-05 0.0000000000000000e+00  7.4118741424211191e-06 -2.9435619360357599e-05 0.0000000000000000e+00  7.5337345509116291e-06 -3.2002197136604088e-05 0.0000000000000000e+00  7.5998502160366474e-06 -3.4631897547472788e-05 0.0000000000000000e+00  7.6468663231020492e-06 -3.7350843224128556e-05 0.0000000000000000e+00  7.6508179534528635e-06 -4.0129915648399186e-05 0.0000000000000000e+00  7.6196375963628514e-06 -4.2980189020613538e-05 0.0000000000000000e+00  7.5775226610353973e-06 -4.5893167024287253e-05 0.0000000000000000e+00  7.4871269340883332e-06 -4.8853953983627494e-05 0.0000000000000000e+00  7.3678518619208730e-06 -5.1890924912020250e-05 0.0000000000000000e+00  7.2135185316486477e-06 -5.4957004404178251e-05 0.0000000000000000e+00  7.0298170700470310e-06 -5.8089711489498169e-05 0.0000000000000000e+00  6.8115240783207657e-06 -6.1248737595155994e-05 0.0000000000000000e+00  6.5649049171709486e-06 -6.4464491271817523e-05 0.0000000000000000e+00  6.2822651467624774e-06 -6.7699195259194098e-05 0.0000000000000000e+00  5.9733703997226234e-06 -7.0985323068618203e-05 0.0000000000000000e+00  5.6277385223011076e-06 -7.4280523132034707e-05 0.0000000000000000e+00  5.2511915710812599e-06 -7.7624830052438744e-05 0.0000000000000000e+00  4.8424759689798916e-06 -8.0973522221619449e-05 0.0000000000000000e+00  4.4046391676373301e-06 -8.4361162430098534e-05 0.0000000000000000e+00  3.9339176845788614e-06 -8.7749250874206801e-05 0.0000000000000000e+00  3.4325422897465098e-06 -9.1170326308264598e-05 0.0000000000000000e+00  2.8968445211956222e-06 -9.4588215139539020e-05 0.0000000000000000e+00  2.3283316308886146e-06 -9.8028313487889975e-05 0.0000000000000000e+00  1.7318915672868576e-06 -1.0146912009681093e-04 0.0000000000000000e+00  1.0991444195891460e-06 -1.0492246492575860e-04 0.0000000000000000e+00  4.4838241744925360e-07 -1.0837752238847918e-04 0.0000000000000000e+00  -2.3927923925195503e-07 -1.1182621291216298e-04 0.0000000000000000e+00  -9.3589711810040923e-07 -1.1530580467711926e-04 0.0000000000000000e+00  -4.1227291575272189e-06 -1.1821859458798593e-04 0.0000000000000000e+00  -8.8156400275651154e-06 -1.1685150532602234e-04 0.0000000000000000e+00  -1.0329437369967860e-05 -1.1274367863809262e-04 0.0000000000000000e+00  -9.6181078307271914e-06 -1.0920646680137298e-04 0.0000000000000000e+00  -8.9147952455150470e-06 -1.0565580511918773e-04 0.0000000000000000e+00  -8.2436930204563467e-06 -1.0212257644615777e-04 0.0000000000000000e+00  -7.5910959008462765e-06 -9.8596010870776070e-05 0.0000000000000000e+00  -6.9730286522858018e-06 -9.5079189991042269e-05 0.0000000000000000e+00  -6.3733635395612820e-06 -9.1574225664058255e-05 0.0000000000000000e+00  -5.8075444077708353e-06 -8.8073529395427257e-05 0.0000000000000000e+00  -5.2616325882605962e-06 -8.4600214658073255e-05 0.0000000000000000e+00  -4.7469569843170015e-06 -8.1127681464793908e-05 0.0000000000000000e+00  -4.2503769033510441e-06 -7.7688224060797984e-05 0.0000000000000000e+00  -3.7859366331165783e-06 -7.4255389224174985e-05 0.0000000000000000e+00  -3.3369616424491206e-06 -7.0861672354593873e-05 0.0000000000000000e+00  -2.9206553647860001e-06 -6.7480743020674377e-05 0.0000000000000000e+00  -2.5171772559797346e-06 -6.4145068826766379e-05 0.0000000000000000e+00  -2.1482278186228991e-06 -6.0828364501970261e-05 0.0000000000000000e+00  -1.7892987031334058e-06 -5.7561876197367360e-05 0.0000000000000000e+00  -1.4675384761984797e-06 -5.4320717620867151e-05 0.0000000000000000e+00  -1.1532983062058650e-06 -5.1138519566536357e-05 0.0000000000000000e+00  -8.7726923783274028e-07 -4.7989790439350316e-05 0.0000000000000000e+00  -6.0495459348004138e-07 -4.4906725326373731e-05 0.0000000000000000e+00  -3.7365519364035914e-07 -4.1865212333198109e-05 0.0000000000000000e+00  -1.4861544557772709e-07 -3.8891388878518570e-05 0.0000000000000000e+00  4.3594806091421304e-08 -3.5972410037679660e-05 0.0000000000000000e+00  2.0757034104844223e-07 -3.3130007746068045e-05 0.0000000000000000e+00  3.7513791878666695e-07 -3.0349244731599695e-05 0.0000000000000000e+00  5.0378960570661017e-07 -2.7641367881660724e-05 0.0000000000000000e+00  6.2161267736722207e-07 -2.5026506559829765e-05 0.0000000000000000e+00  7.0905593333029090e-07 -2.2479534383009142e-05 0.0000000000000000e+00  7.8428249152378237e-07 -2.0038184956542395e-05 0.0000000000000000e+00  8.2977551879957401e-07 -1.7671369922633003e-05 0.0000000000000000e+00  8.7155846438105878e-07 -1.5428671772227101e-05 0.0000000000000000e+00  8.7592756970715880e-07 -1.3266393015400605e-05 0.0000000000000000e+00  8.5476463579785304e-07 -1.1237903008670124e-05 0.0000000000000000e+00  8.4770519597239578e-07 -9.3010079602811815e-06 0.0000000000000000e+00  7.9920242780292744e-07 -7.4961383261384327e-06 0.0000000000000000e+00  7.4415923401060320e-07 -5.8277082027007326e-06 0.0000000000000000e+00  6.5738494807798842e-07 -4.2791403011258706e-06 0.0000000000000000e+00  5.7590189892175985e-07 -2.8922127236665405e-06 0.0000000000000000e+00  4.4998103362891831e-07 -1.6252102443339646e-06 0.0000000000000000e+00  3.0051282928042903e-07 -5.3439131433614625e-07 0.0000000000000000e+00  1.7975234579745872e-07 4.2544080262301319e-07 0.0000000000000000e+00  1.3121691333885197e-08 1.2309755096692555e-06 0.0000000000000000e+00  -1.0310515318587044e-07 1.8590084030292946e-06 0.0000000000000000e+00  -1.9603292804146128e-07 2.2355634222915741e-06 0.0000000000000000e+00  -1.3104463983910663e-07 2.2931178413821465e-06 0.0000000000000000e+00  -2.8894797866616513e-07 -1.8791252384026988e-07 0.0000000000000000e+00  -5.2950960239027821e-06 -1.1227408150092803e-04 0.0000000000000000e+00  -3.8842926536517916e-06 -1.0559364546298535e-04 0.0000000000000000e+00  -1.9766821823448610e-06 -9.4701394806397834e-05 0.0000000000000000e+00  7.1779265864451232e-07 -1.0145302161576249e-06 0.0000000000000000e+00  -9.5055410697831291e-07 -8.7886271708458269e-05 0.0000000000000000e+00  1.4172672269054677e-06 -2.4379562249739700e-06 0.0000000000000000e+00  3.8303342197135727e-08 -8.1021824159843028e-05 0.0000000000000000e+00  2.4035660127118309e-06 -6.0389771791989397e-06 0.0000000000000000e+00  2.9351641509969697e-06 -9.0425290904167534e-06 0.0000000000000000e+00  9.1490103331010645e-07 -7.4236067511196136e-05 0.0000000000000000e+00  3.7564760349396912e-06 -1.8854736626911923e-05 0.0000000000000000e+00  2.3357930201754949e-06 -6.0995678169368625e-05 0.0000000000000000e+00  3.3112502565478723e-06 -1.2404788025272364e-05 0.0000000000000000e+00  3.9456490419789248e-06 -2.3444619865196208e-05 0.0000000000000000e+00  2.8819496891684135e-06 -5.4591398554345132e-05 0.0000000000000000e+00  1.6804771230409153e-06 -6.7552286236455280e-05 0.0000000000000000e+00  3.9960143445175819e-06 -2.8461558824146771e-05 0.0000000000000000e+00  3.3188960667788536e-06 -4.8369659370229529e-05 0.0000000000000000e+00  3.8976713766278838e-06 -3.3555811875023115e-05 0.0000000000000000e+00  3.6953261624618890e-06 -4.2506904676849455e-05 0.0000000000000000e+00  3.8226997688504616e-06 -3.7784717805624553e-05 0.0000000000000000e+00  3.5873020179464335e-06 -1.5407940435061592e-05 0.0000000000000000e+00  -3.0271649196921211e-06 -1.0033119873030242e-04 0.0000000000000000e+00  1.9269610694160749e-06 -4.0417463257339142e-06 0.0000000000000000e+00  -6.2100530364701350e-06 -1.0844511387762396e-04 0.0000000000000000e+00  6.4077882508069481e-08 4.8987067343526999e-07 0.0000000000000000e+00  -1.7757250979495964e-06 -8.3983290202129483e-05 0.0000000000000000e+00  -2.8323562134005484e-06 -9.0898233664145456e-05 0.0000000000000000e+00  1.4493028593283160e-06 -2.6483072566941310e-06 0.0000000000000000e+00  3.2724744669509553e-06 -8.2030665087176151e-06 0.0000000000000000e+00  7.4880507830900940e-07 -6.3737184344674796e-05 0.0000000000000000e+00  -8.2739835398957882e-07 -7.7136041060075710e-05 0.0000000000000000e+00  4.7824253945967294e-06 -2.1743845562841457e-05 0.0000000000000000e+00  1.3798046181994241e-06 -5.7234304168043367e-05 0.0000000000000000e+00  3.8414061090649397e-06 -1.1478427148407405e-05 0.0000000000000000e+00  4.9546518668080693e-06 -2.6565681624952676e-05 0.0000000000000000e+00  1.9066170999610969e-06 -5.0898881321487360e-05 0.0000000000000000e+00  1.3436186095644360e-08 -7.0378908002002481e-05 0.0000000000000000e+00  5.2437067501349556e-06 -3.1841509548205607e-05 0.0000000000000000e+00  2.3305462272021936e-06 -4.4761378513981667e-05 0.0000000000000000e+00  -3.9432401779066218e-07 -6.3051033210253931e-07 0.0000000000000000e+00  -4.5980159661293956e-07 5.0773128383438918e-07 0.0000000000000000e+00  -4.8144098869273330e-06 -1.1532987146360125e-04 0.0000000000000000e+00  5.0407128098705509e-07 -1.642568049781