<?xml version="1.0"?>
<VTKFile type="UnstructuredGrid"  version="0.1"  >
<UnstructuredGrid>
<Piece  NumberOfPoints="1419" NumberOfCells="2698">
<Points>
<DataArray  type="Float64"  NumberOfComponents="3"  format="ascii">0 0 0  0 0.41 0  2.5 0 0  2.5 0.41 0  0.6 0.19 0  0.6 0.21 0  0.25 0.2 0  0.15 0.2 0  0.2489897948556636 0.21 0  0.2489897948556636 0.19 0  0.6 0.2 0  0 0.3807142857143437 0  0 0.3514285714286952 0  0 0.3221428571430699 0  0 0.29285714285744 0  0 0.2635714285718054 0  0 0.2342857142861561 0  0 0.2050000000005308 0  0 0.175714285714732 0  0 0.1464285714289574 0  0 0.1171428571431897 0  0 0.08785714285737878 0  0 0.05857142857161107 0  0 0.02928571428580012 0  0.03015443760436003 0 0  0.06140001986583606 0 0  0.09377624077125973 0 0  0.1273239957535082 0 0  0.1620856860351972 0 0  0.1981052433264291 0 0  0.235428184091502 0 0  0.2741016576309132 0 0  0.3141745521465447 0 0  0.3556974926295285 0 0  0.3987229542472677 0 0  0.4433053055141081 0 0  0.4895008759286886 0 0  0.5373680609405097 0 0  0.5869673343216626 0 0  0.6383613676634521 0 0  0.6916151138468254 0 0  0.7467958595648856 0 0  0.8039733463919316 0 0  0.8632198139502143 0 0  0.9246101326867038 0 0  0.9882218810934433 0 0  1.054135445558498 0 0  1.122434100542598 0 0  1.193204177141305 0 0  1.266535089879536 0 0  1.342519516046404 0 0  1.421253448503939 0 0  1.502836389106271 0 0  1.587371439758838 0 0  1.674965418777374 0 0  1.765729001825544 0 0  1.859776908880082 0 0  1.957227977487062 0 0  2.058205329869943 0 0  2.162836591189951 0 0  2.271253957290865 0 0  2.383594446803425 0 0  2.5 0.1024999999997612 0  2.5 0.2049999999994743 0  2.5 0.3074999999997183 0  2.383594446803656 0.41 0  2.271253957291315 0.41 0  2.162836591190598 0.41 0  2.058205329870775 0.41 0  1.957227977488067 0.41 0  1.859776908881246 0.41 0  1.765729001826854 0.41 0  1.674965418778818 0.41 0  1.58737143976041 0.41 0  1.502836389107956 0.41 0  1.421253448505726 0.41 0  1.342519516048286 0.41 0  1.266535089881505 0.41 0  1.193204177143353 0.41 0  1.122434100544716 0.41 0  1.05413544556068 0.41 0  0.9882218810956305 0.41 0  0.9246101326886647 0.41 0  0.8632198139519631 0.41 0  0.8039733463934788 0.41 0  0.7467958595662458 0.41 0  0.6916151138480078 0.41 0  0.6383613676644679 0.41 0  0.5869673343225223 0.41 0  0.5373680609412221 0.41 0  0.4895008759292634 0.41 0  0.4433053055145528 0.41 0  0.3987229542475914 0.41 0  0.3556974926297398 0.41 0  0.3141745521466497 0.41 0  0.2741016576310038 0.41 0  0.2354281840915826 0.41 0  0.1981052433265003 0.41 0  0.1620856860352591 0.41 0  0.1273239957535623 0.41 0  0.09377624077128965 0.41 0  0.06140001986584975 0.41 0  0.03015443760436654 0.41 0  0.2497468076502589 0.2050254481002335 0  0.2497468076502614 0.1949745518997913 0  0.2469965252529372 0.1829317073451959 0  0.2439893735792749 0.1762316384219906 0  0.2400332147834255 0.1700443375285386 0  0.2352133972704371 0.1645032867342007 0  0.2296339016332438 0.1597280261969788 0  0.2234150974217223 0.1558215752574715 0  0.2166911463437691 0.1528682099456123 0  0.2096071079204251 0.1509316448471593 0  0.2023158100364996 0.1500536585536553 0  0.194974551899914 0.1502531923497262 0  0.1877417105387872 0.1515259415822739 0  0.1807733240461124 0.153844448527136 0  0.1742197252835808 0.15715869474974 0  0.1682222986673531 0.1613971801805478 0  0.162910430003803 0.1664684656256651 0  0.1583987151779087 0.1722631454351573 0  0.1547844879126891 0.178656207771761 0  0.1521457199348551 0.1855097315605723 0  0.1505393388476355 0.1926758619366523 0  0.1505393388476328 0.2073241380633295 0  0.1521457199348437 0.2144902684393899 0  0.1547844879126531 0.221343792228163 0  0.1583987151778488 0.2277368545647528 0  0.1629104300036858 0.2335315343742052 0  0.1682222986671726 0.2386028198193036 0  0.1742197252833576 0.2428413052501257 0  0.1807733240458683 0.2461555514727623 0  0.1877417105384929 0.2484740584176516 0  0.1949745518995776 0.2497468076502398 0  0.202315810036185 0.2499463414463592 0  0.2096071079201568 0.2490683551528932 0  0.2166911463435495 0.2471317900544655 0  0.2234150974215506 0.2441784247426195 0  0.2296339016331197 0.2402719738031125 0  0.2352133972703547 0.2354967132658811 0  0.2400332147833751 0.2299556624715287 0  0.2439893735792577 0.2237683615780412 0  0.246996525252926 0.2170682926548348 0  0.25645809709277 0.21 0  0.2639263993298655 0.21 0  0.271394701566961 0.21 0  0.2788630038040554 0.21 0  0.2863313060411479 0.21 0  0.2937996082782405 0.21 0  0.301267910515333 0.21 0  0.3087362127524279 0.21 0  0.3162045149895234 0.21 0  0.3236728172265972 0.21 0  0.3311411194636928 0.21 0  0.3386094217007701 0.21 0  0.3460777239378666 0.21 0  0.3535460261749672 0.21 0  0.3610143284120516 0.21 0  0.3684826306491596 0.21 0  0.3759509328862226 0.21 0  0.383419235123329 0.21 0  0.3908875373604028 0.21 0  0.3983558395975142 0.21 0  0.4058241418345938 0.21 0  0.4132924440716992 0.21 0  0.4207607463087888 0.21 0  0.4282290485459029 0.21 0  0.4356973507830418 0.21 0  0.4431656530201649 0.21 0  0.4506339552573136 0.21 0  0.4581022574944306 0.21 0  0.4655705597315852 0.21 0  0.4730388619686996 0.21 0  0.480507164205851 0.21 0  0.4879754664429498 0.21 0  0.4954437686800938 0.21 0  0.502912070917267 0.21 0  0.5103803731544119 0.21 0  0.5178486753915261 0.21 0  0.5253169776286404 0.21 0  0.5327852798657868 0.21 0  0.5402535821029386 0.21 0  0.54772188434007 0.21 0  0.5551901865771842 0.21 0  0.5626584888143201 0.21 0  0.5701267910514778 0.21 0  0.5775950932886138 0.21 0  0.5850633955257281 0.21 0  0.5925316977628483 0.21 0  0.6 0.2050000000000054 0  0.6 0.1950000000000217 0  0.5925316977628897 0.19 0  0.5850633955257988 0.19 0  0.5775950932887378 0.19 0  0.5701267910515998 0.19 0  0.5626584888145268 0.19 0  0.5551901865773963 0.19 0  0.547721884340339 0.19 0  0.5402535821032429 0.19 0  0.5327852798661811 0.19 0  0.5253169776290537 0.19 0  0.5178486753919799 0.19 0  0.5103803731549078 0.19 0  0.502912070917822 0.19 0  0.4954437686807294 0.19 0  0.4879754664436223 0.19 0  0.4805071642065402 0.19 0  0.4730388619694271 0.19 0  0.4655705597323621 0.19 0  0.4581022574952563 0.19 0  0.4506339552581777 0.19 0  0.4431656530210671 0.19 0  0.4356973507839815 0.19 0  0.4282290485468779 0.19 0  0.4207607463097617 0.19 0  0.4132924440726327 0.19 0  0.4058241418354857 0.19 0  0.3983558395983636 0.19 0  0.3908875373612097 0.19 0  0.3834192351240934 0.19 0  0.3759509328869369 0.19 0  0.3684826306498175 0.19 0  0.361014328412667 0.19 0  0.3535460261755617 0.19 0  0.3460777239384295 0.19 0  0.3386094217012945 0.19 0  0.3311411194641595 0.19 0  0.3236728172270245 0.19 0  0.3162045149898895 0.19 0  0.3087362127527544 0.19 0  0.3012679105156187 0.19 0  0.2937996082784807 0.19 0  0.2863313060413428 0.19 0  0.2788630038042048 0.19 0  0.2713947015670686 0.19 0  0.2639263993299336 0.19 0  0.2564580970927985 0.19 0  0.2607803159922026 0.2000727136295815 0  0.5887803774232762 0.2001272386983733 0  0.5745072403740523 0.2002044435018727 0  0.5511891430099709 0.2001122610077113 0  0.2751288526855082 0.20000000000002 0  0.5365194309847112 0.1999999999999436 0  0.2894621222999649 0.1998691686390484 0  0.5215828265105155 0.1999999999999228 0  0.3127789816668748 0.1998657885438805 0  0.3274069683451451 0.2000000000000796 0  0.5066462220363641 0.199999999999908 0  0.3650630746574081 0.199866017807523 0  0.476773013087985 0.1999999999998713 0  0.3417402379596385 0.1998691686391011 0  0.3796850840047755 0.200000000000134 0  0.4618364086138087 0.1999999999998546 0  0.4917096175621762 0.1999999999998808 0  0.3946216884789568 0.2000000000001512 0  0.446899804139621 0.1999999999998389 0  0.4089549580935208 0.1998691686391595 0  0.4322718174608562 0.200127451265745 0  0.4201487168029707 0.1999966199048527 0  0.3528922713220932 0.2000185703532356 0  0.5633122436674589 0.1999814296467508 0  0.3006558810093873 0.1999966199048318 0  0.5815926498168407 0.1966545283159175 0  0.2677053789419034 0.1964246479135325 0  0.5290511287476175 0.1970915826863981 0  0.5439877332217911 0.197091582686394 0  0.2825131256993216 0.2035478995978015 0  0.3199386661080599 0.202908417313604 0  0.4842413153250809 0.1970915826863873 0  0.5141145242734466 0.1970915826863843 0  0.3722167817676917 0.2029084173136195 0  0.4693047108508938 0.1970915826863783 0  0.3348752705822316 0.202908417313609 0  0.3871533862418661 0.2029084173136212 0  0.4543681063767183 0.1970915826863795 0  0.4991779197992749 0.1970915826863902 0  0.4020059614928624 0.203547899597858 0  0.4394315019025246 0.1970915826863714 0  0.2550657455369551 0.2034088125358657 0  0.2548908499171161 0.1966940311614271 0  0.5946539510196798 0.2024302972968126 0  0.267698176732111 0.2039977513680092 0  0.4261685417851465 0.196409292431739 0  0.3590076176283495 0.196411355804271 0  0.5571672426447437 0.2036011176410121 0  0.3066757059912147 0.1964092924317024 0  0.594380730180568 0.1966558399668133 0  0.4842413153245942 0.2040749161535287 0  0.4693047108503577 0.2040749161535231 0  0.3871533862424271 0.1959250838464788 0  0.372246743208829 0.1959123236376545 0  0.5141145242731028 0.2040749161535395 0  0.4543681063761134 0.2040749161535186 0  0.4019979587101454 0.1959834479682427 0  0.4394608940728603 0.2040870543693135 0  0.5439623148931173 0.2040856076781014 0  0.5290511287473298 0.2040749161535501 0  0.4991779197988497 0.2040749161535382 0  0.3347912413592433 0.1959225448935183 0  0.3199680582793816 0.1959123018030061 0  0.2825051229162361 0.1959834479681729 0  0.3590471196690275 0.2036304442587945 0  0.5571594006495384 0.1963685282145804 0  0.3067669986803285 0.203627750582736 0  0.4262598344738712 0.2036568242185335 0  0.5814408164431408 0.2041285596160068 0  0.5688286748170428 0.1961819304477386 0  0.4145905603063645 0.2038180695522843 0  0.3473758401724931 0.2038180695522752 0  0.2950977245128307 0.2038180695522663 0  0.5688286748170693 0.203818069552238 0  0.2950977245127906 0.1961819304477774 0  0.3473758401723931 0.1961819304478349 0  0.4145905603061963 0.1961819304479011 0  0.2601812407614425 0.2056861609747042
[...]
<PointData  Vectors="f_40-1"> 
<DataArray  type="Float64"  Name="f_40-1"  NumberOfComponents="3" format="ascii">0.0000000000000000e+00 0.0000000000000000e+00 0.0000000000000000e+00  0.0000000000000000e+00 0.0000000000000000e+00 0.0000000000000000e+00  0.0000000000000000e+00 0.0000000000000000e+00 0.0000000000000000e+00  0.0000000000000000e+00 0.0000000000000000e+00 0.0000000000000000e+00  -1.0791970722880273e-05 -8.9223794119554467e-05 0.0000000000000000e+00  -3.5138868758972788e-06 -9.1778414180614963e-05 0.0000000000000000e+00  0.0000000000000000e+00 0.0000000000000000e+00 0.0000000000000000e+00  0.0000000000000000e+00 0.0000000000000000e+00 0.0000000000000000e+00  0.0000000000000000e+00 0.0000000000000000e+00 0.0000000000000000e+00  0.0000000000000000e+00 0.0000000000000000e+00 0.0000000000000000e+00  -7.3469198827885180e-06 -9.0501748851877080e-05 0.0000000000000000e+00  0.0000000000000000e+00 0.0000000000000000e+00 0.0000000000000000e+00  0.0000000000000000e+00 0.0000000000000000e+00 0.0000000000000000e+00  0.0000000000000000e+00 0.0000000000000000e+00 0.0000000000000000e+00  0.0000000000000000e+00 0.0000000000000000e+00 0.0000000000000000e+00  0.0000000000000000e+00 0.0000000000000000e+00 0.0000000000000000e+00  0.0000000000000000e+00 0.0000000000000000e+00 0.0000000000000000e+00  0.0000000000000000e+00 0.0000000000000000e+00 0.0000000000000000e+00  0.0000000000000000e+00 0.0000000000000000e+00 0.0000000000000000e+00  0.0000000000000000e+00 0.0000000000000000e+00 0.0000000000000000e+00  0.0000000000000000e+00 0.0000000000000000e+00 0.0000000000000000e+00  0.0000000000000000e+00 0.0000000000000000e+00 0.0000000000000000e+00  0.0000000000000000e+00 0.0000000000000000e+00 0.0000000000000000e+00  0.0000000000000000e+00 0.0000000000000000e+00 0.0000000000000000e+00  0.0000000000000000e+00 0.0000000000000000e+00 0.0000000000000000e+00  0.0000000000000000e+00 0.0000000000000000e+00 0.0000000000000000e+00  0.0000000000000000e+00 0.0000000000000000e+00 0.0000000000000000e+00  0.0000000000000000e+00 0.0000000000000000e+00 0.0000000000000000e+00  0.0000000000000000e+00 0.0000000000000000e+00 0.0000000000000000e+00  0.0000000000000000e+00 0.0000000000000000e+00 0.0000000000000000e+00  0.0000000000000000e+00 0.0000000000000000e+00 0.0000000000000000e+00  0.0000000000000000e+00 0.0000000000000000e+00 0.0000000000000000e+00  0.0000000000000000e+00 0.0000000000000000e+00 0.0000000000000000e+00  0.0000000000000000e+00 0.0000000000000000e+00 0.0000000000000000e+00  0.0000000000000000e+00 0.0000000000000000e+00 0.0000000000000000e+00  0.0000000000000000e+00 0.0000000000000000e+00 0.0000000000000000e+00  0.0000000000000000e+00 0.0000000000000000e+00 0.0000000000000000e+00  0.0000000000000000e+00 0.0000000000000000e+00 0.0000000000000000e+00  0.0000000000000000e+00 0.0000000000000000e+00 0.0000000000000000e+00  0.0000000000000000e+00 0.0000000000000000e+00 0.0000000000000000e+00  0.0000000000000000e+00 0.0000000000000000e+00 0.0000000000000000e+00  0.0000000000000000e+00 0.0000000000000000e+00 0.0000000000000000e+00  0.0000000000000000e+00 0.0000000000000000e+00 0.0000000000000000e+00  0.0000000000000000e+00 0.0000000000000000e+00 0.0000000000000000e+00  0.0000000000000000e+00 0.0000000000000000e+00 0.0000000000000000e+00  0.0000000000000000e+00 0.0000000000000000e+00 0.0000000000000000e+00  0.0000000000000000e+00 0.0000000000000000e+00 0.0000000000000000e+00  0.0000000000000000e+00 0.0000000000000000e+00 0.0000000000000000e+00  0.0000000000000000e+00 0.0000000000000000e+00 0.0000000000000000e+00  0.0000000000000000e+00 0.0000000000000000e+00 0.0000000000000000e+00  0.0000000000000000e+00 0.0000000000000000e+00 0.0000000000000000e+00  0.0000000000000000e+00 0.0000000000000000e+00 0.0000000000000000e+00  0.0000000000000000e+00 0.0000000000000000e+00 0.0000000000000000e+00  0.0000000000000000e+00 0.0000000000000000e+00 0.0000000000000000e+00  0.0000000000000000e+00 0.0000000000000000e+00 0.0000000000000000e+00  0.0000000000000000e+00 0.0000000000000000e+00 0.0000000000000000e+00  0.0000000000000000e+00 0.0000000000000000e+00 0.0000000000000000e+00  0.0000000000000000e+00 0.0000000000000000e+00 0.0000000000000000e+00  0.0000000000000000e+00 0.0000000000000000e+00 0.0000000000000000e+00  0.0000000000000000e+00 0.0000000000000000e+00 0.0000000000000000e+00  0.0000000000000000e+00 0.0000000000000000e+00 0.0000000000000000e+00  0.0000000000000000e+00 0.0000000000000000e+00 0.0000000000000000e+00  0.0000000000000000e+00 0.0000000000000000e+00 0.0000000000000000e+00  0.0000000000000000e+00 0.0000000000000000e+00 0.0000000000000000e+00  0.0000000000000000e+00 0.0000000000000000e+00 0.0000000000000000e+00  0.0000000000000000e+00 0.0000000000000000e+00 0.0000000000000000e+00  0.0000000000000000e+00 0.0000000000000000e+00 0.0000000000000000e+00  0.0000000000000000e+00 0.0000000000000000e+00 0.0000000000000000e+00  0.0000000000000000e+00 0.0000000000000000e+00 0.0000000000000000e+00  0.0000000000000000e+00 0.0000000000000000e+00 0.0000000000000000e+00  0.0000000000000000e+00 0.0000000000000000e+00 0.0000000000000000e+00  0.0000000000000000e+00 0.0000000000000000e+00 0.0000000000000000e+00  0.0000000000000000e+00 0.0000000000000000e+00 0.0000000000000000e+00  0.0000000000000000e+00 0.0000000000000000e+00 0.0000000000000000e+00  0.0000000000000000e+00 0.0000000000000000e+00 0.0000000000000000e+00  0.0000000000000000e+00 0.0000000000000000e+00 0.0000000000000000e+00  0.0000000000000000e+00 0.0000000000000000e+00 0.0000000000000000e+00  0.0000000000000000e+00 0.0000000000000000e+00 0.0000000000000000e+00  0.0000000000000000e+00 0.0000000000000000e+00 0.0000000000000000e+00  0.0000000000000000e+00 0.0000000000000000e+00 0.0000000000000000e+00  0.0000000000000000e+00 0.0000000000000000e+00 0.0000000000000000e+00  0.0000000000000000e+00 0.0000000000000000e+00 0.0000000000000000e+00  0.0000000000000000e+00 0.0000000000000000e+00 0.0000000000000000e+00  0.0000000000000000e+00 0.0000000000000000e+00 0.0000000000000000e+00  0.0000000000000000e+00 0.0000000000000000e+00 0.0000000000000000e+00  0.0000000000000000e+00 0.0000000000000000e+00 0.0000000000000000e+00  0.0000000000000000e+00 0.0000000000000000e+00 0.0000000000000000e+00  0.0000000000000000e+00 0.0000000000000000e+00 0.0000000000000000e+00  0.0000000000000000e+00 0.0000000000000000e+00 0.0000000000000000e+00  0.0000000000000000e+00 0.0000000000000000e+00 0.0000000000000000e+00  0.0000000000000000e+00 0.0000000000000000e+00 0.0000000000000000e+00  0.0000000000000000e+00 0.0000000000000000e+00 0.0000000000000000e+00  0.0000000000000000e+00 0.0000000000000000e+00 0.0000000000000000e+00  0.0000000000000000e+00 0.0000000000000000e+00 0.0000000000000000e+00  0.0000000000000000e+00 0.0000000000000000e+00 0.0000000000000000e+00  0.0000000000000000e+00 0.0000000000000000e+00 0.0000000000000000e+00  0.0000000000000000e+00 0.0000000000000000e+00 0.0000000000000000e+00  0.0000000000000000e+00 0.0000000000000000e+00 0.0000000000000000e+00  0.0000000000000000e+00 0.0000000000000000e+00 0.0000000000000000e+00  0.0000000000000000e+00 0.0000000000000000e+00 0.0000000000000000e+00  0.0000000000000000e+00 0.0000000000000000e+00 0.0000000000000000e+00  0.0000000000000000e+00 0.0000000000000000e+00 0.0000000000000000e+00  0.0000000000000000e+00 0.0000000000000000e+00 0.0000000000000000e+00  0.0000000000000000e+00 0.0000000000000000e+00 0.0000000000000000e+00  0.0000000000000000e+00 0.0000000000000000e+00 0.0000000000000000e+00  0.0000000000000000e+00 0.0000000000000000e+00 0.0000000000000000e+00  0.0000000000000000e+00 0.0000000000000000e+00 0.0000000000000000e+00  0.0000000000000000e+00 0.0000000000000000e+00 0.0000000000000000e+00  0.0000000000000000e+00 0.0000000000000000e+00 0.0000000000000000e+00  0.0000000000000000e+00 0.0000000000000000e+00 0.0000000000000000e+00  0.0000000000000000e+00 0.0000000000000000e+00 0.0000000000000000e+00  0.0000000000000000e+00 0.0000000000000000e+00 0.0000000000000000e+00  0.0000000000000000e+00 0.0000000000000000e+00 0.0000000000000000e+00  0.0000000000000000e+00 0.0000000000000000e+00 0.0000000000000000e+00  0.0000000000000000e+00 0.0000000000000000e+00 0.0000000000000000e+00  0.0000000000000000e+00 0.0000000000000000e+00 0.0000000000000000e+00  0.0000000000000000e+00 0.0000000000000000e+00 0.0000000000000000e+00  0.0000000000000000e+00 0.0000000000000000e+00 0.0000000000000000e+00  0.0000000000000000e+00 0.0000000000000000e+00 0.0000000000000000e+00  0.0000000000000000e+00 0.0000000000000000e+00 0.0000000000000000e+00  0.0000000000000000e+00 0.0000000000000000e+00 0.0000000000000000e+00  0.0000000000000000e+00 0.0000000000000000e+00 0.0000000000000000e+00  0.0000000000000000e+00 0.0000000000000000e+00 0.0000000000000000e+00  0.0000000000000000e+00 0.0000000000000000e+00 0.0000000000000000e+00  0.0000000000000000e+00 0.0000000000000000e+00 0.0000000000000000e+00  0.0000000000000000e+00 0.0000000000000000e+00 0.0000000000000000e+00  0.0000000000000000e+00 0.0000000000000000e+00 0.0000000000000000e+00  0.0000000000000000e+00 0.0000000000000000e+00 0.0000000000000000e+00  0.0000000000000000e+00 0.0000000000000000e+00 0.0000000000000000e+00  0.0000000000000000e+00 0.0000000000000000e+00 0.0000000000000000e+00  0.0000000000000000e+00 0.0000000000000000e+00 0.0000000000000000e+00  0.0000000000000000e+00 0.0000000000000000e+00 0.0000000000000000e+00  0.0000000000000000e+00 0.0000000000000000e+00 0.0000000000000000e+00  0.0000000000000000e+00 0.0000000000000000e+00 0.0000000000000000e+00  0.0000000000000000e+00 0.0000000000000000e+00 0.0000000000000000e+00  0.0000000000000000e+00 0.0000000000000000e+00 0.0000000000000000e+00  0.0000000000000000e+00 0.0000000000000000e+00 0.0000000000000000e+00  0.0000000000000000e+00 0.0000000000000000e+00 0.0000000000000000e+00  0.0000000000000000e+00 0.0000000000000000e+00 0.0000000000000000e+00  0.0000000000000000e+00 0.0000000000000000e+00 0.0000000000000000e+00  0.0000000000000000e+00 0.0000000000000000e+00 0.0000000000000000e+00  0.0000000000000000e+00 0.0000000000000000e+00 0.0000000000000000e+00  0.0000000000000000e+00 0.0000000000000000e+00 0.0000000000000000e+00  2.0907935341214826e-07 -2.3824817621593622e-06 0.0000000000000000e+00  5.1429613029279582e-07 -2.7455597483345985e-06 0.0000000000000000e+00  9.1795067918107972e-07 -3.1098263079316580e-06 0.0000000000000000e+00  1.3901408168919876e-06 -3.5383385670628065e-06 0.0000000000000000e+00  1.8441748067093894e-06 -4.0828623646665224e-06 0.0000000000000000e+00  2.3008634880439157e-06 -4.7781515002152498e-06 0.0000000000000000e+00  2.7077516925474533e-06 -5.5682664532845962e-06 0.0000000000000000e+00  3.0860425740339671e-06 -6.4898489470446834e-06 0.0000000000000000e+00  3.4720020146605619e-06 -7.5136659924016986e-06 0.0000000000000000e+00  3.7921254326101026e-06 -8.6369318986686145e-06 0.0000000000000000e+00  4.1214512039098518e-06 -9.8766211957570953e-06 0.0000000000000000e+00  4.3869928920328197e-06 -1.1202280135834557e-05 0.0000000000000000e+00  4.6498409643261940e-06 -1.2629544020904348e-05 0.0000000000000000e+00  4.8645100549080210e-06 -1.4136757175511775e-05 0.0000000000000000e+00  5.0479123024603246e-06 -1.5736792588943011e-05 0.0000000000000000e+00  5.2296175524608461e-06 -1.7417675474207566e-05 0.0000000000000000e+00  5.3531814760669147e-06 -1.9163025382157211e-05 0.0000000000000000e+00  5.4731734456295510e-06 -2.0999819429509405e-05 0.0000000000000000e+00  5.5393229554209186e-06 -2.2887556482272358e-05 0.0000000000000000e+00  5.5996631625950965e-06 -2.4856036853916871e-05 0.0000000000000000e+00  5.6137851947990509e-06 -2.6871479590975403e-05 0.0000000000000000e+00  5.6097264223131466e-06 -2.8957202077019496e-05 0.0000000000000000e+00  5.5702225375853171e-06 -3.1089839988331401e-05 0.0000000000000000e+00  5.4999381496790670e-06 -3.3277126245934930e-05 0.0000000000000000e+00  5.4190398384387690e-06 -3.5514485219016970e-05 0.0000000000000000e+00  5.2972740938624100e-06 -3.7787329158608026e-05 0.0000000000000000e+00  5.1498576392552549e-06 -4.0121935281291505e-05 0.0000000000000000e+00  4.9725060265425990e-06 -4.2477265403223480e-05 0.0000000000000000e+00  4.7691683284641727e-06 -4.4886512833357889e-05 0.0000000000000000e+00  4.5361771930346035e-06 -4.7315004294043938e-05 0.0000000000000000e+00  4.2782262249865937e-06 -4.9789448925338513e-05 0.0000000000000000e+00  3.9891370645975625e-06 -5.2277452801860861e-05 0.0000000000000000e+00  3.6770149570827137e-06 -5.4807656331382118e-05 0.0000000000000000e+00  3.3330668861667730e-06 -5.7343213326874750e-05 0.0000000000000000e+00  2.9618584554094012e-06 -5.9919601867386204e-05 0.0000000000000000e+00  2.5628136750657899e-06 -6.2498015004331365e-05 0.0000000000000000e+00  2.1382010760567591e-06 -6.5108948733677178e-05 0.0000000000000000e+00  1.6849961117132445e-06 -6.7719042882734195e-05 0.0000000000000000e+00  1.2048188029430231e-06 -7.0356904188172565e-05 0.0000000000000000e+00  6.9466213580926879e-07 -7.2991204476824368e-05 0.0000000000000000e+00  1.5565315350980083e-07 -7.5644223416023294e-05 0.0000000000000000e+00  -4.0764745077168581e-07 -7.8297512063817861e-05 0.0000000000000000e+00  -1.0029120158320488e-06 -8.0961385818131661e-05 0.0000000000000000e+00  -1.6139350085049293e-06 -8.3626544804403226e-05 0.0000000000000000e+00  -2.2571000737620829e-06 -8.6286213969231785e-05 0.0000000000000000e+00  -2.9073846638109551e-06 -8.8973764895764867e-05 0.0000000000000000e+00  -5.4978268736952282e-06 -9.1134395082357602e-05 0.0000000000000000e+00  -9.1251352323849163e-06 -8.9869709393120855e-05 0.0000000000000000e+00  -1.0169273767026413e-05 -8.6602718770652367e-05 0.0000000000000000e+00  -9.5062396147735897e-06 -8.3865397731934258e-05 0.0000000000000000e+00  -8.8496533645096673e-06 -8.1115875324602729e-05 0.0000000000000000e+00  -8.2214718402730126e-06 -7.8381259721131246e-05 0.0000000000000000e+00  -7.6096278314457577e-06 -7.5652282439473027e-05 0.0000000000000000e+00  -7.0285529901782867e-06 -7.2931412256411134e-05 0.0000000000000000e+00  -6.4640856026806076e-06 -7.0220432329966452e-05 0.0000000000000000e+00  -5.9295504268531997e-06 -6.7512507911916423e-05 0.0000000000000000e+00  -5.4132902148691742e-06 -6.4827705605663939e-05 0.0000000000000000e+00  -4.9245746101061403e-06 -6.2142404909805272e-05 0.0000000000000000e+00  -4.4528581598752075e-06 -5.9484914139983940e-05 0.0000000000000000e+00  -4.0093495655103416e-06 -5.6831585480928670e-05 0.0000000000000000e+00  -3.5807249079386892e-06 -5.4210711859383700e-05 0.0000000000000000e+00  -3.1806849447468001e-06 -5.1598680336024479e-05 0.0000000000000000e+00  -2.7935085991016715e-06 -4.9023907947888831e-05 0.0000000000000000e+00  -2.4363385701556798e-06 -4.6462740892494623e-05 0.0000000000000000e+00  -2.0899147466584148e-06 -4.3942534381204787e-05 0.0000000000000000e+00  -1.7755934890510699e-06 -4.1440859989350792e-05 0.0000000000000000e+00  -1.4700465406145266e-06 -3.8987026342768466e-05 0.0000000000000000e+00  -1.1973014770414346e-06 -3.6557949655152851e-05 0.0000000000000000e+00  -9.3040580012636248e-07 -3.4181770460139180e-05 0.0000000000000000e+00  -6.9848336897365885e-07 -3.1836627125116931e-05 0.0000000000000000e+00  -4.7484539145265436e-07 -2.9545162315289477e-05 0.0000000000000000e+00  -2.7912212473934478e-07 -2.7296329950869731e-05 0.0000000000000000e+00  -1.0907552943913547e-07 -2.5106928879404980e-05 0.0000000000000000e+00  6.1727912711330865e-08 -2.2966043136177874e-05 0.0000000000000000e+00  1.9868085527972547e-07 -2.0880508086175485e-05 0.0000000000000000e+00  3.2423793802738366e-07 -1.8869124153662396e-05 0.0000000000000000e+00  4.2307786603120161e-07 -1.6908041826125850e-05 0.0000000000000000e+00  5.0929721337226832e-07 -1.5030942947936139e-05 0.0000000000000000e+00  5.6941454493544342e-07 -1.3209248705281475e-05 0.0000000000000000e+00  6.2310072322051888e-07 -1.1484964324201402e-05 0.0000000000000000e+00  6.4573769479731948e-07 -9.8218125997837428e-06 0.0000000000000000e+00  6.4499242683811890e-07 -8.2622527578339430e-06 0.0000000000000000e+00  6.5285392835700595e-07 -6.7730844352835290e-06 0.0000000000000000e+00  6.2517418471059237e-07 -5.3849741737062318e-06 0.0000000000000000e+00  5.8929470067541884e-07 -4.1032240724080378e-06 0.0000000000000000e+00  5.2582529213448878e-07 -2.9119679934329089e-06 0.0000000000000000e+00  4.6281722555340120e-07 -1.8456529642328485e-06 0.0000000000000000e+00  3.6327831188722166e-07 -8.7102766458908895e-07 0.0000000000000000e+00  2.4160077475009574e-07 -3.1371893908465011e-08 0.0000000000000000e+00  1.3958916279213735e-07 7.0746168335269332e-07 0.0000000000000000e+00  -2.1355085491904257e-09 1.3314882629338939e-06 0.0000000000000000e+00  -1.0379403382835466e-07 1.8178763235541313e-06 0.0000000000000000e+00  -1.8153095750591170e-07 2.1001991810562766e-06 0.0000000000000000e+00  -1.2227334566880295e-07 2.1158636332011835e-06 0.0000000000000000e+00  -3.1863319812726860e-07 -1.4626486355424934e-07 0.0000000000000000e+00  -6.2291314386174558e-06 -8.6436749282962550e-05 0.0000000000000000e+00  -4.9186272562354713e-06 -8.1275366080459902e-05 0.0000000000000000e+00  -3.1169690297631510e-06 -7.2859228095298984e-05 0.0000000000000000e+00  5.2681430727183330e-07 -7.7539680022463510e-07 0.0000000000000000e+00  -2.1344613675313093e-06 -6.7594264521384360e-05 0.0000000000000000e+00  1.0899408557745475e-06 -1.8591155626127729e-06 0.0000000000000000e+00  -1.1896602875175486e-06 -6.2295886303294102e-05 0.0000000000000000e+00  1.8619709701903186e-06 -4.6168969003553574e-06 0.0000000000000000e+00  2.2634575930624177e-06 -6.9231191653837337e-06 0.0000000000000000e+00  -3.4432660714937822e-07 -5.7060782246006176e-05 0.0000000000000000e+00  2.8239087118639970e-06 -1.4443312568718326e-05 0.0000000000000000e+00  1.0516332945614057e-06 -4.6853653082191903e-05 0.0000000000000000e+00  2.5350278105340451e-06 -9.4958058209608718e-06 0.0000000000000000e+00  2.9202091527441978e-06 -1.7970557163322090e-05 0.0000000000000000e+00  1.6038351238302255e-06 -4.1920434606934803e-05 0.0000000000000000e+00  4.0256809751202085e-07 -5.1906863605162508e-05 0.0000000000000000e+00  2.8968905003591386e-06 -2.1823006323498851e-05 0.0000000000000000e+00  2.0591706364797246e-06 -3.7130477219680648e-05 0.0000000000000000e+00  2.7502015798540306e-06 -2.5732905108448867e-05 0.0000000000000000e+00  2.4534085908222679e-06 -3.2623035589265763e-05 0.0000000000000000e+00  2.6274912892878090e-06 -2.8987793963936523e-05 0.0000000000000000e+00  2.7243008619128054e-06 -1.1804159812249289e-05 0.0000000000000000e+00  -4.0961854027945203e-06 -7.7205007636735621e-05 0.0000000000000000e+00  1.4910559725036159e-06 -3.0919805601615470e-06 0.0000000000000000e+00  -6.8232365900665354e-06 -8.3408301160268976e-05 0.0000000000000000e+00  -1.1490132846316147e-09 5.2299039264664316e-07 0.0000000000000000e+00  -2.6790162168766080e-06 -6.4513746240824719e-05 0.0000000000000000e+00  -3.6829606623798502e-06 -6.9854641923109868e-05 0.0000000000000000e+00  1.1024663786545117e-06 -2.1613552923480778e-06 0.0000000000000000e+00  2.5262810745287608e-06 -6.3842355232478020e-06 0.0000000000000000e+00  -2.4194856994034391e-07 -4.8890758575129633e-05 0.0000000000000000e+00  -1.7714679552569614e-06 -5.9227486362631993e-05 0.0000000000000000e+00  3.5888277120921292e-06 -1.6760327938166933e-05 0.0000000000000000e+00  3.8251604167871088e-07 -4.3877825739496806e-05 0.0000000000000000e+00  2.9507691511196445e-06 -8.8921853333335347e-06 0.0000000000000000e+00  3.6655447088744851e-06 -2.0459790753963860e-05 0.0000000000000000e+00  9.1391216603768993e-07 -3.8996587481354048e-05 0.0000000000000000e+00  -9.5965660771567543e-07 -5.4013303398335094e-05 0.0000000000000000e+00  3.8203050767393368e-06 -2.4529772999629650e-05 0.0000000000000000e+00  1.3534047560267060e-06 -3.4270423569158896e-05 0.0000000000000000e+00  -3.9143071490410778e-07 -5.6975744456098720e-07 0.0000000000000000e+00  -4.3976930516425567e-07 4.6704099852426617e-07 0.0000000000000000e+00  -5.9513828504118542e-06 -8.8844457737240667e-05 0.0000000000000000e+00  3.3671055243840307e-07 -1.4