<?xml version="1.0"?>
<VTKFile type="UnstructuredGrid"  version="0.1"  >
<UnstructuredGrid>
<Piece  NumberOfPoints="1419" NumberOfCells="2698">
<Points>
<DataArray  type="Float64"  NumberOfComponents="3"  format="ascii">0 0 0  0 0.41 0  2.5 0 0  2.5 0.41 0  0.6 0.19 0  0.6 0.21 0  0.25 0.2 0  0.15 0.2 0  0.2489897948556636 0.21 0  0.2489897948556636 0.19 0  0.6 0.2 0  0 0.3807142857143437 0  0 0.3514285714286952 0  0 0.3221428571430699 0  0 0.29285714285744 0  0 0.2635714285718054 0  0 0.2342857142861561 0  0 0.2050000000005308 0  0 0.175714285714732 0  0 0.1464285714289574 0  0 0.1171428571431897 0  0 0.08785714285737878 0  0 0.05857142857161107 0  0 0.02928571428580012 0  0.03015443760436003 0 0  0.06140001986583606 0 0  0.09377624077125973 0 0  0.1273239957535082 0 0  0.1620856860351972 0 0  0.1981052433264291 0 0  0.235428184091502 0 0  0.2741016576309132 0 0  0.3141745521465447 0 0  0.3556974926295285 0 0  0.3987229542472677 0 0  0.4433053055141081 0 0  0.4895008759286886 0 0  0.5373680609405097 0 0  0.5869673343216626 0 0  0.6383613676634521 0 0  0.6916151138468254 0 0  0.7467958595648856 0 0  0.8039733463919316 0 0  0.8632198139502143 0 0  0.9246101326867038 0 0  0.9882218810934433 0 0  1.054135445558498 0 0  1.122434100542598 0 0  1.193204177141305 0 0  1.266535089879536 0 0  1.342519516046404 0 0  1.421253448503939 0 0  1.502836389106271 0 0  1.587371439758838 0 0  1.674965418777374 0 0  1.765729001825544 0 0  1.859776908880082 0 0  1.957227977487062 0 0  2.058205329869943 0 0  2.162836591189951 0 0  2.271253957290865 0 0  2.383594446803425 0 0  2.5 0.1024999999997612 0  2.5 0.2049999999994743 0  2.5 0.3074999999997183 0  2.383594446803656 0.41 0  2.271253957291315 0.41 0  2.162836591190598 0.41 0  2.058205329870775 0.41 0  1.957227977488067 0.41 0  1.859776908881246 0.41 0  1.765729001826854 0.41 0  1.674965418778818 0.41 0  1.58737143976041 0.41 0  1.502836389107956 0.41 0  1.421253448505726 0.41 0  1.342519516048286 0.41 0  1.266535089881505 0.41 0  1.193204177143353 0.41 0  1.122434100544716 0.41 0  1.05413544556068 0.41 0  0.9882218810956305 0.41 0  0.9246101326886647 0.41 0  0.8632198139519631 0.41 0  0.8039733463934788 0.41 0  0.7467958595662458 0.41 0  0.6916151138480078 0.41 0  0.6383613676644679 0.41 0  0.5869673343225223 0.41 0  0.5373680609412221 0.41 0  0.4895008759292634 0.41 0  0.4433053055145528 0.41 0  0.3987229542475914 0.41 0  0.3556974926297398 0.41 0  0.3141745521466497 0.41 0  0.2741016576310038 0.41 0  0.2354281840915826 0.41 0  0.1981052433265003 0.41 0  0.1620856860352591 0.41 0  0.1273239957535623 0.41 0  0.09377624077128965 0.41 0  0.06140001986584975 0.41 0  0.03015443760436654 0.41 0  0.2497468076502589 0.2050254481002335 0  0.2497468076502614 0.1949745518997913 0  0.2469965252529372 0.1829317073451959 0  0.2439893735792749 0.1762316384219906 0  0.2400332147834255 0.1700443375285386 0  0.2352133972704371 0.1645032867342007 0  0.2296339016332438 0.1597280261969788 0  0.2234150974217223 0.1558215752574715 0  0.2166911463437691 0.1528682099456123 0  0.2096071079204251 0.1509316448471593 0  0.2023158100364996 0.1500536585536553 0  0.194974551899914 0.1502531923497262 0  0.1877417105387872 0.1515259415822739 0  0.1807733240461124 0.153844448527136 0  0.1742197252835808 0.15715869474974 0  0.1682222986673531 0.1613971801805478 0  0.162910430003803 0.1664684656256651 0  0.1583987151779087 0.1722631454351573 0  0.1547844879126891 0.178656207771761 0  0.1521457199348551 0.1855097315605723 0  0.1505393388476355 0.1926758619366523 0  0.1505393388476328 0.2073241380633295 0  0.1521457199348437 0.2144902684393899 0  0.1547844879126531 0.221343792228163 0  0.1583987151778488 0.2277368545647528 0  0.1629104300036858 0.2335315343742052 0  0.1682222986671726 0.2386028198193036 0  0.1742197252833576 0.2428413052501257 0  0.1807733240458683 0.2461555514727623 0  0.1877417105384929 0.2484740584176516 0  0.1949745518995776 0.2497468076502398 0  0.202315810036185 0.2499463414463592 0  0.2096071079201568 0.2490683551528932 0  0.2166911463435495 0.2471317900544655 0  0.2234150974215506 0.2441784247426195 0  0.2296339016331197 0.2402719738031125 0  0.2352133972703547 0.2354967132658811 0  0.2400332147833751 0.2299556624715287 0  0.2439893735792577 0.2237683615780412 0  0.246996525252926 0.2170682926548348 0  0.25645809709277 0.21 0  0.2639263993298655 0.21 0  0.271394701566961 0.21 0  0.2788630038040554 0.21 0  0.2863313060411479 0.21 0  0.2937996082782405 0.21 0  0.301267910515333 0.21 0  0.3087362127524279 0.21 0  0.3162045149895234 0.21 0  0.3236728172265972 0.21 0  0.3311411194636928 0.21 0  0.3386094217007701 0.21 0  0.3460777239378666 0.21 0  0.3535460261749672 0.21 0  0.3610143284120516 0.21 0  0.3684826306491596 0.21 0  0.3759509328862226 0.21 0  0.383419235123329 0.21 0  0.3908875373604028 0.21 0  0.3983558395975142 0.21 0  0.4058241418345938 0.21 0  0.4132924440716992 0.21 0  0.4207607463087888 0.21 0  0.4282290485459029 0.21 0  0.4356973507830418 0.21 0  0.4431656530201649 0.21 0  0.4506339552573136 0.21 0  0.4581022574944306 0.21 0  0.4655705597315852 0.21 0  0.4730388619686996 0.21 0  0.480507164205851 0.21 0  0.4879754664429498 0.21 0  0.4954437686800938 0.21 0  0.502912070917267 0.21 0  0.5103803731544119 0.21 0  0.5178486753915261 0.21 0  0.5253169776286404 0.21 0  0.5327852798657868 0.21 0  0.5402535821029386 0.21 0  0.54772188434007 0.21 0  0.5551901865771842 0.21 0  0.5626584888143201 0.21 0  0.5701267910514778 0.21 0  0.5775950932886138 0.21 0  0.5850633955257281 0.21 0  0.5925316977628483 0.21 0  0.6 0.2050000000000054 0  0.6 0.1950000000000217 0  0.5925316977628897 0.19 0  0.5850633955257988 0.19 0  0.5775950932887378 0.19 0  0.5701267910515998 0.19 0  0.5626584888145268 0.19 0  0.5551901865773963 0.19 0  0.547721884340339 0.19 0  0.5402535821032429 0.19 0  0.5327852798661811 0.19 0  0.5253169776290537 0.19 0  0.5178486753919799 0.19 0  0.5103803731549078 0.19 0  0.502912070917822 0.19 0  0.4954437686807294 0.19 0  0.4879754664436223 0.19 0  0.4805071642065402 0.19 0  0.4730388619694271 0.19 0  0.4655705597323621 0.19 0  0.4581022574952563 0.19 0  0.4506339552581777 0.19 0  0.4431656530210671 0.19 0  0.4356973507839815 0.19 0  0.4282290485468779 0.19 0  0.4207607463097617 0.19 0  0.4132924440726327 0.19 0  0.4058241418354857 0.19 0  0.3983558395983636 0.19 0  0.3908875373612097 0.19 0  0.3834192351240934 0.19 0  0.3759509328869369 0.19 0  0.3684826306498175 0.19 0  0.361014328412667 0.19 0  0.3535460261755617 0.19 0  0.3460777239384295 0.19 0  0.3386094217012945 0.19 0  0.3311411194641595 0.19 0  0.3236728172270245 0.19 0  0.3162045149898895 0.19 0  0.3087362127527544 0.19 0  0.3012679105156187 0.19 0  0.2937996082784807 0.19 0  0.2863313060413428 0.19 0  0.2788630038042048 0.19 0  0.2713947015670686 0.19 0  0.2639263993299336 0.19 0  0.2564580970927985 0.19 0  0.2607803159922026 0.2000727136295815 0  0.5887803774232762 0.2001272386983733 0  0.5745072403740523 0.2002044435018727 0  0.5511891430099709 0.2001122610077113 0  0.2751288526855082 0.20000000000002 0  0.5365194309847112 0.1999999999999436 0  0.2894621222999649 0.1998691686390484 0  0.5215828265105155 0.1999999999999228 0  0.3127789816668748 0.1998657885438805 0  0.3274069683451451 0.2000000000000796 0  0.5066462220363641 0.199999999999908 0  0.3650630746574081 0.199866017807523 0  0.476773013087985 0.1999999999998713 0  0.3417402379596385 0.1998691686391011 0  0.3796850840047755 0.200000000000134 0  0.4618364086138087 0.1999999999998546 0  0.4917096175621762 0.1999999999998808 0  0.3946216884789568 0.2000000000001512 0  0.446899804139621 0.1999999999998389 0  0.4089549580935208 0.1998691686391595 0  0.4322718174608562 0.200127451265745 0  0.4201487168029707 0.1999966199048527 0  0.3528922713220932 0.2000185703532356 0  0.5633122436674589 0.1999814296467508 0  0.3006558810093873 0.1999966199048318 0  0.5815926498168407 0.1966545283159175 0  0.2677053789419034 0.1964246479135325 0  0.5290511287476175 0.1970915826863981 0  0.5439877332217911 0.197091582686394 0  0.2825131256993216 0.2035478995978015 0  0.3199386661080599 0.202908417313604 0  0.4842413153250809 0.1970915826863873 0  0.5141145242734466 0.1970915826863843 0  0.3722167817676917 0.2029084173136195 0  0.4693047108508938 0.1970915826863783 0  0.3348752705822316 0.202908417313609 0  0.3871533862418661 0.2029084173136212 0  0.4543681063767183 0.1970915826863795 0  0.4991779197992749 0.1970915826863902 0  0.4020059614928624 0.203547899597858 0  0.4394315019025246 0.1970915826863714 0  0.2550657455369551 0.2034088125358657 0  0.2548908499171161 0.1966940311614271 0  0.5946539510196798 0.2024302972968126 0  0.267698176732111 0.2039977513680092 0  0.4261685417851465 0.196409292431739 0  0.3590076176283495 0.196411355804271 0  0.5571672426447437 0.2036011176410121 0  0.3066757059912147 0.1964092924317024 0  0.594380730180568 0.1966558399668133 0  0.4842413153245942 0.2040749161535287 0  0.4693047108503577 0.2040749161535231 0  0.3871533862424271 0.1959250838464788 0  0.372246743208829 0.1959123236376545 0  0.5141145242731028 0.2040749161535395 0  0.4543681063761134 0.2040749161535186 0  0.4019979587101454 0.1959834479682427 0  0.4394608940728603 0.2040870543693135 0  0.5439623148931173 0.2040856076781014 0  0.5290511287473298 0.2040749161535501 0  0.4991779197988497 0.2040749161535382 0  0.3347912413592433 0.1959225448935183 0  0.3199680582793816 0.1959123018030061 0  0.2825051229162361 0.1959834479681729 0  0.3590471196690275 0.2036304442587945 0  0.5571594006495384 0.1963685282145804 0  0.3067669986803285 0.203627750582736 0  0.4262598344738712 0.2036568242185335 0  0.5814408164431408 0.2041285596160068 0  0.5688286748170428 0.1961819304477386 0  0.4145905603063645 0.2038180695522843 0  0.3473758401724931 0.2038180695522752 0  0.2950977245128307 0.2038180695522663 0  0.5688286748170693 0.203818069552238 0  0.2950977245127906 0.1961819304477774 0  0.3473758401723931 0.1961819304478349 0  0.4145905603061963 0.1961819304479011 0  0.2601812407614425 0.2056861609747042
[...]
<PointData  Vectors="f_40-1"> 
<DataArray  type="Float64"  Name="f_40-1"  NumberOfComponents="3" format="ascii">0.0000000000000000e+00 0.0000000000000000e+00 0.0000000000000000e+00  0.0000000000000000e+00 0.0000000000000000e+00 0.0000000000000000e+00  0.0000000000000000e+00 0.0000000000000000e+00 0.0000000000000000e+00  0.0000000000000000e+00 0.0000000000000000e+00 0.0000000000000000e+00  -1.1393032709511859e-05 -1.8184408008352690e-04 0.0000000000000000e+00  3.2655350814944233e-06 -1.8497673809929642e-04 0.0000000000000000e+00  0.0000000000000000e+00 0.0000000000000000e+00 0.0000000000000000e+00  0.0000000000000000e+00 0.0000000000000000e+00 0.0000000000000000e+00  0.0000000000000000e+00 0.0000000000000000e+00 0.0000000000000000e+00  0.0000000000000000e+00 0.0000000000000000e+00 0.0000000000000000e+00  -4.3308427386722061e-06 -1.8340976368711983e-04 0.0000000000000000e+00  0.0000000000000000e+00 0.0000000000000000e+00 0.0000000000000000e+00  0.0000000000000000e+00 0.0000000000000000e+00 0.0000000000000000e+00  0.0000000000000000e+00 0.0000000000000000e+00 0.0000000000000000e+00  0.0000000000000000e+00 0.0000000000000000e+00 0.0000000000000000e+00  0.0000000000000000e+00 0.0000000000000000e+00 0.0000000000000000e+00  0.0000000000000000e+00 0.0000000000000000e+00 0.0000000000000000e+00  0.0000000000000000e+00 0.0000000000000000e+00 0.0000000000000000e+00  0.0000000000000000e+00 0.0000000000000000e+00 0.0000000000000000e+00  0.0000000000000000e+00 0.0000000000000000e+00 0.0000000000000000e+00  0.0000000000000000e+00 0.0000000000000000e+00 0.0000000000000000e+00  0.0000000000000000e+00 0.0000000000000000e+00 0.0000000000000000e+00  0.0000000000000000e+00 0.0000000000000000e+00 0.0000000000000000e+00  0.0000000000000000e+00 0.0000000000000000e+00 0.0000000000000000e+00  0.0000000000000000e+00 0.0000000000000000e+00 0.0000000000000000e+00  0.0000000000000000e+00 0.0000000000000000e+00 0.0000000000000000e+00  0.0000000000000000e+00 0.0000000000000000e+00 0.0000000000000000e+00  0.0000000000000000e+00 0.0000000000000000e+00 0.0000000000000000e+00  0.0000000000000000e+00 0.0000000000000000e+00 0.0000000000000000e+00  0.0000000000000000e+00 0.0000000000000000e+00 0.0000000000000000e+00  0.0000000000000000e+00 0.0000000000000000e+00 0.0000000000000000e+00  0.0000000000000000e+00 0.0000000000000000e+00 0.0000000000000000e+00  0.0000000000000000e+00 0.0000000000000000e+00 0.0000000000000000e+00  0.0000000000000000e+00 0.0000000000000000e+00 0.0000000000000000e+00  0.0000000000000000e+00 0.0000000000000000e+00 0.0000000000000000e+00  0.0000000000000000e+00 0.0000000000000000e+00 0.0000000000000000e+00  0.0000000000000000e+00 0.0000000000000000e+00 0.0000000000000000e+00  0.0000000000000000e+00 0.0000000000000000e+00 0.0000000000000000e+00  0.0000000000000000e+00 0.0000000000000000e+00 0.0000000000000000e+00  0.0000000000000000e+00 0.0000000000000000e+00 0.0000000000000000e+00  0.0000000000000000e+00 0.0000000000000000e+00 0.0000000000000000e+00  0.0000000000000000e+00 0.0000000000000000e+00 0.0000000000000000e+00  0.0000000000000000e+00 0.0000000000000000e+00 0.0000000000000000e+00  0.0000000000000000e+00 0.0000000000000000e+00 0.0000000000000000e+00  0.0000000000000000e+00 0.0000000000000000e+00 0.0000000000000000e+00  0.0000000000000000e+00 0.0000000000000000e+00 0.0000000000000000e+00  0.0000000000000000e+00 0.0000000000000000e+00 0.0000000000000000e+00  0.0000000000000000e+00 0.0000000000000000e+00 0.0000000000000000e+00  0.0000000000000000e+00 0.0000000000000000e+00 0.0000000000000000e+00  0.0000000000000000e+00 0.0000000000000000e+00 0.0000000000000000e+00  0.0000000000000000e+00 0.0000000000000000e+00 0.0000000000000000e+00  0.0000000000000000e+00 0.0000000000000000e+00 0.0000000000000000e+00  0.0000000000000000e+00 0.0000000000000000e+00 0.0000000000000000e+00  0.0000000000000000e+00 0.0000000000000000e+00 0.0000000000000000e+00  0.0000000000000000e+00 0.0000000000000000e+00 0.0000000000000000e+00  0.0000000000000000e+00 0.0000000000000000e+00 0.0000000000000000e+00  0.0000000000000000e+00 0.0000000000000000e+00 0.0000000000000000e+00  0.0000000000000000e+00 0.0000000000000000e+00 0.0000000000000000e+00  0.0000000000000000e+00 0.0000000000000000e+00 0.0000000000000000e+00  0.0000000000000000e+00 0.0000000000000000e+00 0.0000000000000000e+00  0.0000000000000000e+00 0.0000000000000000e+00 0.0000000000000000e+00  0.0000000000000000e+00 0.0000000000000000e+00 0.0000000000000000e+00  0.0000000000000000e+00 0.0000000000000000e+00 0.0000000000000000e+00  0.0000000000000000e+00 0.0000000000000000e+00 0.0000000000000000e+00  0.0000000000000000e+00 0.0000000000000000e+00 0.0000000000000000e+00  0.0000000000000000e+00 0.0000000000000000e+00 0.0000000000000000e+00  0.0000000000000000e+00 0.0000000000000000e+00 0.0000000000000000e+00  0.0000000000000000e+00 0.0000000000000000e+00 0.0000000000000000e+00  0.0000000000000000e+00 0.0000000000000000e+00 0.0000000000000000e+00  0.0000000000000000e+00 0.0000000000000000e+00 0.0000000000000000e+00  0.0000000000000000e+00 0.0000000000000000e+00 0.0000000000000000e+00  0.0000000000000000e+00 0.0000000000000000e+00 0.0000000000000000e+00  0.0000000000000000e+00 0.0000000000000000e+00 0.0000000000000000e+00  0.0000000000000000e+00 0.0000000000000000e+00 0.0000000000000000e+00  0.0000000000000000e+00 0.0000000000000000e+00 0.0000000000000000e+00  0.0000000000000000e+00 0.0000000000000000e+00 0.0000000000000000e+00  0.0000000000000000e+00 0.0000000000000000e+00 0.0000000000000000e+00  0.0000000000000000e+00 0.0000000000000000e+00 0.0000000000000000e+00  0.0000000000000000e+00 0.0000000000000000e+00 0.0000000000000000e+00  0.0000000000000000e+00 0.0000000000000000e+00 0.0000000000000000e+00  0.0000000000000000e+00 0.0000000000000000e+00 0.0000000000000000e+00  0.0000000000000000e+00 0.0000000000000000e+00 0.0000000000000000e+00  0.0000000000000000e+00 0.0000000000000000e+00 0.0000000000000000e+00  0.0000000000000000e+00 0.0000000000000000e+00 0.0000000000000000e+00  0.0000000000000000e+00 0.0000000000000000e+00 0.0000000000000000e+00  0.0000000000000000e+00 0.0000000000000000e+00 0.0000000000000000e+00  0.0000000000000000e+00 0.0000000000000000e+00 0.0000000000000000e+00  0.0000000000000000e+00 0.0000000000000000e+00 0.0000000000000000e+00  0.0000000000000000e+00 0.0000000000000000e+00 0.0000000000000000e+00  0.0000000000000000e+00 0.0000000000000000e+00 0.0000000000000000e+00  0.0000000000000000e+00 0.0000000000000000e+00 0.0000000000000000e+00  0.0000000000000000e+00 0.0000000000000000e+00 0.0000000000000000e+00  0.0000000000000000e+00 0.0000000000000000e+00 0.0000000000000000e+00  0.0000000000000000e+00 0.0000000000000000e+00 0.0000000000000000e+00  0.0000000000000000e+00 0.0000000000000000e+00 0.0000000000000000e+00  0.0000000000000000e+00 0.0000000000000000e+00 0.0000000000000000e+00  0.0000000000000000e+00 0.0000000000000000e+00 0.0000000000000000e+00  0.0000000000000000e+00 0.0000000000000000e+00 0.0000000000000000e+00  0.0000000000000000e+00 0.0000000000000000e+00 0.0000000000000000e+00  0.0000000000000000e+00 0.0000000000000000e+00 0.0000000000000000e+00  0.0000000000000000e+00 0.0000000000000000e+00 0.0000000000000000e+00  0.0000000000000000e+00 0.0000000000000000e+00 0.0000000000000000e+00  0.0000000000000000e+00 0.0000000000000000e+00 0.0000000000000000e+00  0.0000000000000000e+00 0.0000000000000000e+00 0.0000000000000000e+00  0.0000000000000000e+00 0.0000000000000000e+00 0.0000000000000000e+00  0.0000000000000000e+00 0.0000000000000000e+00 0.0000000000000000e+00  0.0000000000000000e+00 0.0000000000000000e+00 0.0000000000000000e+00  0.0000000000000000e+00 0.0000000000000000e+00 0.0000000000000000e+00  0.0000000000000000e+00 0.0000000000000000e+00 0.0000000000000000e+00  0.0000000000000000e+00 0.0000000000000000e+00 0.0000000000000000e+00  0.0000000000000000e+00 0.0000000000000000e+00 0.0000000000000000e+00  0.0000000000000000e+00 0.0000000000000000e+00 0.0000000000000000e+00  0.0000000000000000e+00 0.0000000000000000e+00 0.0000000000000000e+00  0.0000000000000000e+00 0.0000000000000000e+00 0.0000000000000000e+00  0.0000000000000000e+00 0.0000000000000000e+00 0.0000000000000000e+00  0.0000000000000000e+00 0.0000000000000000e+00 0.0000000000000000e+00  0.0000000000000000e+00 0.0000000000000000e+00 0.0000000000000000e+00  0.0000000000000000e+00 0.0000000000000000e+00 0.0000000000000000e+00  0.0000000000000000e+00 0.0000000000000000e+00 0.0000000000000000e+00  0.0000000000000000e+00 0.0000000000000000e+00 0.0000000000000000e+00  0.0000000000000000e+00 0.0000000000000000e+00 0.0000000000000000e+00  0.0000000000000000e+00 0.0000000000000000e+00 0.0000000000000000e+00  0.0000000000000000e+00 0.0000000000000000e+00 0.0000000000000000e+00  0.0000000000000000e+00 0.0000000000000000e+00 0.0000000000000000e+00  0.0000000000000000e+00 0.0000000000000000e+00 0.0000000000000000e+00  0.0000000000000000e+00 0.0000000000000000e+00 0.0000000000000000e+00  0.0000000000000000e+00 0.0000000000000000e+00 0.0000000000000000e+00  0.0000000000000000e+00 0.0000000000000000e+00 0.0000000000000000e+00  0.0000000000000000e+00 0.0000000000000000e+00 0.0000000000000000e+00  0.0000000000000000e+00 0.0000000000000000e+00 0.0000000000000000e+00  0.0000000000000000e+00 0.0000000000000000e+00 0.0000000000000000e+00  0.0000000000000000e+00 0.0000000000000000e+00 0.0000000000000000e+00  0.0000000000000000e+00 0.0000000000000000e+00 0.0000000000000000e+00  0.0000000000000000e+00 0.0000000000000000e+00 0.0000000000000000e+00  0.0000000000000000e+00 0.0000000000000000e+00 0.0000000000000000e+00  0.0000000000000000e+00 0.0000000000000000e+00 0.0000000000000000e+00  0.0000000000000000e+00 0.0000000000000000e+00 0.0000000000000000e+00  0.0000000000000000e+00 0.0000000000000000e+00 0.0000000000000000e+00  0.0000000000000000e+00 0.0000000000000000e+00 0.0000000000000000e+00  0.0000000000000000e+00 0.0000000000000000e+00 0.0000000000000000e+00  0.0000000000000000e+00 0.0000000000000000e+00 0.0000000000000000e+00  0.0000000000000000e+00 0.0000000000000000e+00 0.0000000000000000e+00  0.0000000000000000e+00 0.0000000000000000e+00 0.0000000000000000e+00  5.0105289532341155e-07 -3.1198088194833260e-06 0.0000000000000000e+00  1.1492216733827529e-06 -3.7315714542036491e-06 0.0000000000000000e+00  1.9153801747318337e-06 -4.4492016551312506e-06 0.0000000000000000e+00  2.7877953382294507e-06 -5.3524900994484673e-06 0.0000000000000000e+00  3.6194442595288185e-06 -6.4964367276815491e-06 0.0000000000000000e+00  4.4794751613173647e-06 -7.9297462651401137e-06 0.0000000000000000e+00  5.2518100595196856e-06 -9.5575006906458213e-06 0.0000000000000000e+00  5.9879756685874075e-06 -1.1451592045395859e-05 0.0000000000000000e+00  6.7533458579976922e-06 -1.3551916888199337e-05 0.0000000000000000e+00  7.4029790344404369e-06 -1.5858607297150786e-05 0.0000000000000000e+00  8.0874972464975671e-06 -1.8394475907320656e-05 0.0000000000000000e+00  8.6575903801838529e-06 -2.1113199739136651e-05 0.0000000000000000e+00  9.2399334612007116e-06 -2.4035108544253483e-05 0.0000000000000000e+00  9.7355859954213978e-06 -2.7118460590292126e-05 0.0000000000000000e+00  1.0186029777976702e-05 -3.0393997784775713e-05 0.0000000000000000e+00  1.0644007008592745e-05 -3.3829384946942314e-05 0.0000000000000000e+00  1.1000962495992163e-05 -3.7404061100135080e-05 0.0000000000000000e+00  1.1365656777369503e-05 -4.1154278742408738e-05 0.0000000000000000e+00  1.1636042761896005e-05 -4.5018666402482054e-05 0.0000000000000000e+00  1.1908613362584334e-05 -4.9036220160479585e-05 0.0000000000000000e+00  1.2103140630700708e-05 -5.3158937031052063e-05 0.0000000000000000e+00  1.2278221211963088e-05 -5.7418359456681961e-05 0.0000000000000000e+00  1.2392161622198187e-05 -6.1771478841828021e-05 0.0000000000000000e+00  1.2461858157074400e-05 -6.6238338065797062e-05 0.0000000000000000e+00  1.2521166692651455e-05 -7.0799532109524341e-05 0.0000000000000000e+00  1.2515287646927119e-05 -7.5441142910113849e-05 0.0000000000000000e+00  1.2474191673503734e-05 -8.0194598566719693e-05 0.0000000000000000e+00  1.2386558651805044e-05 -8.5000064704884076e-05 0.0000000000000000e+00  1.2262775409857704e-05 -8.9903763769768049e-05 0.0000000000000000e+00  1.2093396713448302e-05 -9.4853124964034679e-05 0.0000000000000000e+00  1.1888822407708859e-05 -9.9886098780499363e-05 0.0000000000000000e+00  1.1637496428464617e-05 -1.0495311194175462e-04 0.0000000000000000e+00  1.1353283421842595e-05 -1.1009435021835667e-04 0.0000000000000000e+00  1.1021617843027347e-05 -1.1525564134922456e-04 0.0000000000000000e+00  1.0651558330220766e-05 -1.2048616190704758e-04 0.0000000000000000e+00  1.0239873021701768e-05 -1.2572850482549225e-04 0.0000000000000000e+00  9.7917077383973217e-06 -1.3102543198520705e-04 0.0000000000000000e+00  9.3013814907268423e-06 -1.3632735681676176e-04 0.0000000000000000e+00  8.7727686640051219e-06 -1.4167481323228292e-04 0.0000000000000000e+00  8.2005914619977863e-06 -1.4702117461000967e-04 0.0000000000000000e+00  7.5874504459381240e-06 -1.5239819639691854e-04 0.0000000000000000e+00  6.9385226671074994e-06 -1.5777748995684726e-04 0.0000000000000000e+00  6.2442964326343161e-06 -1.6317410888972328e-04 0.0000000000000000e+00  5.5274058982496645e-06 -1.6857370436065925e-04 0.0000000000000000e+00  4.7636342774746012e-06 -1.7396539742966344e-04 0.0000000000000000e+00  3.9865309522210361e-06 -1.7939382138718016e-04 0.0000000000000000e+00  -6.2526466772230916e-07 -1.8418518187800808e-04 0.0000000000000000e+00  -7.9384516602002215e-06 -1.8263553291364922e-04 0.0000000000000000e+00  -1.0648089519350629e-05 -1.7648952787131423e-04 0.0000000000000000e+00  -9.8518807149947748e-06 -1.7098703299247843e-04 0.0000000000000000e+00  -9.0671844212447158e-06 -1.6546901068582390e-04 0.0000000000000000e+00  -8.3220742634961155e-06 -1.5997390204158714e-04 0.0000000000000000e+00  -7.5997897248133118e-06 -1.5448789899416858e-04 0.0000000000000000e+00  -6.9192821917574815e-06 -1.4901575237930448e-04 0.0000000000000000e+00  -6.2602006401137807e-06 -1.4356026561388417e-04 0.0000000000000000e+00  -5.6428420201559040e-06 -1.3811277755314518e-04 0.0000000000000000e+00  -5.0476891845155675e-06 -1.3270272224963605e-04 0.0000000000000000e+00  -4.4914150978786695e-06 -1.2729796195018925e-04 0.0000000000000000e+00  -3.9541650327637590e-06 -1.2193892065233189e-04 0.0000000000000000e+00  -3.4573797428067228e-06 -1.1659407438804712e-04 0.0000000000000000e+00  -2.9756755099865437e-06 -1.1130460298759240e-04 0.0000000000000000e+00  -2.5354179286545554e-06 -1.0603926541918505e-04 0.0000000000000000e+00  -2.1060329579065720e-06 -1.0083877709481262e-04 0.0000000000000000e+00  -1.7211339095496706e-06 -9.5672253948747774e-05 0.0000000000000000e+00  -1.3425838413394967e-06 -9.0578887573674076e-05 0.0000000000000000e+00  -1.0125500398006803e-06 -8.5529554434757722e-05 0.0000000000000000e+00  -6.8505149895413448e-07 -8.0566814396616876e-05 0.0000000000000000e+00  -4.0806045971643035e-07 -7.5661001690962846e-05 0.0000000000000000e+00  -1.2764691505663187e-07 -7.0852666030647089e-05 0.0000000000000000e+00  9.7850010576749938e-08 -6.6113825977694968e-05 0.0000000000000000e+00  3.2405761398123121e-07 -6.1477978208907371e-05 0.0000000000000000e+00  5.0609991986336240e-07 -5.6928337913742568e-05 0.0000000000000000e+00  6.5521311002313184e-07 -5.2498961460356024e-05 0.0000000000000000e+00  8.1609051617779594e-07 -4.8164288918329848e-05 0.0000000000000000e+00  9.2693618846197373e-07 -4.3947597310746482e-05 0.0000000000000000e+00  1.0297649773980477e-06 -3.9870618671509262e-05 0.0000000000000000e+00  1.0943385838554731e-06 -3.5906996364091681e-05 0.0000000000000000e+00  1.1490361586824161e-06 -3.2102460981256177e-05 0.0000000000000000e+00  1.1662170974024627e-06 -2.8421566160067824e-05 0.0000000000000000e+00  1.1879193472466156e-06 -2.4930846798011252e-05 0.0000000000000000e+00  1.1571594997456446e-06 -2.1569164191192302e-05 0.0000000000000000e+00  1.0970803388574227e-06 -1.8416102763646576e-05 0.0000000000000000e+00  1.0654182324212073e-06 -1.5407439586993098e-05 0.0000000000000000e+00  9.7968698420972634e-07 -1.2607760396214595e-05 0.0000000000000000e+00  8.9293156004850024e-07 -1.0017722290728044e-05 0.0000000000000000e+00  7.6646485072650372e-07 -7.6207457516835744e-06 0.0000000000000000e+00  6.5913564401393685e-07 -5.4744057055612011e-06 0.0000000000000000e+00  4.9009636905371940e-07 -3.5170052849068238e-06 0.0000000000000000e+00  2.9727080599211950e-07 -1.8354439172677031e-06 0.0000000000000000e+00  1.5673748267670927e-07 -3.5713337913405816e-07 0.0000000000000000e+00  -4.1281503055142304e-08 8.7117903995257993e-07 0.0000000000000000e+00  -1.6352982095636419e-07 1.8287136686353704e-06 0.0000000000000000e+00  -2.6573438617630738e-07 2.4267661931295345e-06 0.0000000000000000e+00  -1.6652470211431090e-07 2.5908327312893182e-06 0.0000000000000000e+00  -2.2243730026798354e-07 -2.8298430917254217e-07 0.0000000000000000e+00  -2.9358899776605109e-06 -1.7520891378001072e-04 0.0000000000000000e+00  -1.3449292370676835e-06 -1.6479239689926855e-04 0.0000000000000000e+00  7.3051080097381741e-07 -1.4781162564400232e-04 0.0000000000000000e+00  1.0938047352007567e-06 -1.5729807918722484e-06 0.0000000000000000e+00  1.8134420567532841e-06 -1.3718642529473150e-04 0.0000000000000000e+00  2.0644831087880342e-06 -3.7985397627959566e-06 0.0000000000000000e+00  2.8649256015476444e-06 -1.2647370228407255e-04 0.0000000000000000e+00  3.4982096477520206e-06 -9.3981681273938773e-06 0.0000000000000000e+00  4.3134382137593656e-06 -1.4062119167786262e-05 0.0000000000000000e+00  3.7785419755647366e-06 -1.1588003447124702e-04 0.0000000000000000e+00  5.7180549688234851e-06 -2.9376610785125210e-05 0.0000000000000000e+00  5.1983910827347974e-06 -9.5200823292980336e-05 0.0000000000000000e+00  4.9194414403092359e-06 -1.9315002436915128e-05 0.0000000000000000e+00  6.1229728830155783e-06 -3.6530323368121435e-05 0.0000000000000000e+00  5.7070071248828334e-06 -8.5195312667447204e-05 0.0000000000000000e+00  4.5560070994544769e-06 -1.0544250929229295e-04 0.0000000000000000e+00  6.3471644440464879e-06 -4.4366664569266637e-05 0.0000000000000000e+00  6.0816360043603762e-06 -7.5473729329819506e-05 0.0000000000000000e+00  6.3658088617411546e-06 -5.2337102612786266e-05 0.0000000000000000e+00  6.4024822608755667e-06 -6.6302430509455670e-05 0.0000000000000000e+00  6.4103344529015661e-06 -5.8933845215803935e-05 0.0000000000000000e+00  5.3922555089931504e-06 -2.3984532631097545e-05 0.0000000000000000e+00  -4.4829638702084948e-07 -1.5659988788880124e-04 0.0000000000000000e+00  2.8000423934879069e-06 -6.2783525817954975e-06 0.0000000000000000e+00  -4.6743833951231871e-06 -1.6943420205518182e-04 0.0000000000000000e+00  1.7640002852514382e-07 3.6621580248865704e-07 0.0000000000000000e+00  2.7526955547027532e-07 -1.3128542561605526e-04 0.0000000000000000e+00  -8.6262177812565609e-07 -1.4206822327736439e-04 0.0000000000000000e+00  2.1660212166876116e-06 -3.7459709111464823e-06 0.0000000000000000e+00  4.8410951817824894e-06 -1.2472792000423948e-05 0.0000000000000000e+00  2.9057561215078396e-06 -9.9694476134437173e-05 0.0000000000000000e+00  1.2815585762050049e-06 -1.2060457090116216e-04 0.0000000000000000e+00  7.3694959544997586e-06 -3.3613749540330564e-05 0.0000000000000000e+00  3.5281565798879121e-06 -8.9542680688956729e-05 0.0000000000000000e+00  5.7324722243378897e-06 -1.7582219001136465e-05 0.0000000000000000e+00  7.7674521837081175e-06 -4.1149928978396970e-05 0.0000000000000000e+00  4.0247475492859255e-06 -7.9650862612824457e-05 0.0000000000000000e+00  2.1574099968798366e-06 -1.1006096931437228e-04 0.0000000000000000e+00  8.3811923959914808e-06 -4.9343495960320920e-05 0.0000000000000000e+00  4.3970085772992361e-06 -7.0067263851356757e-05 0.0000000000000000e+00  -3.8842793389180204e-07 -7.4316174866562907e-07 0.0000000000000000e+00  -4.9412907830328023e-07 5.7782844469124331e-07 0.0000000000000000e+00  -1.9270303136594017e-06 -1.7984345242655686e-04 0.0000000000000000e+00  8.5618015141802024e-07 -2.1071513751867109e-0