<?xml version="1.0"?>
<VTKFile type="UnstructuredGrid"  version="0.1"  >
<UnstructuredGrid>
<Piece  NumberOfPoints="1419" NumberOfCells="2698">
<Points>
<DataArray  type="Float64"  NumberOfComponents="3"  format="ascii">0 0 0  0 0.41 0  2.5 0 0  2.5 0.41 0  0.6 0.19 0  0.6 0.21 0  0.25 0.2 0  0.15 0.2 0  0.2489897948556636 0.21 0  0.2489897948556636 0.19 0  0.6 0.2 0  0 0.3807142857143437 0  0 0.3514285714286952 0  0 0.3221428571430699 0  0 0.29285714285744 0  0 0.2635714285718054 0  0 0.2342857142861561 0  0 0.2050000000005308 0  0 0.175714285714732 0  0 0.1464285714289574 0  0 0.1171428571431897 0  0 0.08785714285737878 0  0 0.05857142857161107 0  0 0.02928571428580012 0  0.03015443760436003 0 0  0.06140001986583606 0 0  0.09377624077125973 0 0  0.1273239957535082 0 0  0.1620856860351972 0 0  0.1981052433264291 0 0  0.235428184091502 0 0  0.2741016576309132 0 0  0.3141745521465447 0 0  0.3556974926295285 0 0  0.3987229542472677 0 0  0.4433053055141081 0 0  0.4895008759286886 0 0  0.5373680609405097 0 0  0.5869673343216626 0 0  0.6383613676634521 0 0  0.6916151138468254 0 0  0.7467958595648856 0 0  0.8039733463919316 0 0  0.8632198139502143 0 0  0.9246101326867038 0 0  0.9882218810934433 0 0  1.054135445558498 0 0  1.122434100542598 0 0  1.193204177141305 0 0  1.266535089879536 0 0  1.342519516046404 0 0  1.421253448503939 0 0  1.502836389106271 0 0  1.587371439758838 0 0  1.674965418777374 0 0  1.765729001825544 0 0  1.859776908880082 0 0  1.957227977487062 0 0  2.058205329869943 0 0  2.162836591189951 0 0  2.271253957290865 0 0  2.383594446803425 0 0  2.5 0.1024999999997612 0  2.5 0.2049999999994743 0  2.5 0.3074999999997183 0  2.383594446803656 0.41 0  2.271253957291315 0.41 0  2.162836591190598 0.41 0  2.058205329870775 0.41 0  1.957227977488067 0.41 0  1.859776908881246 0.41 0  1.765729001826854 0.41 0  1.674965418778818 0.41 0  1.58737143976041 0.41 0  1.502836389107956 0.41 0  1.421253448505726 0.41 0  1.342519516048286 0.41 0  1.266535089881505 0.41 0  1.193204177143353 0.41 0  1.122434100544716 0.41 0  1.05413544556068 0.41 0  0.9882218810956305 0.41 0  0.9246101326886647 0.41 0  0.8632198139519631 0.41 0  0.8039733463934788 0.41 0  0.7467958595662458 0.41 0  0.6916151138480078 0.41 0  0.6383613676644679 0.41 0  0.5869673343225223 0.41 0  0.5373680609412221 0.41 0  0.4895008759292634 0.41 0  0.4433053055145528 0.41 0  0.3987229542475914 0.41 0  0.3556974926297398 0.41 0  0.3141745521466497 0.41 0  0.2741016576310038 0.41 0  0.2354281840915826 0.41 0  0.1981052433265003 0.41 0  0.1620856860352591 0.41 0  0.1273239957535623 0.41 0  0.09377624077128965 0.41 0  0.06140001986584975 0.41 0  0.03015443760436654 0.41 0  0.2497468076502589 0.2050254481002335 0  0.2497468076502614 0.1949745518997913 0  0.2469965252529372 0.1829317073451959 0  0.2439893735792749 0.1762316384219906 0  0.2400332147834255 0.1700443375285386 0  0.2352133972704371 0.1645032867342007 0  0.2296339016332438 0.1597280261969788 0  0.2234150974217223 0.1558215752574715 0  0.2166911463437691 0.1528682099456123 0  0.2096071079204251 0.1509316448471593 0  0.2023158100364996 0.1500536585536553 0  0.194974551899914 0.1502531923497262 0  0.1877417105387872 0.1515259415822739 0  0.1807733240461124 0.153844448527136 0  0.1742197252835808 0.15715869474974 0  0.1682222986673531 0.1613971801805478 0  0.162910430003803 0.1664684656256651 0  0.1583987151779087 0.1722631454351573 0  0.1547844879126891 0.178656207771761 0  0.1521457199348551 0.1855097315605723 0  0.1505393388476355 0.1926758619366523 0  0.1505393388476328 0.2073241380633295 0  0.1521457199348437 0.2144902684393899 0  0.1547844879126531 0.221343792228163 0  0.1583987151778488 0.2277368545647528 0  0.1629104300036858 0.2335315343742052 0  0.1682222986671726 0.2386028198193036 0  0.1742197252833576 0.2428413052501257 0  0.1807733240458683 0.2461555514727623 0  0.1877417105384929 0.2484740584176516 0  0.1949745518995776 0.2497468076502398 0  0.202315810036185 0.2499463414463592 0  0.2096071079201568 0.2490683551528932 0  0.2166911463435495 0.2471317900544655 0  0.2234150974215506 0.2441784247426195 0  0.2296339016331197 0.2402719738031125 0  0.2352133972703547 0.2354967132658811 0  0.2400332147833751 0.2299556624715287 0  0.2439893735792577 0.2237683615780412 0  0.246996525252926 0.2170682926548348 0  0.25645809709277 0.21 0  0.2639263993298655 0.21 0  0.271394701566961 0.21 0  0.2788630038040554 0.21 0  0.2863313060411479 0.21 0  0.2937996082782405 0.21 0  0.301267910515333 0.21 0  0.3087362127524279 0.21 0  0.3162045149895234 0.21 0  0.3236728172265972 0.21 0  0.3311411194636928 0.21 0  0.3386094217007701 0.21 0  0.3460777239378666 0.21 0  0.3535460261749672 0.21 0  0.3610143284120516 0.21 0  0.3684826306491596 0.21 0  0.3759509328862226 0.21 0  0.383419235123329 0.21 0  0.3908875373604028 0.21 0  0.3983558395975142 0.21 0  0.4058241418345938 0.21 0  0.4132924440716992 0.21 0  0.4207607463087888 0.21 0  0.4282290485459029 0.21 0  0.4356973507830418 0.21 0  0.4431656530201649 0.21 0  0.4506339552573136 0.21 0  0.4581022574944306 0.21 0  0.4655705597315852 0.21 0  0.4730388619686996 0.21 0  0.480507164205851 0.21 0  0.4879754664429498 0.21 0  0.4954437686800938 0.21 0  0.502912070917267 0.21 0  0.5103803731544119 0.21 0  0.5178486753915261 0.21 0  0.5253169776286404 0.21 0  0.5327852798657868 0.21 0  0.5402535821029386 0.21 0  0.54772188434007 0.21 0  0.5551901865771842 0.21 0  0.5626584888143201 0.21 0  0.5701267910514778 0.21 0  0.5775950932886138 0.21 0  0.5850633955257281 0.21 0  0.5925316977628483 0.21 0  0.6 0.2050000000000054 0  0.6 0.1950000000000217 0  0.5925316977628897 0.19 0  0.5850633955257988 0.19 0  0.5775950932887378 0.19 0  0.5701267910515998 0.19 0  0.5626584888145268 0.19 0  0.5551901865773963 0.19 0  0.547721884340339 0.19 0  0.5402535821032429 0.19 0  0.5327852798661811 0.19 0  0.5253169776290537 0.19 0  0.5178486753919799 0.19 0  0.5103803731549078 0.19 0  0.502912070917822 0.19 0  0.4954437686807294 0.19 0  0.4879754664436223 0.19 0  0.4805071642065402 0.19 0  0.4730388619694271 0.19 0  0.4655705597323621 0.19 0  0.4581022574952563 0.19 0  0.4506339552581777 0.19 0  0.4431656530210671 0.19 0  0.4356973507839815 0.19 0  0.4282290485468779 0.19 0  0.4207607463097617 0.19 0  0.4132924440726327 0.19 0  0.4058241418354857 0.19 0  0.3983558395983636 0.19 0  0.3908875373612097 0.19 0  0.3834192351240934 0.19 0  0.3759509328869369 0.19 0  0.3684826306498175 0.19 0  0.361014328412667 0.19 0  0.3535460261755617 0.19 0  0.3460777239384295 0.19 0  0.3386094217012945 0.19 0  0.3311411194641595 0.19 0  0.3236728172270245 0.19 0  0.3162045149898895 0.19 0  0.3087362127527544 0.19 0  0.3012679105156187 0.19 0  0.2937996082784807 0.19 0  0.2863313060413428 0.19 0  0.2788630038042048 0.19 0  0.2713947015670686 0.19 0  0.2639263993299336 0.19 0  0.2564580970927985 0.19 0  0.2607803159922026 0.2000727136295815 0  0.5887803774232762 0.2001272386983733 0  0.5745072403740523 0.2002044435018727 0  0.5511891430099709 0.2001122610077113 0  0.2751288526855082 0.20000000000002 0  0.5365194309847112 0.1999999999999436 0  0.2894621222999649 0.1998691686390484 0  0.5215828265105155 0.1999999999999228 0  0.3127789816668748 0.1998657885438805 0  0.3274069683451451 0.2000000000000796 0  0.5066462220363641 0.199999999999908 0  0.3650630746574081 0.199866017807523 0  0.476773013087985 0.1999999999998713 0  0.3417402379596385 0.1998691686391011 0  0.3796850840047755 0.200000000000134 0  0.4618364086138087 0.1999999999998546 0  0.4917096175621762 0.1999999999998808 0  0.3946216884789568 0.2000000000001512 0  0.446899804139621 0.1999999999998389 0  0.4089549580935208 0.1998691686391595 0  0.4322718174608562 0.200127451265745 0  0.4201487168029707 0.1999966199048527 0  0.3528922713220932 0.2000185703532356 0  0.5633122436674589 0.1999814296467508 0  0.3006558810093873 0.1999966199048318 0  0.5815926498168407 0.1966545283159175 0  0.2677053789419034 0.1964246479135325 0  0.5290511287476175 0.1970915826863981 0  0.5439877332217911 0.197091582686394 0  0.2825131256993216 0.2035478995978015 0  0.3199386661080599 0.202908417313604 0  0.4842413153250809 0.1970915826863873 0  0.5141145242734466 0.1970915826863843 0  0.3722167817676917 0.2029084173136195 0  0.4693047108508938 0.1970915826863783 0  0.3348752705822316 0.202908417313609 0  0.3871533862418661 0.2029084173136212 0  0.4543681063767183 0.1970915826863795 0  0.4991779197992749 0.1970915826863902 0  0.4020059614928624 0.203547899597858 0  0.4394315019025246 0.1970915826863714 0  0.2550657455369551 0.2034088125358657 0  0.2548908499171161 0.1966940311614271 0  0.5946539510196798 0.2024302972968126 0  0.267698176732111 0.2039977513680092 0  0.4261685417851465 0.196409292431739 0  0.3590076176283495 0.196411355804271 0  0.5571672426447437 0.2036011176410121 0  0.3066757059912147 0.1964092924317024 0  0.594380730180568 0.1966558399668133 0  0.4842413153245942 0.2040749161535287 0  0.4693047108503577 0.2040749161535231 0  0.3871533862424271 0.1959250838464788 0  0.372246743208829 0.1959123236376545 0  0.5141145242731028 0.2040749161535395 0  0.4543681063761134 0.2040749161535186 0  0.4019979587101454 0.1959834479682427 0  0.4394608940728603 0.2040870543693135 0  0.5439623148931173 0.2040856076781014 0  0.5290511287473298 0.2040749161535501 0  0.4991779197988497 0.2040749161535382 0  0.3347912413592433 0.1959225448935183 0  0.3199680582793816 0.1959123018030061 0  0.2825051229162361 0.1959834479681729 0  0.3590471196690275 0.2036304442587945 0  0.5571594006495384 0.1963685282145804 0  0.3067669986803285 0.203627750582736 0  0.4262598344738712 0.2036568242185335 0  0.5814408164431408 0.2041285596160068 0  0.5688286748170428 0.1961819304477386 0  0.4145905603063645 0.2038180695522843 0  0.3473758401724931 0.2038180695522752 0  0.2950977245128307 0.2038180695522663 0  0.5688286748170693 0.203818069552238 0  0.2950977245127906 0.1961819304477774 0  0.3473758401723931 0.1961819304478349 0  0.4145905603061963 0.1961819304479011 0  0.2601812407614425 0.2056861609747042
[...]
<PointData  Vectors="f_40-1"> 
<DataArray  type="Float64"  Name="f_40-1"  NumberOfComponents="3" format="ascii">0.0000000000000000e+00 0.0000000000000000e+00 0.0000000000000000e+00  0.0000000000000000e+00 0.0000000000000000e+00 0.0000000000000000e+00  0.0000000000000000e+00 0.0000000000000000e+00 0.0000000000000000e+00  0.0000000000000000e+00 0.0000000000000000e+00 0.0000000000000000e+00  -1.1429498039512626e-05 -1.8780757709359878e-04 0.0000000000000000e+00  3.7065887707430837e-06 -1.9096761748779451e-04 0.0000000000000000e+00  0.0000000000000000e+00 0.0000000000000000e+00 0.0000000000000000e+00  0.0000000000000000e+00 0.0000000000000000e+00 0.0000000000000000e+00  0.0000000000000000e+00 0.0000000000000000e+00 0.0000000000000000e+00  0.0000000000000000e+00 0.0000000000000000e+00 0.0000000000000000e+00  -4.1323469726773917e-06 -1.8938685240408497e-04 0.0000000000000000e+00  0.0000000000000000e+00 0.0000000000000000e+00 0.0000000000000000e+00  0.0000000000000000e+00 0.0000000000000000e+00 0.0000000000000000e+00  0.0000000000000000e+00 0.0000000000000000e+00 0.0000000000000000e+00  0.0000000000000000e+00 0.0000000000000000e+00 0.0000000000000000e+00  0.0000000000000000e+00 0.0000000000000000e+00 0.0000000000000000e+00  0.0000000000000000e+00 0.0000000000000000e+00 0.0000000000000000e+00  0.0000000000000000e+00 0.0000000000000000e+00 0.0000000000000000e+00  0.0000000000000000e+00 0.0000000000000000e+00 0.0000000000000000e+00  0.0000000000000000e+00 0.0000000000000000e+00 0.0000000000000000e+00  0.0000000000000000e+00 0.0000000000000000e+00 0.0000000000000000e+00  0.0000000000000000e+00 0.0000000000000000e+00 0.0000000000000000e+00  0.0000000000000000e+00 0.0000000000000000e+00 0.0000000000000000e+00  0.0000000000000000e+00 0.0000000000000000e+00 0.0000000000000000e+00  0.0000000000000000e+00 0.0000000000000000e+00 0.0000000000000000e+00  0.0000000000000000e+00 0.0000000000000000e+00 0.0000000000000000e+00  0.0000000000000000e+00 0.0000000000000000e+00 0.0000000000000000e+00  0.0000000000000000e+00 0.0000000000000000e+00 0.0000000000000000e+00  0.0000000000000000e+00 0.0000000000000000e+00 0.0000000000000000e+00  0.0000000000000000e+00 0.0000000000000000e+00 0.0000000000000000e+00  0.0000000000000000e+00 0.0000000000000000e+00 0.0000000000000000e+00  0.0000000000000000e+00 0.0000000000000000e+00 0.0000000000000000e+00  0.0000000000000000e+00 0.0000000000000000e+00 0.0000000000000000e+00  0.0000000000000000e+00 0.0000000000000000e+00 0.0000000000000000e+00  0.0000000000000000e+00 0.0000000000000000e+00 0.0000000000000000e+00  0.0000000000000000e+00 0.0000000000000000e+00 0.0000000000000000e+00  0.0000000000000000e+00 0.0000000000000000e+00 0.0000000000000000e+00  0.0000000000000000e+00 0.0000000000000000e+00 0.0000000000000000e+00  0.0000000000000000e+00 0.0000000000000000e+00 0.0000000000000000e+00  0.0000000000000000e+00 0.0000000000000000e+00 0.0000000000000000e+00  0.0000000000000000e+00 0.0000000000000000e+00 0.0000000000000000e+00  0.0000000000000000e+00 0.0000000000000000e+00 0.0000000000000000e+00  0.0000000000000000e+00 0.0000000000000000e+00 0.0000000000000000e+00  0.0000000000000000e+00 0.0000000000000000e+00 0.0000000000000000e+00  0.0000000000000000e+00 0.0000000000000000e+00 0.0000000000000000e+00  0.0000000000000000e+00 0.0000000000000000e+00 0.0000000000000000e+00  0.0000000000000000e+00 0.0000000000000000e+00 0.0000000000000000e+00  0.0000000000000000e+00 0.0000000000000000e+00 0.0000000000000000e+00  0.0000000000000000e+00 0.0000000000000000e+00 0.0000000000000000e+00  0.0000000000000000e+00 0.0000000000000000e+00 0.0000000000000000e+00  0.0000000000000000e+00 0.0000000000000000e+00 0.0000000000000000e+00  0.0000000000000000e+00 0.0000000000000000e+00 0.0000000000000000e+00  0.0000000000000000e+00 0.0000000000000000e+00 0.0000000000000000e+00  0.0000000000000000e+00 0.0000000000000000e+00 0.0000000000000000e+00  0.0000000000000000e+00 0.0000000000000000e+00 0.0000000000000000e+00  0.0000000000000000e+00 0.0000000000000000e+00 0.0000000000000000e+00  0.0000000000000000e+00 0.0000000000000000e+00 0.0000000000000000e+00  0.0000000000000000e+00 0.0000000000000000e+00 0.0000000000000000e+00  0.0000000000000000e+00 0.0000000000000000e+00 0.0000000000000000e+00  0.0000000000000000e+00 0.0000000000000000e+00 0.0000000000000000e+00  0.0000000000000000e+00 0.0000000000000000e+00 0.0000000000000000e+00  0.0000000000000000e+00 0.0000000000000000e+00 0.0000000000000000e+00  0.0000000000000000e+00 0.0000000000000000e+00 0.0000000000000000e+00  0.0000000000000000e+00 0.0000000000000000e+00 0.0000000000000000e+00  0.0000000000000000e+00 0.0000000000000000e+00 0.0000000000000000e+00  0.0000000000000000e+00 0.0000000000000000e+00 0.0000000000000000e+00  0.0000000000000000e+00 0.0000000000000000e+00 0.0000000000000000e+00  0.0000000000000000e+00 0.0000000000000000e+00 0.0000000000000000e+00  0.0000000000000000e+00 0.0000000000000000e+00 0.0000000000000000e+00  0.0000000000000000e+00 0.0000000000000000e+00 0.0000000000000000e+00  0.0000000000000000e+00 0.0000000000000000e+00 0.0000000000000000e+00  0.0000000000000000e+00 0.0000000000000000e+00 0.0000000000000000e+00  0.0000000000000000e+00 0.0000000000000000e+00 0.0000000000000000e+00  0.0000000000000000e+00 0.0000000000000000e+00 0.0000000000000000e+00  0.0000000000000000e+00 0.0000000000000000e+00 0.0000000000000000e+00  0.0000000000000000e+00 0.0000000000000000e+00 0.0000000000000000e+00  0.0000000000000000e+00 0.0000000000000000e+00 0.0000000000000000e+00  0.0000000000000000e+00 0.0000000000000000e+00 0.0000000000000000e+00  0.0000000000000000e+00 0.0000000000000000e+00 0.0000000000000000e+00  0.0000000000000000e+00 0.0000000000000000e+00 0.0000000000000000e+00  0.0000000000000000e+00 0.0000000000000000e+00 0.0000000000000000e+00  0.0000000000000000e+00 0.0000000000000000e+00 0.0000000000000000e+00  0.0000000000000000e+00 0.0000000000000000e+00 0.0000000000000000e+00  0.0000000000000000e+00 0.0000000000000000e+00 0.0000000000000000e+00  0.0000000000000000e+00 0.0000000000000000e+00 0.0000000000000000e+00  0.0000000000000000e+00 0.0000000000000000e+00 0.0000000000000000e+00  0.0000000000000000e+00 0.0000000000000000e+00 0.0000000000000000e+00  0.0000000000000000e+00 0.0000000000000000e+00 0.0000000000000000e+00  0.0000000000000000e+00 0.0000000000000000e+00 0.0000000000000000e+00  0.0000000000000000e+00 0.0000000000000000e+00 0.0000000000000000e+00  0.0000000000000000e+00 0.0000000000000000e+00 0.0000000000000000e+00  0.0000000000000000e+00 0.0000000000000000e+00 0.0000000000000000e+00  0.0000000000000000e+00 0.0000000000000000e+00 0.0000000000000000e+00  0.0000000000000000e+00 0.0000000000000000e+00 0.0000000000000000e+00  0.0000000000000000e+00 0.0000000000000000e+00 0.0000000000000000e+00  0.0000000000000000e+00 0.0000000000000000e+00 0.0000000000000000e+00  0.0000000000000000e+00 0.0000000000000000e+00 0.0000000000000000e+00  0.0000000000000000e+00 0.0000000000000000e+00 0.0000000000000000e+00  0.0000000000000000e+00 0.0000000000000000e+00 0.0000000000000000e+00  0.0000000000000000e+00 0.0000000000000000e+00 0.0000000000000000e+00  0.0000000000000000e+00 0.0000000000000000e+00 0.0000000000000000e+00  0.0000000000000000e+00 0.0000000000000000e+00 0.0000000000000000e+00  0.0000000000000000e+00 0.0000000000000000e+00 0.0000000000000000e+00  0.0000000000000000e+00 0.0000000000000000e+00 0.0000000000000000e+00  0.0000000000000000e+00 0.0000000000000000e+00 0.0000000000000000e+00  0.0000000000000000e+00 0.0000000000000000e+00 0.0000000000000000e+00  0.0000000000000000e+00 0.0000000000000000e+00 0.0000000000000000e+00  0.0000000000000000e+00 0.0000000000000000e+00 0.0000000000000000e+00  0.0000000000000000e+00 0.0000000000000000e+00 0.0000000000000000e+00  0.0000000000000000e+00 0.0000000000000000e+00 0.0000000000000000e+00  0.0000000000000000e+00 0.0000000000000000e+00 0.0000000000000000e+00  0.0000000000000000e+00 0.0000000000000000e+00 0.0000000000000000e+00  0.0000000000000000e+00 0.0000000000000000e+00 0.0000000000000000e+00  0.0000000000000000e+00 0.0000000000000000e+00 0.0000000000000000e+00  0.0000000000000000e+00 0.0000000000000000e+00 0.0000000000000000e+00  0.0000000000000000e+00 0.0000000000000000e+00 0.0000000000000000e+00  0.0000000000000000e+00 0.0000000000000000e+00 0.0000000000000000e+00  0.0000000000000000e+00 0.0000000000000000e+00 0.0000000000000000e+00  0.0000000000000000e+00 0.0000000000000000e+00 0.0000000000000000e+00  0.0000000000000000e+00 0.0000000000000000e+00 0.0000000000000000e+00  0.0000000000000000e+00 0.0000000000000000e+00 0.0000000000000000e+00  0.0000000000000000e+00 0.0000000000000000e+00 0.0000000000000000e+00  0.0000000000000000e+00 0.0000000000000000e+00 0.0000000000000000e+00  0.0000000000000000e+00 0.0000000000000000e+00 0.0000000000000000e+00  0.0000000000000000e+00 0.0000000000000000e+00 0.0000000000000000e+00  0.0000000000000000e+00 0.0000000000000000e+00 0.0000000000000000e+00  0.0000000000000000e+00 0.0000000000000000e+00 0.0000000000000000e+00  0.0000000000000000e+00 0.0000000000000000e+00 0.0000000000000000e+00  0.0000000000000000e+00 0.0000000000000000e+00 0.0000000000000000e+00  0.0000000000000000e+00 0.0000000000000000e+00 0.0000000000000000e+00  0.0000000000000000e+00 0.0000000000000000e+00 0.0000000000000000e+00  0.0000000000000000e+00 0.0000000000000000e+00 0.0000000000000000e+00  0.0000000000000000e+00 0.0000000000000000e+00 0.0000000000000000e+00  0.0000000000000000e+00 0.0000000000000000e+00 0.0000000000000000e+00  0.0000000000000000e+00 0.0000000000000000e+00 0.0000000000000000e+00  0.0000000000000000e+00 0.0000000000000000e+00 0.0000000000000000e+00  0.0000000000000000e+00 0.0000000000000000e+00 0.0000000000000000e+00  0.0000000000000000e+00 0.0000000000000000e+00 0.0000000000000000e+00  0.0000000000000000e+00 0.0000000000000000e+00 0.0000000000000000e+00  0.0000000000000000e+00 0.0000000000000000e+00 0.0000000000000000e+00  0.0000000000000000e+00 0.0000000000000000e+00 0.0000000000000000e+00  0.0000000000000000e+00 0.0000000000000000e+00 0.0000000000000000e+00  0.0000000000000000e+00 0.0000000000000000e+00 0.0000000000000000e+00  5.1773201145282001e-07 -3.1562170132489652e-06 0.0000000000000000e+00  1.1854505350560507e-06 -3.7827420372715191e-06 0.0000000000000000e+00  1.9719545208688209e-06 -4.5223919457375463e-06 0.0000000000000000e+00  2.8670056116398546e-06 -5.4556866384227407e-06 0.0000000000000000e+00  3.7200078700058267e-06 -6.6376907599981860e-06 0.0000000000000000e+00  4.6033585854537249e-06 -8.1177564273946971e-06 0.0000000000000000e+00  5.3968383032542821e-06 -9.7986596052102427e-06 0.0000000000000000e+00  6.1540289455545670e-06 -1.1754512090211159e-05 0.0000000000000000e+00  6.9420505828062251e-06 -1.3923219336519969e-05 0.0000000000000000e+00  7.6114082868848795e-06 -1.6305211429673266e-05 0.0000000000000000e+00  8.3175703945669113e-06 -1.8923513140213821e-05 0.0000000000000000e+00  8.9062297809304966e-06 -2.1731024533223454e-05 0.0000000000000000e+00  9.5083450217138826e-06 -2.4748225303911918e-05 0.0000000000000000e+00  1.0021375683607148e-05 -2.7932144733389264e-05 0.0000000000000000e+00  1.0488467484983474e-05 -3.1314749335535156e-05 0.0000000000000000e+00  1.0963802011984734e-05 -3.4862322397683961e-05 0.0000000000000000e+00  1.1335454371047264e-05 -3.8554151379372718e-05 0.0000000000000000e+00  1.1715711622190656e-05 -4.2426958250012282e-05 0.0000000000000000e+00  1.1999115245680495e-05 -4.6418182264499441e-05 0.0000000000000000e+00  1.2285338295669571e-05 -5.0567261849635615e-05 0.0000000000000000e+00  1.2491536864274995e-05 -5.4825423178808399e-05 0.0000000000000000e+00  1.2678335148456333e-05 -5.9224632795480858e-05 0.0000000000000000e+00  1.2802378685855477e-05 -6.3720629718694798e-05 0.0000000000000000e+00  1.2881417009015983e-05 -6.8334298843968533e-05 0.0000000000000000e+00  1.2950171011738497e-05 -7.3045189867579303e-05 0.0000000000000000e+00  1.2952260632603321e-05 -7.7839545415772169e-05 0.0000000000000000e+00  1.2918626361954436e-05 -8.2748978529737749e-05 0.0000000000000000e+00  1.2837463468800833e-05 -8.7712588363244494e-05 0.0000000000000000e+00  1.2719601508488249e-05 -9.2777301219189304e-05 0.0000000000000000e+00  1.2555197779166580e-05 -9.7889504523320485e-05 0.0000000000000000e+00  1.2355036140769674e-05 -1.0308776320868852e-04 0.0000000000000000e+00  1.2107207573241559e-05 -1.0832149884952833e-04 0.0000000000000000e+00  1.1825947008046954e-05 -1.1363151927339358e-04 0.0000000000000000e+00  1.1496325207183180e-05 -1.1896265740603308e-04 0.0000000000000000e+00  1.1127699074926948e-05 -1.2436482589615826e-04 0.0000000000000000e+00  1.0716646747248232e-05 -1.2977955409787008e-04 0.0000000000000000e+00  1.0268511343555449e-05 -1.3525026571408185e-04 0.0000000000000000e+00  9.7774354987295059e-06 -1.4072644393353290e-04 0.0000000000000000e+00  9.2474476895800450e-06 -1.4624927205349222e-04 0.0000000000000000e+00  8.6731257813566892e-06 -1.5177124745973514e-04 0.0000000000000000e+00  8.0571768527043875e-06 -1.5732464312807727e-04 0.0000000000000000e+00  7.4047786043521401e-06 -1.6288047627092880e-04 0.0000000000000000e+00  6.7063455348827175e-06 -1.6845407230817622e-04 0.0000000000000000e+00  5.9848696445560776e-06 -1.7403077072578130e-04 0.0000000000000000e+00  5.2156872182455675e-06 -1.7959945956425868e-04 0.0000000000000000e+00  4.4327876152537158e-06 -1.8520534504260617e-04 0.0000000000000000e+00  -3.0680887050562277e-07 -1.9016903691951200e-04 0.0000000000000000e+00  -7.8585099697271577e-06 -1.8860589475803774e-04 0.0000000000000000e+00  -1.0678884866783770e-05 -1.8227570978425687e-04 0.0000000000000000e+00  -9.8764943739784171e-06 -1.7659440511130886e-04 0.0000000000000000e+00  -9.0859111173463714e-06 -1.7089742994150703e-04 0.0000000000000000e+00  -8.3354895196418331e-06 -1.6522383216921964e-04 0.0000000000000000e+00  -7.6082405290633227e-06 -1.5955955972758138e-04 0.0000000000000000e+00  -6.9233358092621999e-06 -1.5390952385633131e-04 0.0000000000000000e+00  -6.2600693332790220e-06 -1.4827658394465199e-04 0.0000000000000000e+00  -5.6391625025486426e-06 -1.4265201460983079e-04 0.0000000000000000e+00  -5.0405960836678092e-06 -1.3706576859293961e-04 0.0000000000000000e+00  -4.4815372593821744e-06 -1.3148528376345867e-04 0.0000000000000000e+00  -3.9415113145950284e-06 -1.2595164381158983e-04 0.0000000000000000e+00  -3.4426438015187944e-06 -1.2043294324273850e-04 0.0000000000000000e+00  -2.9587456320551690e-06 -1.1497107426123492e-04 0.0000000000000000e+00  -2.5170308598254400e-06 -1.0953442781839006e-04 0.0000000000000000e+00  -2.0859322276030543e-06 -1.0416438981725396e-04 0.0000000000000000e+00  -1.7001673225913252e-06 -9.8829744211272942e-05 0.0000000000000000e+00  -1.3203387271267255e-06 -9.3570330324870498e-05 0.0000000000000000e+00  -9.9000208245847244e-07 -8.8356722524904441e-05 0.0000000000000000e+00  -6.6166790329104707e-07 -8.3232214054117834e-05 0.0000000000000000e+00  -3.8490739866922729e-07 -7.8166838397878124e-05 0.0000000000000000e+00  -1.0399688783648206e-07 -7.3201830649175927e-05 0.0000000000000000e+00  1.2078312955170554e-07 -6.8308934431120233e-05 0.0000000000000000e+00  3.4699381881006217e-07 -6.3522258434819015e-05 0.0000000000000000e+00  5.2804799545951506e-07 -5.8824685303429704e-05 0.0000000000000000e+00  6.7582043265438584e-07 -5.4251398546337066e-05 0.0000000000000000e+00  8.3615357373941294e-07 -4.9775846495024572e-05 0.0000000000000000e+00  9.4551038445741343e-07 -4.5422456177212168e-05 0.0000000000000000e+00  1.0471729327540984e-06 -4.1213031839687022e-05 0.0000000000000000e+00  1.1099193779428987e-06 -3.7121201051053924e-05 0.0000000000000000e+00  1.1630699913402521e-06 -3.3193331517538789e-05 0.0000000000000000e+00  1.1780574346652556e-06 -2.9393676733323474e-05 0.0000000000000000e+00  1.1984008554980745e-06 -2.5790229822568513e-05 0.0000000000000000e+00  1.1649489710631094e-06 -2.2320316424692722e-05 0.0000000000000000e+00  1.1019293348993549e-06 -1.9065873927296156e-05 0.0000000000000000e+00  1.0686801912172693e-06 -1.5960684940268467e-05 0.0000000000000000e+00  9.8035189494694255e-07 -1.3071555942908053e-05 0.0000000000000000e+00  8.9160992721084998e-07 -1.0398693184870729e-05 0.0000000000000000e+00  7.6259032491188175e-07 -7.9256508665875813e-06 0.0000000000000000e+00  6.5412856702960993e-07 -5.7112974270494379e-06 0.0000000000000000e+00  4.8252596809025412e-07 -3.6921723993120202e-06 0.0000000000000000e+00  2.8733236458898808e-07 -1.9579053438892524e-06 0.0000000000000000e+00  1.4668205984999750e-07 -4.3338436574003044e-07 0.0000000000000000e+00  -5.2322489908294583e-08 8.3245935523781363e-07 0.0000000000000000e+00  -1.7322796997692194e-07 1.8192346006233786e-06 0.0000000000000000e+00  -2.7449150439062382e-07 2.4370790486892885e-06 0.0000000000000000e+00  -1.7079094947706742e-07 2.6110870145655021e-06 0.0000000000000000e+00  -2.1717710370732136e-07 -2.9129977889254536e-07 0.0000000000000000e+00  -2.7235088478980644e-06 -1.8091834197304270e-04 0.0000000000000000e+00  -1.1191714899315525e-06 -1.7016171252774048e-04 0.0000000000000000e+00  9.6735824510284959e-07 -1.5262675740904808e-04 0.0000000000000000e+00  1.1222990470704806e-06 -1.6226034198472631e-06 0.0000000000000000e+00  2.0531969936756906e-06 -1.4165483327042885e-04 0.0000000000000000e+00  2.1138516633338990e-06 -3.9199652002713857e-06 0.0000000000000000e+00  3.1083431992667790e-06 -1.3059192792825032e-04 0.0000000000000000e+00  3.5835406735261719e-06 -9.6988462917926811e-06 0.0000000000000000e+00  4.4224872716551746e-06 -1.4512040619397127e-05 0.0000000000000000e+00  4.0235655944210679e-06 -1.1965181373449234e-04 0.0000000000000000e+00  5.8770478686206272e-06 -3.0323004956489077e-05 0.0000000000000000e+00  5.4405986994222320e-06 -9.8296037596445511e-05 0.0000000000000000e+00  5.0479007771741518e-06 -1.9935328975963212e-05 0.0000000000000000e+00  6.3009652194286254e-06 -3.7708555757408734e-05 0.0000000000000000e+00  5.9448276357750426e-06 -8.7963155899780754e-05 0.0000000000000000e+00  4.8006199049544770e-06 -1.0887283987200115e-04 0.0000000000000000e+00  6.5405863943628224e-06 -4.5800241160777676e-05 0.0000000000000000e+00  6.3130695453141879e-06 -7.7923559617567624e-05 0.0000000000000000e+00  6.5697331625469815e-06 -5.4031492365563981e-05 0.0000000000000000e+00  6.6283859853326411e-06 -6.8451726787246094e-05 0.0000000000000000e+00  6.6251925992072635e-06 -6.0842993674359617e-05 0.0000000000000000e+00  5.5377533191619920e-06 -2.4755133885148901e-05 0.0000000000000000e+00  -2.2101305814664231e-07 -1.6170255726044285e-04 0.0000000000000000e+00  2.8675074738152569e-06 -6.4781931855048420e-06 0.0000000000000000e+00  -4.5385385153265184e-06 -1.7496755418310427e-04 0.0000000000000000e+00  1.8341756442769030e-07 3.5275754756295105e-07 0.0000000000000000e+00  4.4909214784284406e-07 -1.3557307990058444e-04 0.0000000000000000e+00  -6.9403071553269624e-07 -1.4670782432655777e-04 0.0000000000000000e+00  2.2231917112646697e-06 -3.8414022047240829e-06 0.0000000000000000e+00  4.9681181063249821e-06 -1.2853575297314287e-05 0.0000000000000000e+00  3.0843800555106315e-06 -1.0295021969391116e-04 0.0000000000000000e+00  1.4587688889057727e-06 -1.2454345657174552e-04 0.0000000000000000e+00  7.5847846197842907e-06 -3.4680505100113482e-05 0.0000000000000000e+00  3.7049197641156374e-06 -9.2466698618326104e-05 0.0000000000000000e+00  5.8869967487213385e-06 -1.8128196739251582e-05 0.0000000000000000e+00  8.0028074080817002e-06 -4.2462406610179182e-05 0.0000000000000000e+00  4.1979431533600705e-06 -8.2251698966377069e-05 0.0000000000000000e+00  2.3361947352375032e-06 -1.1365544122514325e-04 0.0000000000000000e+00  8.6458151805675619e-06 -5.0920095905188536e-05 0.0000000000000000e+00  4.5649380205455853e-06 -7.2355091602176901e-05 0.0000000000000000e+00  -3.8746562927369343e-07 -7.5159656296465592e-07 0.0000000000000000e+00  -4.9674501388989394e-07 5.8273013296229749e-07 0.0000000000000000e+00  -1.6652379989942498e-06 -1.8569591547257057e-04 0.0000000000000000e+00  8.8458129586319739e-07 -2.1455317790439947e-0