<?xml version="1.0"?>
<VTKFile type="UnstructuredGrid"  version="0.1"  >
<UnstructuredGrid>
<Piece  NumberOfPoints="1419" NumberOfCells="2698">
<Points>
<DataArray  type="Float64"  NumberOfComponents="3"  format="ascii">0 0 0  0 0.41 0  2.5 0 0  2.5 0.41 0  0.6 0.19 0  0.6 0.21 0  0.25 0.2 0  0.15 0.2 0  0.2489897948556636 0.21 0  0.2489897948556636 0.19 0  0.6 0.2 0  0 0.3807142857143437 0  0 0.3514285714286952 0  0 0.3221428571430699 0  0 0.29285714285744 0  0 0.2635714285718054 0  0 0.2342857142861561 0  0 0.2050000000005308 0  0 0.175714285714732 0  0 0.1464285714289574 0  0 0.1171428571431897 0  0 0.08785714285737878 0  0 0.05857142857161107 0  0 0.02928571428580012 0  0.03015443760436003 0 0  0.06140001986583606 0 0  0.09377624077125973 0 0  0.1273239957535082 0 0  0.1620856860351972 0 0  0.1981052433264291 0 0  0.235428184091502 0 0  0.2741016576309132 0 0  0.3141745521465447 0 0  0.3556974926295285 0 0  0.3987229542472677 0 0  0.4433053055141081 0 0  0.4895008759286886 0 0  0.5373680609405097 0 0  0.5869673343216626 0 0  0.6383613676634521 0 0  0.6916151138468254 0 0  0.7467958595648856 0 0  0.8039733463919316 0 0  0.8632198139502143 0 0  0.9246101326867038 0 0  0.9882218810934433 0 0  1.054135445558498 0 0  1.122434100542598 0 0  1.193204177141305 0 0  1.266535089879536 0 0  1.342519516046404 0 0  1.421253448503939 0 0  1.502836389106271 0 0  1.587371439758838 0 0  1.674965418777374 0 0  1.765729001825544 0 0  1.859776908880082 0 0  1.957227977487062 0 0  2.058205329869943 0 0  2.162836591189951 0 0  2.271253957290865 0 0  2.383594446803425 0 0  2.5 0.1024999999997612 0  2.5 0.2049999999994743 0  2.5 0.3074999999997183 0  2.383594446803656 0.41 0  2.271253957291315 0.41 0  2.162836591190598 0.41 0  2.058205329870775 0.41 0  1.957227977488067 0.41 0  1.859776908881246 0.41 0  1.765729001826854 0.41 0  1.674965418778818 0.41 0  1.58737143976041 0.41 0  1.502836389107956 0.41 0  1.421253448505726 0.41 0  1.342519516048286 0.41 0  1.266535089881505 0.41 0  1.193204177143353 0.41 0  1.122434100544716 0.41 0  1.05413544556068 0.41 0  0.9882218810956305 0.41 0  0.9246101326886647 0.41 0  0.8632198139519631 0.41 0  0.8039733463934788 0.41 0  0.7467958595662458 0.41 0  0.6916151138480078 0.41 0  0.6383613676644679 0.41 0  0.5869673343225223 0.41 0  0.5373680609412221 0.41 0  0.4895008759292634 0.41 0  0.4433053055145528 0.41 0  0.3987229542475914 0.41 0  0.3556974926297398 0.41 0  0.3141745521466497 0.41 0  0.2741016576310038 0.41 0  0.2354281840915826 0.41 0  0.1981052433265003 0.41 0  0.1620856860352591 0.41 0  0.1273239957535623 0.41 0  0.09377624077128965 0.41 0  0.06140001986584975 0.41 0  0.03015443760436654 0.41 0  0.2497468076502589 0.2050254481002335 0  0.2497468076502614 0.1949745518997913 0  0.2469965252529372 0.1829317073451959 0  0.2439893735792749 0.1762316384219906 0  0.2400332147834255 0.1700443375285386 0  0.2352133972704371 0.1645032867342007 0  0.2296339016332438 0.1597280261969788 0  0.2234150974217223 0.1558215752574715 0  0.2166911463437691 0.1528682099456123 0  0.2096071079204251 0.1509316448471593 0  0.2023158100364996 0.1500536585536553 0  0.194974551899914 0.1502531923497262 0  0.1877417105387872 0.1515259415822739 0  0.1807733240461124 0.153844448527136 0  0.1742197252835808 0.15715869474974 0  0.1682222986673531 0.1613971801805478 0  0.162910430003803 0.1664684656256651 0  0.1583987151779087 0.1722631454351573 0  0.1547844879126891 0.178656207771761 0  0.1521457199348551 0.1855097315605723 0  0.1505393388476355 0.1926758619366523 0  0.1505393388476328 0.2073241380633295 0  0.1521457199348437 0.2144902684393899 0  0.1547844879126531 0.221343792228163 0  0.1583987151778488 0.2277368545647528 0  0.1629104300036858 0.2335315343742052 0  0.1682222986671726 0.2386028198193036 0  0.1742197252833576 0.2428413052501257 0  0.1807733240458683 0.2461555514727623 0  0.1877417105384929 0.2484740584176516 0  0.1949745518995776 0.2497468076502398 0  0.202315810036185 0.2499463414463592 0  0.2096071079201568 0.2490683551528932 0  0.2166911463435495 0.2471317900544655 0  0.2234150974215506 0.2441784247426195 0  0.2296339016331197 0.2402719738031125 0  0.2352133972703547 0.2354967132658811 0  0.2400332147833751 0.2299556624715287 0  0.2439893735792577 0.2237683615780412 0  0.246996525252926 0.2170682926548348 0  0.25645809709277 0.21 0  0.2639263993298655 0.21 0  0.271394701566961 0.21 0  0.2788630038040554 0.21 0  0.2863313060411479 0.21 0  0.2937996082782405 0.21 0  0.301267910515333 0.21 0  0.3087362127524279 0.21 0  0.3162045149895234 0.21 0  0.3236728172265972 0.21 0  0.3311411194636928 0.21 0  0.3386094217007701 0.21 0  0.3460777239378666 0.21 0  0.3535460261749672 0.21 0  0.3610143284120516 0.21 0  0.3684826306491596 0.21 0  0.3759509328862226 0.21 0  0.383419235123329 0.21 0  0.3908875373604028 0.21 0  0.3983558395975142 0.21 0  0.4058241418345938 0.21 0  0.4132924440716992 0.21 0  0.4207607463087888 0.21 0  0.4282290485459029 0.21 0  0.4356973507830418 0.21 0  0.4431656530201649 0.21 0  0.4506339552573136 0.21 0  0.4581022574944306 0.21 0  0.4655705597315852 0.21 0  0.4730388619686996 0.21 0  0.480507164205851 0.21 0  0.4879754664429498 0.21 0  0.4954437686800938 0.21 0  0.502912070917267 0.21 0  0.5103803731544119 0.21 0  0.5178486753915261 0.21 0  0.5253169776286404 0.21 0  0.5327852798657868 0.21 0  0.5402535821029386 0.21 0  0.54772188434007 0.21 0  0.5551901865771842 0.21 0  0.5626584888143201 0.21 0  0.5701267910514778 0.21 0  0.5775950932886138 0.21 0  0.5850633955257281 0.21 0  0.5925316977628483 0.21 0  0.6 0.2050000000000054 0  0.6 0.1950000000000217 0  0.5925316977628897 0.19 0  0.5850633955257988 0.19 0  0.5775950932887378 0.19 0  0.5701267910515998 0.19 0  0.5626584888145268 0.19 0  0.5551901865773963 0.19 0  0.547721884340339 0.19 0  0.5402535821032429 0.19 0  0.5327852798661811 0.19 0  0.5253169776290537 0.19 0  0.5178486753919799 0.19 0  0.5103803731549078 0.19 0  0.502912070917822 0.19 0  0.4954437686807294 0.19 0  0.4879754664436223 0.19 0  0.4805071642065402 0.19 0  0.4730388619694271 0.19 0  0.4655705597323621 0.19 0  0.4581022574952563 0.19 0  0.4506339552581777 0.19 0  0.4431656530210671 0.19 0  0.4356973507839815 0.19 0  0.4282290485468779 0.19 0  0.4207607463097617 0.19 0  0.4132924440726327 0.19 0  0.4058241418354857 0.19 0  0.3983558395983636 0.19 0  0.3908875373612097 0.19 0  0.3834192351240934 0.19 0  0.3759509328869369 0.19 0  0.3684826306498175 0.19 0  0.361014328412667 0.19 0  0.3535460261755617 0.19 0  0.3460777239384295 0.19 0  0.3386094217012945 0.19 0  0.3311411194641595 0.19 0  0.3236728172270245 0.19 0  0.3162045149898895 0.19 0  0.3087362127527544 0.19 0  0.3012679105156187 0.19 0  0.2937996082784807 0.19 0  0.2863313060413428 0.19 0  0.2788630038042048 0.19 0  0.2713947015670686 0.19 0  0.2639263993299336 0.19 0  0.2564580970927985 0.19 0  0.2607803159922026 0.2000727136295815 0  0.5887803774232762 0.2001272386983733 0  0.5745072403740523 0.2002044435018727 0  0.5511891430099709 0.2001122610077113 0  0.2751288526855082 0.20000000000002 0  0.5365194309847112 0.1999999999999436 0  0.2894621222999649 0.1998691686390484 0  0.5215828265105155 0.1999999999999228 0  0.3127789816668748 0.1998657885438805 0  0.3274069683451451 0.2000000000000796 0  0.5066462220363641 0.199999999999908 0  0.3650630746574081 0.199866017807523 0  0.476773013087985 0.1999999999998713 0  0.3417402379596385 0.1998691686391011 0  0.3796850840047755 0.200000000000134 0  0.4618364086138087 0.1999999999998546 0  0.4917096175621762 0.1999999999998808 0  0.3946216884789568 0.2000000000001512 0  0.446899804139621 0.1999999999998389 0  0.4089549580935208 0.1998691686391595 0  0.4322718174608562 0.200127451265745 0  0.4201487168029707 0.1999966199048527 0  0.3528922713220932 0.2000185703532356 0  0.5633122436674589 0.1999814296467508 0  0.3006558810093873 0.1999966199048318 0  0.5815926498168407 0.1966545283159175 0  0.2677053789419034 0.1964246479135325 0  0.5290511287476175 0.1970915826863981 0  0.5439877332217911 0.197091582686394 0  0.2825131256993216 0.2035478995978015 0  0.3199386661080599 0.202908417313604 0  0.4842413153250809 0.1970915826863873 0  0.5141145242734466 0.1970915826863843 0  0.3722167817676917 0.2029084173136195 0  0.4693047108508938 0.1970915826863783 0  0.3348752705822316 0.202908417313609 0  0.3871533862418661 0.2029084173136212 0  0.4543681063767183 0.1970915826863795 0  0.4991779197992749 0.1970915826863902 0  0.4020059614928624 0.203547899597858 0  0.4394315019025246 0.1970915826863714 0  0.2550657455369551 0.2034088125358657 0  0.2548908499171161 0.1966940311614271 0  0.5946539510196798 0.2024302972968126 0  0.267698176732111 0.2039977513680092 0  0.4261685417851465 0.196409292431739 0  0.3590076176283495 0.196411355804271 0  0.5571672426447437 0.2036011176410121 0  0.3066757059912147 0.1964092924317024 0  0.594380730180568 0.1966558399668133 0  0.4842413153245942 0.2040749161535287 0  0.4693047108503577 0.2040749161535231 0  0.3871533862424271 0.1959250838464788 0  0.372246743208829 0.1959123236376545 0  0.5141145242731028 0.2040749161535395 0  0.4543681063761134 0.2040749161535186 0  0.4019979587101454 0.1959834479682427 0  0.4394608940728603 0.2040870543693135 0  0.5439623148931173 0.2040856076781014 0  0.5290511287473298 0.2040749161535501 0  0.4991779197988497 0.2040749161535382 0  0.3347912413592433 0.1959225448935183 0  0.3199680582793816 0.1959123018030061 0  0.2825051229162361 0.1959834479681729 0  0.3590471196690275 0.2036304442587945 0  0.5571594006495384 0.1963685282145804 0  0.3067669986803285 0.203627750582736 0  0.4262598344738712 0.2036568242185335 0  0.5814408164431408 0.2041285596160068 0  0.5688286748170428 0.1961819304477386 0  0.4145905603063645 0.2038180695522843 0  0.3473758401724931 0.2038180695522752 0  0.2950977245128307 0.2038180695522663 0  0.5688286748170693 0.203818069552238 0  0.2950977245127906 0.1961819304477774 0  0.3473758401723931 0.1961819304478349 0  0.4145905603061963 0.1961819304479011 0  0.2601812407614425 0.2056861609747042
[...]
<PointData  Vectors="f_40-1"> 
<DataArray  type="Float64"  Name="f_40-1"  NumberOfComponents="3" format="ascii">0.0000000000000000e+00 0.0000000000000000e+00 0.0000000000000000e+00  0.0000000000000000e+00 0.0000000000000000e+00 0.0000000000000000e+00  0.0000000000000000e+00 0.0000000000000000e+00 0.0000000000000000e+00  0.0000000000000000e+00 0.0000000000000000e+00 0.0000000000000000e+00  -1.1379446203445744e-05 -1.7956736894690818e-04 0.0000000000000000e+00  3.0968080564076894e-06 -1.8268935923497885e-04 0.0000000000000000e+00  0.0000000000000000e+00 0.0000000000000000e+00 0.0000000000000000e+00  0.0000000000000000e+00 0.0000000000000000e+00 0.0000000000000000e+00  0.0000000000000000e+00 0.0000000000000000e+00 0.0000000000000000e+00  0.0000000000000000e+00 0.0000000000000000e+00 0.0000000000000000e+00  -4.4069429220990840e-06 -1.8112775639215483e-04 0.0000000000000000e+00  0.0000000000000000e+00 0.0000000000000000e+00 0.0000000000000000e+00  0.0000000000000000e+00 0.0000000000000000e+00 0.0000000000000000e+00  0.0000000000000000e+00 0.0000000000000000e+00 0.0000000000000000e+00  0.0000000000000000e+00 0.0000000000000000e+00 0.0000000000000000e+00  0.0000000000000000e+00 0.0000000000000000e+00 0.0000000000000000e+00  0.0000000000000000e+00 0.0000000000000000e+00 0.0000000000000000e+00  0.0000000000000000e+00 0.0000000000000000e+00 0.0000000000000000e+00  0.0000000000000000e+00 0.0000000000000000e+00 0.0000000000000000e+00  0.0000000000000000e+00 0.0000000000000000e+00 0.0000000000000000e+00  0.0000000000000000e+00 0.0000000000000000e+00 0.0000000000000000e+00  0.0000000000000000e+00 0.0000000000000000e+00 0.0000000000000000e+00  0.0000000000000000e+00 0.0000000000000000e+00 0.0000000000000000e+00  0.0000000000000000e+00 0.0000000000000000e+00 0.0000000000000000e+00  0.0000000000000000e+00 0.0000000000000000e+00 0.0000000000000000e+00  0.0000000000000000e+00 0.0000000000000000e+00 0.0000000000000000e+00  0.0000000000000000e+00 0.0000000000000000e+00 0.0000000000000000e+00  0.0000000000000000e+00 0.0000000000000000e+00 0.0000000000000000e+00  0.0000000000000000e+00 0.0000000000000000e+00 0.0000000000000000e+00  0.0000000000000000e+00 0.0000000000000000e+00 0.0000000000000000e+00  0.0000000000000000e+00 0.0000000000000000e+00 0.0000000000000000e+00  0.0000000000000000e+00 0.0000000000000000e+00 0.0000000000000000e+00  0.0000000000000000e+00 0.0000000000000000e+00 0.0000000000000000e+00  0.0000000000000000e+00 0.0000000000000000e+00 0.0000000000000000e+00  0.0000000000000000e+00 0.0000000000000000e+00 0.0000000000000000e+00  0.0000000000000000e+00 0.0000000000000000e+00 0.0000000000000000e+00  0.0000000000000000e+00 0.0000000000000000e+00 0.0000000000000000e+00  0.0000000000000000e+00 0.0000000000000000e+00 0.0000000000000000e+00  0.0000000000000000e+00 0.0000000000000000e+00 0.0000000000000000e+00  0.0000000000000000e+00 0.0000000000000000e+00 0.0000000000000000e+00  0.0000000000000000e+00 0.0000000000000000e+00 0.0000000000000000e+00  0.0000000000000000e+00 0.0000000000000000e+00 0.0000000000000000e+00  0.0000000000000000e+00 0.0000000000000000e+00 0.0000000000000000e+00  0.0000000000000000e+00 0.0000000000000000e+00 0.0000000000000000e+00  0.0000000000000000e+00 0.0000000000000000e+00 0.0000000000000000e+00  0.0000000000000000e+00 0.0000000000000000e+00 0.0000000000000000e+00  0.0000000000000000e+00 0.0000000000000000e+00 0.0000000000000000e+00  0.0000000000000000e+00 0.0000000000000000e+00 0.0000000000000000e+00  0.0000000000000000e+00 0.0000000000000000e+00 0.0000000000000000e+00  0.0000000000000000e+00 0.0000000000000000e+00 0.0000000000000000e+00  0.0000000000000000e+00 0.0000000000000000e+00 0.0000000000000000e+00  0.0000000000000000e+00 0.0000000000000000e+00 0.0000000000000000e+00  0.0000000000000000e+00 0.0000000000000000e+00 0.0000000000000000e+00  0.0000000000000000e+00 0.0000000000000000e+00 0.0000000000000000e+00  0.0000000000000000e+00 0.0000000000000000e+00 0.0000000000000000e+00  0.0000000000000000e+00 0.0000000000000000e+00 0.0000000000000000e+00  0.0000000000000000e+00 0.0000000000000000e+00 0.0000000000000000e+00  0.0000000000000000e+00 0.0000000000000000e+00 0.0000000000000000e+00  0.0000000000000000e+00 0.0000000000000000e+00 0.0000000000000000e+00  0.0000000000000000e+00 0.0000000000000000e+00 0.0000000000000000e+00  0.0000000000000000e+00 0.0000000000000000e+00 0.0000000000000000e+00  0.0000000000000000e+00 0.0000000000000000e+00 0.0000000000000000e+00  0.0000000000000000e+00 0.0000000000000000e+00 0.0000000000000000e+00  0.0000000000000000e+00 0.0000000000000000e+00 0.0000000000000000e+00  0.0000000000000000e+00 0.0000000000000000e+00 0.0000000000000000e+00  0.0000000000000000e+00 0.0000000000000000e+00 0.0000000000000000e+00  0.0000000000000000e+00 0.0000000000000000e+00 0.0000000000000000e+00  0.0000000000000000e+00 0.0000000000000000e+00 0.0000000000000000e+00  0.0000000000000000e+00 0.0000000000000000e+00 0.0000000000000000e+00  0.0000000000000000e+00 0.0000000000000000e+00 0.0000000000000000e+00  0.0000000000000000e+00 0.0000000000000000e+00 0.0000000000000000e+00  0.0000000000000000e+00 0.0000000000000000e+00 0.0000000000000000e+00  0.0000000000000000e+00 0.0000000000000000e+00 0.0000000000000000e+00  0.0000000000000000e+00 0.0000000000000000e+00 0.0000000000000000e+00  0.0000000000000000e+00 0.0000000000000000e+00 0.0000000000000000e+00  0.0000000000000000e+00 0.0000000000000000e+00 0.0000000000000000e+00  0.0000000000000000e+00 0.0000000000000000e+00 0.0000000000000000e+00  0.0000000000000000e+00 0.0000000000000000e+00 0.0000000000000000e+00  0.0000000000000000e+00 0.0000000000000000e+00 0.0000000000000000e+00  0.0000000000000000e+00 0.0000000000000000e+00 0.0000000000000000e+00  0.0000000000000000e+00 0.0000000000000000e+00 0.0000000000000000e+00  0.0000000000000000e+00 0.0000000000000000e+00 0.0000000000000000e+00  0.0000000000000000e+00 0.0000000000000000e+00 0.0000000000000000e+00  0.0000000000000000e+00 0.0000000000000000e+00 0.0000000000000000e+00  0.0000000000000000e+00 0.0000000000000000e+00 0.0000000000000000e+00  0.0000000000000000e+00 0.0000000000000000e+00 0.0000000000000000e+00  0.0000000000000000e+00 0.0000000000000000e+00 0.0000000000000000e+00  0.0000000000000000e+00 0.0000000000000000e+00 0.0000000000000000e+00  0.0000000000000000e+00 0.0000000000000000e+00 0.0000000000000000e+00  0.0000000000000000e+00 0.0000000000000000e+00 0.0000000000000000e+00  0.0000000000000000e+00 0.0000000000000000e+00 0.0000000000000000e+00  0.0000000000000000e+00 0.0000000000000000e+00 0.0000000000000000e+00  0.0000000000000000e+00 0.0000000000000000e+00 0.0000000000000000e+00  0.0000000000000000e+00 0.0000000000000000e+00 0.0000000000000000e+00  0.0000000000000000e+00 0.0000000000000000e+00 0.0000000000000000e+00  0.0000000000000000e+00 0.0000000000000000e+00 0.0000000000000000e+00  0.0000000000000000e+00 0.0000000000000000e+00 0.0000000000000000e+00  0.0000000000000000e+00 0.0000000000000000e+00 0.0000000000000000e+00  0.0000000000000000e+00 0.0000000000000000e+00 0.0000000000000000e+00  0.0000000000000000e+00 0.0000000000000000e+00 0.0000000000000000e+00  0.0000000000000000e+00 0.0000000000000000e+00 0.0000000000000000e+00  0.0000000000000000e+00 0.0000000000000000e+00 0.0000000000000000e+00  0.0000000000000000e+00 0.0000000000000000e+00 0.0000000000000000e+00  0.0000000000000000e+00 0.0000000000000000e+00 0.0000000000000000e+00  0.0000000000000000e+00 0.0000000000000000e+00 0.0000000000000000e+00  0.0000000000000000e+00 0.0000000000000000e+00 0.0000000000000000e+00  0.0000000000000000e+00 0.0000000000000000e+00 0.0000000000000000e+00  0.0000000000000000e+00 0.0000000000000000e+00 0.0000000000000000e+00  0.0000000000000000e+00 0.0000000000000000e+00 0.0000000000000000e+00  0.0000000000000000e+00 0.0000000000000000e+00 0.0000000000000000e+00  0.0000000000000000e+00 0.0000000000000000e+00 0.0000000000000000e+00  0.0000000000000000e+00 0.0000000000000000e+00 0.0000000000000000e+00  0.0000000000000000e+00 0.0000000000000000e+00 0.0000000000000000e+00  0.0000000000000000e+00 0.0000000000000000e+00 0.0000000000000000e+00  0.0000000000000000e+00 0.0000000000000000e+00 0.0000000000000000e+00  0.0000000000000000e+00 0.0000000000000000e+00 0.0000000000000000e+00  0.0000000000000000e+00 0.0000000000000000e+00 0.0000000000000000e+00  0.0000000000000000e+00 0.0000000000000000e+00 0.0000000000000000e+00  0.0000000000000000e+00 0.0000000000000000e+00 0.0000000000000000e+00  0.0000000000000000e+00 0.0000000000000000e+00 0.0000000000000000e+00  0.0000000000000000e+00 0.0000000000000000e+00 0.0000000000000000e+00  0.0000000000000000e+00 0.0000000000000000e+00 0.0000000000000000e+00  0.0000000000000000e+00 0.0000000000000000e+00 0.0000000000000000e+00  0.0000000000000000e+00 0.0000000000000000e+00 0.0000000000000000e+00  0.0000000000000000e+00 0.0000000000000000e+00 0.0000000000000000e+00  0.0000000000000000e+00 0.0000000000000000e+00 0.0000000000000000e+00  0.0000000000000000e+00 0.0000000000000000e+00 0.0000000000000000e+00  0.0000000000000000e+00 0.0000000000000000e+00 0.0000000000000000e+00  0.0000000000000000e+00 0.0000000000000000e+00 0.0000000000000000e+00  0.0000000000000000e+00 0.0000000000000000e+00 0.0000000000000000e+00  0.0000000000000000e+00 0.0000000000000000e+00 0.0000000000000000e+00  0.0000000000000000e+00 0.0000000000000000e+00 0.0000000000000000e+00  0.0000000000000000e+00 0.0000000000000000e+00 0.0000000000000000e+00  0.0000000000000000e+00 0.0000000000000000e+00 0.0000000000000000e+00  0.0000000000000000e+00 0.0000000000000000e+00 0.0000000000000000e+00  0.0000000000000000e+00 0.0000000000000000e+00 0.0000000000000000e+00  0.0000000000000000e+00 0.0000000000000000e+00 0.0000000000000000e+00  0.0000000000000000e+00 0.0000000000000000e+00 0.0000000000000000e+00  0.0000000000000000e+00 0.0000000000000000e+00 0.0000000000000000e+00  0.0000000000000000e+00 0.0000000000000000e+00 0.0000000000000000e+00  0.0000000000000000e+00 0.0000000000000000e+00 0.0000000000000000e+00  0.0000000000000000e+00 0.0000000000000000e+00 0.0000000000000000e+00  0.0000000000000000e+00 0.0000000000000000e+00 0.0000000000000000e+00  4.9462171918436573e-07 -3.1056419748566950e-06 0.0000000000000000e+00  1.1352533086245068e-06 -3.7117419378252260e-06 0.0000000000000000e+00  1.8935579105276111e-06 -4.4209542941065391e-06 0.0000000000000000e+00  2.7572409364367762e-06 -5.3127838312200427e-06 0.0000000000000000e+00  3.5806506049998939e-06 -6.4422016461252569e-06 0.0000000000000000e+00  4.4316991816241605e-06 -7.8576593940733412e-06 0.0000000000000000e+00  5.1958880334836183e-06 -9.4651237545914439e-06 0.0000000000000000e+00  5.9239634066664286e-06 -1.1335637816393040e-05 0.0000000000000000e+00  6.6806292025598649e-06 -1.3409857010539630e-05 0.0000000000000000e+00  7.3226833959795040e-06 -1.5687802395848845e-05 0.0000000000000000e+00  7.9988977211351359e-06 -1.8192199907984322e-05 0.0000000000000000e+00  8.5618672840579621e-06 -2.0877030079852759e-05 0.0000000000000000e+00  9.1366336386147835e-06 -2.3762560078952614e-05 0.0000000000000000e+00  9.6256258165131608e-06 -2.6807519066664846e-05 0.0000000000000000e+00  1.0069692799186512e-05 -3.0042183129526258e-05 0.0000000000000000e+00  1.0521025086586030e-05 -3.3434742476054243e-05 0.0000000000000000e+00  1.0872354248942816e-05 -3.6964696870488636e-05 0.0000000000000000e+00  1.1231094393820681e-05 -4.0668116127135954e-05 0.0000000000000000e+00  1.1496499712290441e-05 -4.4484086495174904e-05 0.0000000000000000e+00  1.1763849448834351e-05 -4.8451431638565603e-05 0.0000000000000000e+00  1.1953913991082628e-05 -5.2522445809264460e-05 0.0000000000000000e+00  1.2124516367597060e-05 -5.6728507077540442e-05 0.0000000000000000e+00  1.2234596273518315e-05 -6.1027085504550594e-05 0.0000000000000000e+00  1.2300725222735542e-05 -6.5437902848670300e-05 0.0000000000000000e+00  1.2356428067549962e-05 -6.9941951784786795e-05 0.0000000000000000e+00  1.2347509551079046e-05 -7.4525254889909522e-05 0.0000000000000000e+00  1.2303569961309596e-05 -7.9219166644238856e-05 0.0000000000000000e+00  1.2213473966025234e-05 -8.3964263119562621e-05 0.0000000000000000e+00  1.2087439654670759e-05 -8.8806494967839369e-05 0.0000000000000000e+00  1.1916173388337051e-05 -9.3693691825917611e-05 0.0000000000000000e+00  1.1709928399857191e-05 -9.8663567060076684e-05 0.0000000000000000e+00  1.1457283615270279e-05 -1.0366693369586992e-04 0.0000000000000000e+00  1.1171961949647147e-05 -1.0874373718105344e-04 0.0000000000000000e+00  1.0839537290653570e-05 -1.1384018807731633e-04 0.0000000000000000e+00  1.0468954323029716e-05 -1.1900517848355848e-04 0.0000000000000000e+00  1.0057053595080389e-05 -1.2418171081712899e-04 0.0000000000000000e+00  9.6089056679466897e-06 -1.2941229127255723e-04 0.0000000000000000e+00  9.1188970205325803e-06 -1.3464769154712745e-04 0.0000000000000000e+00  8.5908432533832198e-06 -1.3992819481542881e-04 0.0000000000000000e+00  8.0195218673979478e-06 -1.4520751191878141e-04 0.0000000000000000e+00  7.4074929174794412e-06 -1.5051719849851588e-04 0.0000000000000000e+00  6.7599323170385693e-06 -1.5582909424182402e-04 0.0000000000000000e+00  6.0673576167750480e-06 -1.6115814825175858e-04 0.0000000000000000e+00  5.3522648885833170e-06 -1.6649013105897990e-04 0.0000000000000000e+00  4.5906093894949745e-06 -1.7181425355365974e-04 0.0000000000000000e+00  3.8157701313999132e-06 -1.7717492705868993e-04 0.0000000000000000e+00  -7.4716808943936688e-07 -1.8190053857078839e-04 0.0000000000000000e+00  -7.9692927200482630e-06 -1.8035614663879391e-04 0.0000000000000000e+00  -1.0636715772868825e-05 -1.7428050568356763e-04 0.0000000000000000e+00  -9.8429186365539567e-06 -1.6884628178754344e-04 0.0000000000000000e+00  -9.0605203999796104e-06 -1.6339658665410058e-04 0.0000000000000000e+00  -8.3174851211119830e-06 -1.5796962686035528e-04 0.0000000000000000e+00  -7.5971413171367106e-06 -1.5255168863376111e-04 0.0000000000000000e+00  -6.9183546555414015e-06 -1.4714746178299951e-04 0.0000000000000000e+00  -6.2609108292698950e-06 -1.4175972804378572e-04 0.0000000000000000e+00  -5.6449439317811314e-06 -1.3637985173061004e-04 0.0000000000000000e+00  -5.0511290649787468e-06 -1.3103706678950012e-04 0.0000000000000000e+00  -4.4959503117609554e-06 -1.2569940008577945e-04 0.0000000000000000e+00  -3.9597898465492132e-06 -1.2040702081658483e-04 0.0000000000000000e+00  -3.4638268021838885e-06 -1.1512855326361874e-04 0.0000000000000000e+00  -2.9829851580728434e-06 -1.0990490250235103e-04 0.0000000000000000e+00  -2.5433063369659089e-06 -1.0470497063287733e-04 0.0000000000000000e+00  -2.1145957401247352e-06 -9.9569214259172221e-05 0.0000000000000000e+00  -1.7300448976262744e-06 -9.4466879017780629e-05 0.0000000000000000e+00  -1.3519983208972806e-06 -8.9436906540899859e-05 0.0000000000000000e+00  -1.0220930069102806e-06 -8.4450291451116231e-05 0.0000000000000000e+00  -6.9492410861790397e-07 -7.9549310817770088e-05 0.0000000000000000e+00  -4.1785327082098393e-07 -7.4704416361786908e-05 0.0000000000000000e+00  -1.3763548333190870e-07 -6.9955893484908229e-05 0.0000000000000000e+00  8.8131500965415434e-08 -6.5275868395820057e-05 0.0000000000000000e+00  3.1433688099361815e-07 -6.0697602077515006e-05 0.0000000000000000e+00  4.9675727645688235e-07 -5.6204437804159271e-05 0.0000000000000000e+00  6.4638594234245225e-07 -5.1830001539316726e-05 0.0000000000000000e+00  8.0747638402677512e-07 -4.7549111696268705e-05 0.0000000000000000e+00  9.1889849112578866e-07 -4.3384608010327859e-05 0.0000000000000000e+00  1.0221829481321419e-06 -3.9358192574813712e-05 0.0000000000000000e+00  1.0874668557739104e-06 -3.5443518519180032e-05 0.0000000000000000e+00  1.1427704138181519e-06 -3.1686069925189995e-05 0.0000000000000000e+00  1.1608069050183555e-06 -2.8050519044516718e-05 0.0000000000000000e+00  1.1830497366245135e-06 -2.4602840732129259e-05 0.0000000000000000e+00  1.1533413613418259e-06 -2.1282485141027944e-05 0.0000000000000000e+00  1.0944131317222573e-06 -1.8168137037289864e-05 0.0000000000000000e+00  1.0633877691321779e-06 -1.5196335657180739e-05 0.0000000000000000e+00  9.7868570095761527e-07 -1.2430820349647922e-05 0.0000000000000000e+00  8.9273189222394567e-07 -9.8724154320968597e-06 0.0000000000000000e+00  7.6729045335287428e-07 -7.5044969699490075e-06 0.0000000000000000e+00  6.6045233718927234e-07 -5.3841400386954619e-06 0.0000000000000000e+00  4.9245630188961862e-07 -3.4503235090987491e-06 0.0000000000000000e+00  3.0060883192102587e-07 -1.7889031047512013e-06 0.0000000000000000e+00  1.6019930287497254e-07 -3.2825222344037704e-07 0.0000000000000000e+00  -3.7357437691702893e-08 8.8571233937239181e-07 0.0000000000000000e+00  -1.6003102229996805e-07 1.8320685635573525e-06 0.0000000000000000e+00  -2.6251224067915643e-07 2.4225606735994319e-06 0.0000000000000000e+00  -1.6494961525839178e-07 2.5828461479070049e-06 0.0000000000000000e+00  -2.2449300986164864e-07 -2.7980019990822879e-07 0.0000000000000000e+00  -3.0173779173579806e-06 -1.7302909600473584e-04 0.0000000000000000e+00  -1.4316246553831136e-06 -1.6274242985263445e-04 0.0000000000000000e+00  6.3944477247699831e-07 -1.4597324164947599e-04 0.0000000000000000e+00  1.0826729470619156e-06 -1.5540115744900756e-06 0.0000000000000000e+00  1.7211936989136347e-06 -1.3548041895948334e-04 0.0000000000000000e+00  2.0452161482118006e-06 -3.7521431246539854e-06 0.0000000000000000e+00  2.7712151821893077e-06 -1.2490139221552334e-04 0.0000000000000000e+00  3.4649989518590722e-06 -9.2833082984154738e-06 0.0000000000000000e+00  4.2710762423385587e-06 -1.3890264357422914e-05 0.0000000000000000e+00  3.6841648033876338e-06 -1.1443999274365649e-04 0.0000000000000000e+00  5.6564755306731057e-06 -2.9015197155328836e-05 0.0000000000000000e+00  5.1050112381263228e-06 -9.4019077564327501e-05 0.0000000000000000e+00  4.8695974852527445e-06 -1.9078083091998762e-05 0.0000000000000000e+00  6.0541074045576403e-06 -3.6080397294825443e-05 0.0000000000000000e+00  5.6152774658473321e-06 -8.4138546256223713e-05 0.0000000000000000e+00  4.4617430694961049e-06 -1.0413282553838788e-04 0.0000000000000000e+00  6.2723845212140625e-06 -4.3819258851829086e-05 0.0000000000000000e+00  5.9923292430222123e-06 -7.4538367824596665e-05 0.0000000000000000e+00  6.2870045304092840e-06 -5.1690133968191834e-05 0.0000000000000000e+00  6.3152799532944667e-06 -6.5481797336684598e-05 0.0000000000000000e+00  6.3273508508414044e-06 -5.8204890606740442e-05 0.0000000000000000e+00  5.3358658244492287e-06 -2.3690233167298649e-05 0.0000000000000000e+00  -5.3564215596609151e-07 -1.5465172614081814e-04 0.0000000000000000e+00  2.7737570962852763e-06 -6.2020011432338045e-06 0.0000000000000000e+00  -4.7267029367976709e-06 -1.6732164380728519e-04 0.0000000000000000e+00  1.7356909525583956e-07 3.7126295836068912e-07 0.0000000000000000e+00  2.0816030743225307e-07 -1.2964846626576084e-04 0.0000000000000000e+00  -9.2766476012078890e-07 -1.4029689193689201e-04 0.0000000000000000e+00  2.1438495450507053e-06 -3.7094065010636645e-06 0.0000000000000000e+00  4.7919145084040020e-06 -1.2327273864898299e-05 0.0000000000000000e+00  2.8366667029434071e-06 -9.8451487038803991e-05 0.0000000000000000e+00  1.2130970480853815e-06 -1.1910076913186408e-04 0.0000000000000000e+00  7.2864069527655552e-06 -3.3206328374507023e-05 0.0000000000000000e+00  3.4597477937993862e-06 -8.8426335831430993e-05 0.0000000000000000e+00  5.6727069058951993e-06 -1.7373625152566081e-05 0.0000000000000000e+00  7.6766745344826443e-06 -4.0648701284059884e-05 0.0000000000000000e+00  3.9576803923060028e-06 -7.8657898377641148e-05 0.0000000000000000e+00  2.0882984192084017e-06 -1.0868866045970135e-04 0.0000000000000000e+00  8.2792224176772356e-06 -4.8741429211170843e-05 0.0000000000000000e+00  4.3319406048830025e-06 -6.9193794646127966e-05 0.0000000000000000e+00  -3.8878775683846949e-07 -7.3987507394614311e-07 0.0000000000000000e+00  -4.9312089055843745e-07 5.7590235409464135e-07 0.0000000000000000e+00  -2.0273382546732300e-06 -1.7760900254368760e-04 0.0000000000000000e+00  8.4517774791089313e-07 -2.0923648811045214e-0