<?xml version="1.0"?>
<VTKFile type="UnstructuredGrid"  version="0.1"  >
<UnstructuredGrid>
<Piece  NumberOfPoints="1419" NumberOfCells="2698">
<Points>
<DataArray  type="Float64"  NumberOfComponents="3"  format="ascii">0 0 0  0 0.41 0  2.5 0 0  2.5 0.41 0  0.6 0.19 0  0.6 0.21 0  0.25 0.2 0  0.15 0.2 0  0.2489897948556636 0.21 0  0.2489897948556636 0.19 0  0.6 0.2 0  0 0.3807142857143437 0  0 0.3514285714286952 0  0 0.3221428571430699 0  0 0.29285714285744 0  0 0.2635714285718054 0  0 0.2342857142861561 0  0 0.2050000000005308 0  0 0.175714285714732 0  0 0.1464285714289574 0  0 0.1171428571431897 0  0 0.08785714285737878 0  0 0.05857142857161107 0  0 0.02928571428580012 0  0.03015443760436003 0 0  0.06140001986583606 0 0  0.09377624077125973 0 0  0.1273239957535082 0 0  0.1620856860351972 0 0  0.1981052433264291 0 0  0.235428184091502 0 0  0.2741016576309132 0 0  0.3141745521465447 0 0  0.3556974926295285 0 0  0.3987229542472677 0 0  0.4433053055141081 0 0  0.4895008759286886 0 0  0.5373680609405097 0 0  0.5869673343216626 0 0  0.6383613676634521 0 0  0.6916151138468254 0 0  0.7467958595648856 0 0  0.8039733463919316 0 0  0.8632198139502143 0 0  0.9246101326867038 0 0  0.9882218810934433 0 0  1.054135445558498 0 0  1.122434100542598 0 0  1.193204177141305 0 0  1.266535089879536 0 0  1.342519516046404 0 0  1.421253448503939 0 0  1.502836389106271 0 0  1.587371439758838 0 0  1.674965418777374 0 0  1.765729001825544 0 0  1.859776908880082 0 0  1.957227977487062 0 0  2.058205329869943 0 0  2.162836591189951 0 0  2.271253957290865 0 0  2.383594446803425 0 0  2.5 0.1024999999997612 0  2.5 0.2049999999994743 0  2.5 0.3074999999997183 0  2.383594446803656 0.41 0  2.271253957291315 0.41 0  2.162836591190598 0.41 0  2.058205329870775 0.41 0  1.957227977488067 0.41 0  1.859776908881246 0.41 0  1.765729001826854 0.41 0  1.674965418778818 0.41 0  1.58737143976041 0.41 0  1.502836389107956 0.41 0  1.421253448505726 0.41 0  1.342519516048286 0.41 0  1.266535089881505 0.41 0  1.193204177143353 0.41 0  1.122434100544716 0.41 0  1.05413544556068 0.41 0  0.9882218810956305 0.41 0  0.9246101326886647 0.41 0  0.8632198139519631 0.41 0  0.8039733463934788 0.41 0  0.7467958595662458 0.41 0  0.6916151138480078 0.41 0  0.6383613676644679 0.41 0  0.5869673343225223 0.41 0  0.5373680609412221 0.41 0  0.4895008759292634 0.41 0  0.4433053055145528 0.41 0  0.3987229542475914 0.41 0  0.3556974926297398 0.41 0  0.3141745521466497 0.41 0  0.2741016576310038 0.41 0  0.2354281840915826 0.41 0  0.1981052433265003 0.41 0  0.1620856860352591 0.41 0  0.1273239957535623 0.41 0  0.09377624077128965 0.41 0  0.06140001986584975 0.41 0  0.03015443760436654 0.41 0  0.2497468076502589 0.2050254481002335 0  0.2497468076502614 0.1949745518997913 0  0.2469965252529372 0.1829317073451959 0  0.2439893735792749 0.1762316384219906 0  0.2400332147834255 0.1700443375285386 0  0.2352133972704371 0.1645032867342007 0  0.2296339016332438 0.1597280261969788 0  0.2234150974217223 0.1558215752574715 0  0.2166911463437691 0.1528682099456123 0  0.2096071079204251 0.1509316448471593 0  0.2023158100364996 0.1500536585536553 0  0.194974551899914 0.1502531923497262 0  0.1877417105387872 0.1515259415822739 0  0.1807733240461124 0.153844448527136 0  0.1742197252835808 0.15715869474974 0  0.1682222986673531 0.1613971801805478 0  0.162910430003803 0.1664684656256651 0  0.1583987151779087 0.1722631454351573 0  0.1547844879126891 0.178656207771761 0  0.1521457199348551 0.1855097315605723 0  0.1505393388476355 0.1926758619366523 0  0.1505393388476328 0.2073241380633295 0  0.1521457199348437 0.2144902684393899 0  0.1547844879126531 0.221343792228163 0  0.1583987151778488 0.2277368545647528 0  0.1629104300036858 0.2335315343742052 0  0.1682222986671726 0.2386028198193036 0  0.1742197252833576 0.2428413052501257 0  0.1807733240458683 0.2461555514727623 0  0.1877417105384929 0.2484740584176516 0  0.1949745518995776 0.2497468076502398 0  0.202315810036185 0.2499463414463592 0  0.2096071079201568 0.2490683551528932 0  0.2166911463435495 0.2471317900544655 0  0.2234150974215506 0.2441784247426195 0  0.2296339016331197 0.2402719738031125 0  0.2352133972703547 0.2354967132658811 0  0.2400332147833751 0.2299556624715287 0  0.2439893735792577 0.2237683615780412 0  0.246996525252926 0.2170682926548348 0  0.25645809709277 0.21 0  0.2639263993298655 0.21 0  0.271394701566961 0.21 0  0.2788630038040554 0.21 0  0.2863313060411479 0.21 0  0.2937996082782405 0.21 0  0.301267910515333 0.21 0  0.3087362127524279 0.21 0  0.3162045149895234 0.21 0  0.3236728172265972 0.21 0  0.3311411194636928 0.21 0  0.3386094217007701 0.21 0  0.3460777239378666 0.21 0  0.3535460261749672 0.21 0  0.3610143284120516 0.21 0  0.3684826306491596 0.21 0  0.3759509328862226 0.21 0  0.383419235123329 0.21 0  0.3908875373604028 0.21 0  0.3983558395975142 0.21 0  0.4058241418345938 0.21 0  0.4132924440716992 0.21 0  0.4207607463087888 0.21 0  0.4282290485459029 0.21 0  0.4356973507830418 0.21 0  0.4431656530201649 0.21 0  0.4506339552573136 0.21 0  0.4581022574944306 0.21 0  0.4655705597315852 0.21 0  0.4730388619686996 0.21 0  0.480507164205851 0.21 0  0.4879754664429498 0.21 0  0.4954437686800938 0.21 0  0.502912070917267 0.21 0  0.5103803731544119 0.21 0  0.5178486753915261 0.21 0  0.5253169776286404 0.21 0  0.5327852798657868 0.21 0  0.5402535821029386 0.21 0  0.54772188434007 0.21 0  0.5551901865771842 0.21 0  0.5626584888143201 0.21 0  0.5701267910514778 0.21 0  0.5775950932886138 0.21 0  0.5850633955257281 0.21 0  0.5925316977628483 0.21 0  0.6 0.2050000000000054 0  0.6 0.1950000000000217 0  0.5925316977628897 0.19 0  0.5850633955257988 0.19 0  0.5775950932887378 0.19 0  0.5701267910515998 0.19 0  0.5626584888145268 0.19 0  0.5551901865773963 0.19 0  0.547721884340339 0.19 0  0.5402535821032429 0.19 0  0.5327852798661811 0.19 0  0.5253169776290537 0.19 0  0.5178486753919799 0.19 0  0.5103803731549078 0.19 0  0.502912070917822 0.19 0  0.4954437686807294 0.19 0  0.4879754664436223 0.19 0  0.4805071642065402 0.19 0  0.4730388619694271 0.19 0  0.4655705597323621 0.19 0  0.4581022574952563 0.19 0  0.4506339552581777 0.19 0  0.4431656530210671 0.19 0  0.4356973507839815 0.19 0  0.4282290485468779 0.19 0  0.4207607463097617 0.19 0  0.4132924440726327 0.19 0  0.4058241418354857 0.19 0  0.3983558395983636 0.19 0  0.3908875373612097 0.19 0  0.3834192351240934 0.19 0  0.3759509328869369 0.19 0  0.3684826306498175 0.19 0  0.361014328412667 0.19 0  0.3535460261755617 0.19 0  0.3460777239384295 0.19 0  0.3386094217012945 0.19 0  0.3311411194641595 0.19 0  0.3236728172270245 0.19 0  0.3162045149898895 0.19 0  0.3087362127527544 0.19 0  0.3012679105156187 0.19 0  0.2937996082784807 0.19 0  0.2863313060413428 0.19 0  0.2788630038042048 0.19 0  0.2713947015670686 0.19 0  0.2639263993299336 0.19 0  0.2564580970927985 0.19 0  0.2607803159922026 0.2000727136295815 0  0.5887803774232762 0.2001272386983733 0  0.5745072403740523 0.2002044435018727 0  0.5511891430099709 0.2001122610077113 0  0.2751288526855082 0.20000000000002 0  0.5365194309847112 0.1999999999999436 0  0.2894621222999649 0.1998691686390484 0  0.5215828265105155 0.1999999999999228 0  0.3127789816668748 0.1998657885438805 0  0.3274069683451451 0.2000000000000796 0  0.5066462220363641 0.199999999999908 0  0.3650630746574081 0.199866017807523 0  0.476773013087985 0.1999999999998713 0  0.3417402379596385 0.1998691686391011 0  0.3796850840047755 0.200000000000134 0  0.4618364086138087 0.1999999999998546 0  0.4917096175621762 0.1999999999998808 0  0.3946216884789568 0.2000000000001512 0  0.446899804139621 0.1999999999998389 0  0.4089549580935208 0.1998691686391595 0  0.4322718174608562 0.200127451265745 0  0.4201487168029707 0.1999966199048527 0  0.3528922713220932 0.2000185703532356 0  0.5633122436674589 0.1999814296467508 0  0.3006558810093873 0.1999966199048318 0  0.5815926498168407 0.1966545283159175 0  0.2677053789419034 0.1964246479135325 0  0.5290511287476175 0.1970915826863981 0  0.5439877332217911 0.197091582686394 0  0.2825131256993216 0.2035478995978015 0  0.3199386661080599 0.202908417313604 0  0.4842413153250809 0.1970915826863873 0  0.5141145242734466 0.1970915826863843 0  0.3722167817676917 0.2029084173136195 0  0.4693047108508938 0.1970915826863783 0  0.3348752705822316 0.202908417313609 0  0.3871533862418661 0.2029084173136212 0  0.4543681063767183 0.1970915826863795 0  0.4991779197992749 0.1970915826863902 0  0.4020059614928624 0.203547899597858 0  0.4394315019025246 0.1970915826863714 0  0.2550657455369551 0.2034088125358657 0  0.2548908499171161 0.1966940311614271 0  0.5946539510196798 0.2024302972968126 0  0.267698176732111 0.2039977513680092 0  0.4261685417851465 0.196409292431739 0  0.3590076176283495 0.196411355804271 0  0.5571672426447437 0.2036011176410121 0  0.3066757059912147 0.1964092924317024 0  0.594380730180568 0.1966558399668133 0  0.4842413153245942 0.2040749161535287 0  0.4693047108503577 0.2040749161535231 0  0.3871533862424271 0.1959250838464788 0  0.372246743208829 0.1959123236376545 0  0.5141145242731028 0.2040749161535395 0  0.4543681063761134 0.2040749161535186 0  0.4019979587101454 0.1959834479682427 0  0.4394608940728603 0.2040870543693135 0  0.5439623148931173 0.2040856076781014 0  0.5290511287473298 0.2040749161535501 0  0.4991779197988497 0.2040749161535382 0  0.3347912413592433 0.1959225448935183 0  0.3199680582793816 0.1959123018030061 0  0.2825051229162361 0.1959834479681729 0  0.3590471196690275 0.2036304442587945 0  0.5571594006495384 0.1963685282145804 0  0.3067669986803285 0.203627750582736 0  0.4262598344738712 0.2036568242185335 0  0.5814408164431408 0.2041285596160068 0  0.5688286748170428 0.1961819304477386 0  0.4145905603063645 0.2038180695522843 0  0.3473758401724931 0.2038180695522752 0  0.2950977245128307 0.2038180695522663 0  0.5688286748170693 0.203818069552238 0  0.2950977245127906 0.1961819304477774 0  0.3473758401723931 0.1961819304478349 0  0.4145905603061963 0.1961819304479011 0  0.2601812407614425 0.2056861609747042
[...]
<PointData  Vectors="f_40-1"> 
<DataArray  type="Float64"  Name="f_40-1"  NumberOfComponents="3" format="ascii">0.0000000000000000e+00 0.0000000000000000e+00 0.0000000000000000e+00  0.0000000000000000e+00 0.0000000000000000e+00 0.0000000000000000e+00  0.0000000000000000e+00 0.0000000000000000e+00 0.0000000000000000e+00  0.0000000000000000e+00 0.0000000000000000e+00 0.0000000000000000e+00  -1.1328692286447353e-05 -1.7109551294170386e-04 0.0000000000000000e+00  2.4691860126147059e-06 -1.7417671898183911e-04 0.0000000000000000e+00  0.0000000000000000e+00 0.0000000000000000e+00 0.0000000000000000e+00  0.0000000000000000e+00 0.0000000000000000e+00 0.0000000000000000e+00  0.0000000000000000e+00 0.0000000000000000e+00 0.0000000000000000e+00  0.0000000000000000e+00 0.0000000000000000e+00 0.0000000000000000e+00  -4.6898048265323093e-06 -1.7263564678765664e-04 0.0000000000000000e+00  0.0000000000000000e+00 0.0000000000000000e+00 0.0000000000000000e+00  0.0000000000000000e+00 0.0000000000000000e+00 0.0000000000000000e+00  0.0000000000000000e+00 0.0000000000000000e+00 0.0000000000000000e+00  0.0000000000000000e+00 0.0000000000000000e+00 0.0000000000000000e+00  0.0000000000000000e+00 0.0000000000000000e+00 0.0000000000000000e+00  0.0000000000000000e+00 0.0000000000000000e+00 0.0000000000000000e+00  0.0000000000000000e+00 0.0000000000000000e+00 0.0000000000000000e+00  0.0000000000000000e+00 0.0000000000000000e+00 0.0000000000000000e+00  0.0000000000000000e+00 0.0000000000000000e+00 0.0000000000000000e+00  0.0000000000000000e+00 0.0000000000000000e+00 0.0000000000000000e+00  0.0000000000000000e+00 0.0000000000000000e+00 0.0000000000000000e+00  0.0000000000000000e+00 0.0000000000000000e+00 0.0000000000000000e+00  0.0000000000000000e+00 0.0000000000000000e+00 0.0000000000000000e+00  0.0000000000000000e+00 0.0000000000000000e+00 0.0000000000000000e+00  0.0000000000000000e+00 0.0000000000000000e+00 0.0000000000000000e+00  0.0000000000000000e+00 0.0000000000000000e+00 0.0000000000000000e+00  0.0000000000000000e+00 0.0000000000000000e+00 0.0000000000000000e+00  0.0000000000000000e+00 0.0000000000000000e+00 0.0000000000000000e+00  0.0000000000000000e+00 0.0000000000000000e+00 0.0000000000000000e+00  0.0000000000000000e+00 0.0000000000000000e+00 0.0000000000000000e+00  0.0000000000000000e+00 0.0000000000000000e+00 0.0000000000000000e+00  0.0000000000000000e+00 0.0000000000000000e+00 0.0000000000000000e+00  0.0000000000000000e+00 0.0000000000000000e+00 0.0000000000000000e+00  0.0000000000000000e+00 0.0000000000000000e+00 0.0000000000000000e+00  0.0000000000000000e+00 0.0000000000000000e+00 0.0000000000000000e+00  0.0000000000000000e+00 0.0000000000000000e+00 0.0000000000000000e+00  0.0000000000000000e+00 0.0000000000000000e+00 0.0000000000000000e+00  0.0000000000000000e+00 0.0000000000000000e+00 0.0000000000000000e+00  0.0000000000000000e+00 0.0000000000000000e+00 0.0000000000000000e+00  0.0000000000000000e+00 0.0000000000000000e+00 0.0000000000000000e+00  0.0000000000000000e+00 0.0000000000000000e+00 0.0000000000000000e+00  0.0000000000000000e+00 0.0000000000000000e+00 0.0000000000000000e+00  0.0000000000000000e+00 0.0000000000000000e+00 0.0000000000000000e+00  0.0000000000000000e+00 0.0000000000000000e+00 0.0000000000000000e+00  0.0000000000000000e+00 0.0000000000000000e+00 0.0000000000000000e+00  0.0000000000000000e+00 0.0000000000000000e+00 0.0000000000000000e+00  0.0000000000000000e+00 0.0000000000000000e+00 0.0000000000000000e+00  0.0000000000000000e+00 0.0000000000000000e+00 0.0000000000000000e+00  0.0000000000000000e+00 0.0000000000000000e+00 0.0000000000000000e+00  0.0000000000000000e+00 0.0000000000000000e+00 0.0000000000000000e+00  0.0000000000000000e+00 0.0000000000000000e+00 0.0000000000000000e+00  0.0000000000000000e+00 0.0000000000000000e+00 0.0000000000000000e+00  0.0000000000000000e+00 0.0000000000000000e+00 0.0000000000000000e+00  0.0000000000000000e+00 0.0000000000000000e+00 0.0000000000000000e+00  0.0000000000000000e+00 0.0000000000000000e+00 0.0000000000000000e+00  0.0000000000000000e+00 0.0000000000000000e+00 0.0000000000000000e+00  0.0000000000000000e+00 0.0000000000000000e+00 0.0000000000000000e+00  0.0000000000000000e+00 0.0000000000000000e+00 0.0000000000000000e+00  0.0000000000000000e+00 0.0000000000000000e+00 0.0000000000000000e+00  0.0000000000000000e+00 0.0000000000000000e+00 0.0000000000000000e+00  0.0000000000000000e+00 0.0000000000000000e+00 0.0000000000000000e+00  0.0000000000000000e+00 0.0000000000000000e+00 0.0000000000000000e+00  0.0000000000000000e+00 0.0000000000000000e+00 0.0000000000000000e+00  0.0000000000000000e+00 0.0000000000000000e+00 0.0000000000000000e+00  0.0000000000000000e+00 0.0000000000000000e+00 0.0000000000000000e+00  0.0000000000000000e+00 0.0000000000000000e+00 0.0000000000000000e+00  0.0000000000000000e+00 0.0000000000000000e+00 0.0000000000000000e+00  0.0000000000000000e+00 0.0000000000000000e+00 0.0000000000000000e+00  0.0000000000000000e+00 0.0000000000000000e+00 0.0000000000000000e+00  0.0000000000000000e+00 0.0000000000000000e+00 0.0000000000000000e+00  0.0000000000000000e+00 0.0000000000000000e+00 0.0000000000000000e+00  0.0000000000000000e+00 0.0000000000000000e+00 0.0000000000000000e+00  0.0000000000000000e+00 0.0000000000000000e+00 0.0000000000000000e+00  0.0000000000000000e+00 0.0000000000000000e+00 0.0000000000000000e+00  0.0000000000000000e+00 0.0000000000000000e+00 0.0000000000000000e+00  0.0000000000000000e+00 0.0000000000000000e+00 0.0000000000000000e+00  0.0000000000000000e+00 0.0000000000000000e+00 0.0000000000000000e+00  0.0000000000000000e+00 0.0000000000000000e+00 0.0000000000000000e+00  0.0000000000000000e+00 0.0000000000000000e+00 0.0000000000000000e+00  0.0000000000000000e+00 0.0000000000000000e+00 0.0000000000000000e+00  0.0000000000000000e+00 0.0000000000000000e+00 0.0000000000000000e+00  0.0000000000000000e+00 0.0000000000000000e+00 0.0000000000000000e+00  0.0000000000000000e+00 0.0000000000000000e+00 0.0000000000000000e+00  0.0000000000000000e+00 0.0000000000000000e+00 0.0000000000000000e+00  0.0000000000000000e+00 0.0000000000000000e+00 0.0000000000000000e+00  0.0000000000000000e+00 0.0000000000000000e+00 0.0000000000000000e+00  0.0000000000000000e+00 0.0000000000000000e+00 0.0000000000000000e+00  0.0000000000000000e+00 0.0000000000000000e+00 0.0000000000000000e+00  0.0000000000000000e+00 0.0000000000000000e+00 0.0000000000000000e+00  0.0000000000000000e+00 0.0000000000000000e+00 0.0000000000000000e+00  0.0000000000000000e+00 0.0000000000000000e+00 0.0000000000000000e+00  0.0000000000000000e+00 0.0000000000000000e+00 0.0000000000000000e+00  0.0000000000000000e+00 0.0000000000000000e+00 0.0000000000000000e+00  0.0000000000000000e+00 0.0000000000000000e+00 0.0000000000000000e+00  0.0000000000000000e+00 0.0000000000000000e+00 0.0000000000000000e+00  0.0000000000000000e+00 0.0000000000000000e+00 0.0000000000000000e+00  0.0000000000000000e+00 0.0000000000000000e+00 0.0000000000000000e+00  0.0000000000000000e+00 0.0000000000000000e+00 0.0000000000000000e+00  0.0000000000000000e+00 0.0000000000000000e+00 0.0000000000000000e+00  0.0000000000000000e+00 0.0000000000000000e+00 0.0000000000000000e+00  0.0000000000000000e+00 0.0000000000000000e+00 0.0000000000000000e+00  0.0000000000000000e+00 0.0000000000000000e+00 0.0000000000000000e+00  0.0000000000000000e+00 0.0000000000000000e+00 0.0000000000000000e+00  0.0000000000000000e+00 0.0000000000000000e+00 0.0000000000000000e+00  0.0000000000000000e+00 0.0000000000000000e+00 0.0000000000000000e+00  0.0000000000000000e+00 0.0000000000000000e+00 0.0000000000000000e+00  0.0000000000000000e+00 0.0000000000000000e+00 0.0000000000000000e+00  0.0000000000000000e+00 0.0000000000000000e+00 0.0000000000000000e+00  0.0000000000000000e+00 0.0000000000000000e+00 0.0000000000000000e+00  0.0000000000000000e+00 0.0000000000000000e+00 0.0000000000000000e+00  0.0000000000000000e+00 0.0000000000000000e+00 0.0000000000000000e+00  0.0000000000000000e+00 0.0000000000000000e+00 0.0000000000000000e+00  0.0000000000000000e+00 0.0000000000000000e+00 0.0000000000000000e+00  0.0000000000000000e+00 0.0000000000000000e+00 0.0000000000000000e+00  0.0000000000000000e+00 0.0000000000000000e+00 0.0000000000000000e+00  0.0000000000000000e+00 0.0000000000000000e+00 0.0000000000000000e+00  0.0000000000000000e+00 0.0000000000000000e+00 0.0000000000000000e+00  0.0000000000000000e+00 0.0000000000000000e+00 0.0000000000000000e+00  0.0000000000000000e+00 0.0000000000000000e+00 0.0000000000000000e+00  0.0000000000000000e+00 0.0000000000000000e+00 0.0000000000000000e+00  0.0000000000000000e+00 0.0000000000000000e+00 0.0000000000000000e+00  0.0000000000000000e+00 0.0000000000000000e+00 0.0000000000000000e+00  0.0000000000000000e+00 0.0000000000000000e+00 0.0000000000000000e+00  0.0000000000000000e+00 0.0000000000000000e+00 0.0000000000000000e+00  0.0000000000000000e+00 0.0000000000000000e+00 0.0000000000000000e+00  0.0000000000000000e+00 0.0000000000000000e+00 0.0000000000000000e+00  0.0000000000000000e+00 0.0000000000000000e+00 0.0000000000000000e+00  0.0000000000000000e+00 0.0000000000000000e+00 0.0000000000000000e+00  0.0000000000000000e+00 0.0000000000000000e+00 0.0000000000000000e+00  0.0000000000000000e+00 0.0000000000000000e+00 0.0000000000000000e+00  0.0000000000000000e+00 0.0000000000000000e+00 0.0000000000000000e+00  0.0000000000000000e+00 0.0000000000000000e+00 0.0000000000000000e+00  0.0000000000000000e+00 0.0000000000000000e+00 0.0000000000000000e+00  0.0000000000000000e+00 0.0000000000000000e+00 0.0000000000000000e+00  0.0000000000000000e+00 0.0000000000000000e+00 0.0000000000000000e+00  0.0000000000000000e+00 0.0000000000000000e+00 0.0000000000000000e+00  0.0000000000000000e+00 0.0000000000000000e+00 0.0000000000000000e+00  0.0000000000000000e+00 0.0000000000000000e+00 0.0000000000000000e+00  0.0000000000000000e+00 0.0000000000000000e+00 0.0000000000000000e+00  0.0000000000000000e+00 0.0000000000000000e+00 0.0000000000000000e+00  0.0000000000000000e+00 0.0000000000000000e+00 0.0000000000000000e+00  0.0000000000000000e+00 0.0000000000000000e+00 0.0000000000000000e+00  4.7042182078981353e-07 -3.0516232177548529e-06 0.0000000000000000e+00  1.0826900847090890e-06 -3.6365169391710816e-06 0.0000000000000000e+00  1.8113923298183680e-06 -4.3143430124963360e-06 0.0000000000000000e+00  2.6421871732088629e-06 -5.1635052770621732e-06 0.0000000000000000e+00  3.4345607283642076e-06 -6.2388485476622412e-06 0.0000000000000000e+00  4.2518466916521067e-06 -7.5878526971108441e-06 0.0000000000000000e+00  4.9854155242090085e-06 -9.1197985383492146e-06 0.0000000000000000e+00  5.6831285284533744e-06 -1.0902562612231663e-05 0.0000000000000000e+00  6.4071799311885203e-06 -1.2879618967003950e-05 0.0000000000000000e+00  7.0208468866931667e-06 -1.5050589498898357e-05 0.0000000000000000e+00  7.6660148150843797e-06 -1.7437850483788266e-05 0.0000000000000000e+00  8.2023558364191499e-06 -1.9996545869992636e-05 0.0000000000000000e+00  8.7488422224685685e-06 -2.2746684847036352e-05 0.0000000000000000e+00  9.2129755078178678e-06 -2.5648757521610753e-05 0.0000000000000000e+00  9.6332613917794871e-06 -2.8731315429265749e-05 0.0000000000000000e+00  1.0059827796478542e-05 -3.1964494125717835e-05 0.0000000000000000e+00  1.0390194644923322e-05 -3.5328033554004157e-05 0.0000000000000000e+00  1.0726766695487607e-05 -3.8857307460198493e-05 0.0000000000000000e+00  1.0973633552124870e-05 -4.2493123137861454e-05 0.0000000000000000e+00  1.1221561761258911e-05 -4.6273645498356815e-05 0.0000000000000000e+00  1.1395033502746569e-05 -5.0152289394466375e-05 0.0000000000000000e+00  1.1548996370262082e-05 -5.4159809250795743e-05 0.0000000000000000e+00  1.1644740508392302e-05 -5.8255458405158102e-05 0.0000000000000000e+00  1.1697633799798832e-05 -6.2457766050394087e-05 0.0000000000000000e+00  1.1739966371889546e-05 -6.6749197200284647e-05 0.0000000000000000e+00  1.1719794945806573e-05 -7.1115563659544372e-05 0.0000000000000000e+00  1.1665341833451364e-05 -7.5587931277085714e-05 0.0000000000000000e+00  1.1566157723508850e-05 -8.0108418802476896e-05 0.0000000000000000e+00  1.1431834451319897e-05 -8.4721951026235415e-05 0.0000000000000000e+00  1.1253641465898657e-05 -8.9377860088361421e-05 0.0000000000000000e+00  1.1041286651110883e-05 -9.4112964985618494e-05 0.0000000000000000e+00  1.0783852087887506e-05 -9.8879528093179456e-05 0.0000000000000000e+00  1.0494532005595000e-05 -1.0371658716161418e-04 0.0000000000000000e+00  1.0159421376285893e-05 -1.0857179120824503e-04 0.0000000000000000e+00  9.7870406862271260e-06 -1.1349295790021990e-04 0.0000000000000000e+00  9.3744992882477027e-06 -1.1842462942509398e-04 0.0000000000000000e+00  8.9265881332449105e-06 -1.2340834633643607e-04 0.0000000000000000e+00  8.4379451452663443e-06 -1.2839622780058305e-04 0.0000000000000000e+00  7.9121673995543842e-06 -1.3342761083483671e-04 0.0000000000000000e+00  7.3442389068979026e-06 -1.3845747611981074e-04 0.0000000000000000e+00  6.7365699722202268e-06 -1.4351662546943045e-04 0.0000000000000000e+00  6.0943279119497403e-06 -1.4857775465539226e-04 0.0000000000000000e+00  5.4081437465470639e-06 -1.5365542065040350e-04 0.0000000000000000e+00  4.6999934604495783e-06 -1.5873583976400957e-04 0.0000000000000000e+00  3.9464788852036689e-06 -1.6380856108480052e-04 0.0000000000000000e+00  3.1803329340271611e-06 -1.6891715376485055e-04 0.0000000000000000e+00  -1.2004780581131075e-06 -1.7339835158167378e-04 0.0000000000000000e+00  -8.0837694267036458e-06 -1.7187405903974632e-04 0.0000000000000000e+00  -1.0594445668121282e-05 -1.6606046907332558e-04 0.0000000000000000e+00  -9.8098928078015309e-06 -1.6088028850879006e-04 0.0000000000000000e+00  -9.0363124898313333e-06 -1.5568485383667845e-04 0.0000000000000000e+00  -8.3012487742740037e-06 -1.5051148501304341e-04 0.0000000000000000e+00  -7.5883701753964732e-06 -1.4534682474123136e-04 0.0000000000000000e+00  -6.9162159137099648e-06 -1.4019533708206636e-04 0.0000000000000000e+00  -6.2650854620222138e-06 -1.3505972157807172e-04 0.0000000000000000e+00  -5.6545036491412104e-06 -1.2993144214719363e-04 0.0000000000000000e+00  -5.0658629703505211e-06 -1.2483897816542626e-04 0.0000000000000000e+00  -4.5149445468122015e-06 -1.1975098152227830e-04 0.0000000000000000e+00  -3.9830123017933483e-06 -1.1470665941281178e-04 0.0000000000000000e+00  -3.4902717663634713e-06 -1.0967520029330146e-04 0.0000000000000000e+00  -3.0127920382180596e-06 -1.0469647362616357e-04 0.0000000000000000e+00  -2.5754079619631331e-06 -9.9739926603006294e-05 0.0000000000000000e+00  -2.1493370465252157e-06 -9.4845039222574967e-05 0.0000000000000000e+00  -1.7662014865986740e-06 -8.9981553938397164e-05 0.0000000000000000e+00  -1.3901372827715341e-06 -8.5187469559978515e-05 0.0000000000000000e+00  -1.0608081495130473e-06 -8.0434234197327272e-05 0.0000000000000000e+00  -7.3495303746174768e-07 -7.5763059220474403e-05 0.0000000000000000e+00  -4.5766205580650081e-07 -7.1144846548101159e-05 0.0000000000000000e+00  -1.7823868420245385e-07 -6.6618885369299147e-05 0.0000000000000000e+00  4.8477461207711903e-08 -6.2157715557659222e-05 0.0000000000000000e+00  2.7463152915037128e-07 -5.7793711301424134e-05 0.0000000000000000e+00  4.5842388173825358e-07 -5.3510697830942046e-05 0.0000000000000000e+00  6.0994834869679982e-07 -4.9340699742294434e-05 0.0000000000000000e+00  7.7181732486090800e-07 -4.5259941093158868e-05 0.0000000000000000e+00  8.8538266812839468e-07 -4.1289643565574669e-05 0.0000000000000000e+00  9.9037237944032091e-07 -3.7451386077903992e-05 0.0000000000000000e+00  1.0583193223862634e-06 -3.3718875931020308e-05 0.0000000000000000e+00  1.1159099892990557e-06 -3.0136664392625897e-05 0.0000000000000000e+00  1.1371744442347577e-06 -2.6669883883511438e-05 0.0000000000000000e+00  1.1614902232406846e-06 -2.3382409692262778e-05 0.0000000000000000e+00  1.1357637688452437e-06 -2.0215894491790105e-05 0.0000000000000000e+00  1.0812082663013742e-06 -1.7245669227802550e-05 0.0000000000000000e+00  1.0526536034466054e-06 -1.4411111989265778e-05 0.0000000000000000e+00  9.7191379696888015e-07 -1.1772819260857663e-05 0.0000000000000000e+00  8.8910059948574877e-07 -9.3322141082769892e-06 0.0000000000000000e+00  7.6766704103009429e-07 -7.0725381032514319e-06 0.0000000000000000e+00  6.6288664650340649e-07 -5.0489771070688921e-06 0.0000000000000000e+00  4.9903164286068618e-07 -3.2030359296075376e-06 0.0000000000000000e+00  3.1112836845744302e-07 -1.6166786558309657e-06 0.0000000000000000e+00  1.7150847324400586e-07 -2.2184833573025075e-07 0.0000000000000000e+00  -2.3964522311890782e-08 9.3861408194021138e-07 0.0000000000000000e+00  -1.4784951825544983e-07 1.8432869354705384e-06 0.0000000000000000e+00  -2.5101100841401602e-07 2.4056147302874488e-06 0.0000000000000000e+00  -1.5930080391662679e-07 2.5518947122554168e-06 0.0000000000000000e+00  -2.3230247633101957e-07 -2.6790268896034046e-07 0.0000000000000000e+00  -3.3207380384105911e-06 -1.6491721918948622e-04 0.0000000000000000e+00  -1.7548919273617186e-06 -1.5511370941186689e-04 0.0000000000000000e+00  2.9917310402940034e-07 -1.3913180789682924e-04 0.0000000000000000e+00  1.0401822165772903e-06 -1.4832849379911085e-06 0.0000000000000000e+00  1.3761172253124865e-06 -1.2913156354526633e-04 0.0000000000000000e+00  1.9717435981173002e-06 -3.5792524503562238e-06 0.0000000000000000e+00  2.4203294188728536e-06 -1.1905001655349814e-04 0.0000000000000000e+00  3.3387629727393120e-06 -8.8554448526303598e-06 0.0000000000000000e+00  4.1104213245177425e-06 -1.3250177410951546e-05 0.0000000000000000e+00  3.3304740316122439e-06 -1.0908078083623712e-04 0.0000000000000000e+00  5.4238306673693089e-06 -2.7669522626512338e-05 0.0000000000000000e+00  4.7545146548684400e-06 -8.9620954001716057e-05 0.0000000000000000e+00  4.6808515391956231e-06 -1.8195791341789234e-05 0.0000000000000000e+00  5.7942829251699626e-06 -3.4405306670401537e-05 0.0000000000000000e+00  5.2707260702393911e-06 -8.0205449967634098e-05 0.0000000000000000e+00  4.1081933842922997e-06 -9.9258663081390458e-05 0.0000000000000000e+00  5.9905263791727021e-06 -4.1781425652552232e-05 0.0000000000000000e+00  5.6566397404312380e-06 -7.1056997607336656e-05 0.0000000000000000e+00  5.9901833950442438e-06 -4.9281839375301691e-05 0.0000000000000000e+00  5.9873087767476530e-06 -6.2427300651973644e-05 0.0000000000000000e+00  6.0150183245380743e-06 -5.5491525299485497e-05 0.0000000000000000e+00  5.1226369539503070e-06 -2.2594341094120028e-05 0.0000000000000000e+00  -8.6169517012375447e-07 -1.4740182533625772e-04 0.0000000000000000e+00  2.6737140173035963e-06 -5.9175260885630239e-06 0.0000000000000000e+00  -4.9218062148909566e-06 -1.5946021222428060e-04 0.0000000000000000e+00  1.6241646990228721e-07 3.8961251078327609e-07 0.0000000000000000e+00  -4.3564957067906958e-08 -1.2355671609341141e-04 0.0000000000000000e+00  -1.1713100964307515e-06 -1.3370514021211435e-04 0.0000000000000000e+00  2.0598725974689187e-06 -3.5726742848594369e-06 0.0000000000000000e+00  4.6060345846927820e-06 -1.1784933451405497e-05 0.0000000000000000e+00  2.5766649443116134e-06 -9.3825693153802128e-05 0.0000000000000000e+00  9.5599316469581154e-07 -1.1350450130078700e-04 0.0000000000000000e+00  6.9736754952401851e-06 -3.1689159533427539e-05 0.0000000000000000e+00  3.2020620557536805e-06 -8.4271772601153796e-05 0.0000000000000000e+00  5.4471294762066918e-06 -1.6596475563357484e-05 0.0000000000000000e+00  7.3352912668677321e-06 -3.8782450976837148e-05 0.0000000000000000e+00  3.7048124294268599e-06 -7.4962420588976452e-05 0.0000000000000000e+00  1.8284731926501146e-06 -1.0358167625620541e-04 0.0000000000000000e+00  7.8961898910610463e-06 -4.6499900811752797e-05 0.0000000000000000e+00  4.0863783403585856e-06 -6.5942943353206545e-05 0.0000000000000000e+00  -3.9005666095299967e-07 -7.2732181711733688e-07 0.0000000000000000e+00  -4.8928955653285714e-07 5.6846979125091418e-07 0.0000000000000000e+00  -2.4004920140339759e-06 -1.6929372939068177e-04 0.0000000000000000e+00  8.0357150751305093e-07 -2.0366819840181047e-