<?xml version="1.0"?>
<VTKFile type="UnstructuredGrid"  version="0.1"  >
<UnstructuredGrid>
<Piece  NumberOfPoints="1419" NumberOfCells="2698">
<Points>
<DataArray  type="Float64"  NumberOfComponents="3"  format="ascii">0 0 0  0 0.41 0  2.5 0 0  2.5 0.41 0  0.6 0.19 0  0.6 0.21 0  0.25 0.2 0  0.15 0.2 0  0.2489897948556636 0.21 0  0.2489897948556636 0.19 0  0.6 0.2 0  0 0.3807142857143437 0  0 0.3514285714286952 0  0 0.3221428571430699 0  0 0.29285714285744 0  0 0.2635714285718054 0  0 0.2342857142861561 0  0 0.2050000000005308 0  0 0.175714285714732 0  0 0.1464285714289574 0  0 0.1171428571431897 0  0 0.08785714285737878 0  0 0.05857142857161107 0  0 0.02928571428580012 0  0.03015443760436003 0 0  0.06140001986583606 0 0  0.09377624077125973 0 0  0.1273239957535082 0 0  0.1620856860351972 0 0  0.1981052433264291 0 0  0.235428184091502 0 0  0.2741016576309132 0 0  0.3141745521465447 0 0  0.3556974926295285 0 0  0.3987229542472677 0 0  0.4433053055141081 0 0  0.4895008759286886 0 0  0.5373680609405097 0 0  0.5869673343216626 0 0  0.6383613676634521 0 0  0.6916151138468254 0 0  0.7467958595648856 0 0  0.8039733463919316 0 0  0.8632198139502143 0 0  0.9246101326867038 0 0  0.9882218810934433 0 0  1.054135445558498 0 0  1.122434100542598 0 0  1.193204177141305 0 0  1.266535089879536 0 0  1.342519516046404 0 0  1.421253448503939 0 0  1.502836389106271 0 0  1.587371439758838 0 0  1.674965418777374 0 0  1.765729001825544 0 0  1.859776908880082 0 0  1.957227977487062 0 0  2.058205329869943 0 0  2.162836591189951 0 0  2.271253957290865 0 0  2.383594446803425 0 0  2.5 0.1024999999997612 0  2.5 0.2049999999994743 0  2.5 0.3074999999997183 0  2.383594446803656 0.41 0  2.271253957291315 0.41 0  2.162836591190598 0.41 0  2.058205329870775 0.41 0  1.957227977488067 0.41 0  1.859776908881246 0.41 0  1.765729001826854 0.41 0  1.674965418778818 0.41 0  1.58737143976041 0.41 0  1.502836389107956 0.41 0  1.421253448505726 0.41 0  1.342519516048286 0.41 0  1.266535089881505 0.41 0  1.193204177143353 0.41 0  1.122434100544716 0.41 0  1.05413544556068 0.41 0  0.9882218810956305 0.41 0  0.9246101326886647 0.41 0  0.8632198139519631 0.41 0  0.8039733463934788 0.41 0  0.7467958595662458 0.41 0  0.6916151138480078 0.41 0  0.6383613676644679 0.41 0  0.5869673343225223 0.41 0  0.5373680609412221 0.41 0  0.4895008759292634 0.41 0  0.4433053055145528 0.41 0  0.3987229542475914 0.41 0  0.3556974926297398 0.41 0  0.3141745521466497 0.41 0  0.2741016576310038 0.41 0  0.2354281840915826 0.41 0  0.1981052433265003 0.41 0  0.1620856860352591 0.41 0  0.1273239957535623 0.41 0  0.09377624077128965 0.41 0  0.06140001986584975 0.41 0  0.03015443760436654 0.41 0  0.2497468076502589 0.2050254481002335 0  0.2497468076502614 0.1949745518997913 0  0.2469965252529372 0.1829317073451959 0  0.2439893735792749 0.1762316384219906 0  0.2400332147834255 0.1700443375285386 0  0.2352133972704371 0.1645032867342007 0  0.2296339016332438 0.1597280261969788 0  0.2234150974217223 0.1558215752574715 0  0.2166911463437691 0.1528682099456123 0  0.2096071079204251 0.1509316448471593 0  0.2023158100364996 0.1500536585536553 0  0.194974551899914 0.1502531923497262 0  0.1877417105387872 0.1515259415822739 0  0.1807733240461124 0.153844448527136 0  0.1742197252835808 0.15715869474974 0  0.1682222986673531 0.1613971801805478 0  0.162910430003803 0.1664684656256651 0  0.1583987151779087 0.1722631454351573 0  0.1547844879126891 0.178656207771761 0  0.1521457199348551 0.1855097315605723 0  0.1505393388476355 0.1926758619366523 0  0.1505393388476328 0.2073241380633295 0  0.1521457199348437 0.2144902684393899 0  0.1547844879126531 0.221343792228163 0  0.1583987151778488 0.2277368545647528 0  0.1629104300036858 0.2335315343742052 0  0.1682222986671726 0.2386028198193036 0  0.1742197252833576 0.2428413052501257 0  0.1807733240458683 0.2461555514727623 0  0.1877417105384929 0.2484740584176516 0  0.1949745518995776 0.2497468076502398 0  0.202315810036185 0.2499463414463592 0  0.2096071079201568 0.2490683551528932 0  0.2166911463435495 0.2471317900544655 0  0.2234150974215506 0.2441784247426195 0  0.2296339016331197 0.2402719738031125 0  0.2352133972703547 0.2354967132658811 0  0.2400332147833751 0.2299556624715287 0  0.2439893735792577 0.2237683615780412 0  0.246996525252926 0.2170682926548348 0  0.25645809709277 0.21 0  0.2639263993298655 0.21 0  0.271394701566961 0.21 0  0.2788630038040554 0.21 0  0.2863313060411479 0.21 0  0.2937996082782405 0.21 0  0.301267910515333 0.21 0  0.3087362127524279 0.21 0  0.3162045149895234 0.21 0  0.3236728172265972 0.21 0  0.3311411194636928 0.21 0  0.3386094217007701 0.21 0  0.3460777239378666 0.21 0  0.3535460261749672 0.21 0  0.3610143284120516 0.21 0  0.3684826306491596 0.21 0  0.3759509328862226 0.21 0  0.383419235123329 0.21 0  0.3908875373604028 0.21 0  0.3983558395975142 0.21 0  0.4058241418345938 0.21 0  0.4132924440716992 0.21 0  0.4207607463087888 0.21 0  0.4282290485459029 0.21 0  0.4356973507830418 0.21 0  0.4431656530201649 0.21 0  0.4506339552573136 0.21 0  0.4581022574944306 0.21 0  0.4655705597315852 0.21 0  0.4730388619686996 0.21 0  0.480507164205851 0.21 0  0.4879754664429498 0.21 0  0.4954437686800938 0.21 0  0.502912070917267 0.21 0  0.5103803731544119 0.21 0  0.5178486753915261 0.21 0  0.5253169776286404 0.21 0  0.5327852798657868 0.21 0  0.5402535821029386 0.21 0  0.54772188434007 0.21 0  0.5551901865771842 0.21 0  0.5626584888143201 0.21 0  0.5701267910514778 0.21 0  0.5775950932886138 0.21 0  0.5850633955257281 0.21 0  0.5925316977628483 0.21 0  0.6 0.2050000000000054 0  0.6 0.1950000000000217 0  0.5925316977628897 0.19 0  0.5850633955257988 0.19 0  0.5775950932887378 0.19 0  0.5701267910515998 0.19 0  0.5626584888145268 0.19 0  0.5551901865773963 0.19 0  0.547721884340339 0.19 0  0.5402535821032429 0.19 0  0.5327852798661811 0.19 0  0.5253169776290537 0.19 0  0.5178486753919799 0.19 0  0.5103803731549078 0.19 0  0.502912070917822 0.19 0  0.4954437686807294 0.19 0  0.4879754664436223 0.19 0  0.4805071642065402 0.19 0  0.4730388619694271 0.19 0  0.4655705597323621 0.19 0  0.4581022574952563 0.19 0  0.4506339552581777 0.19 0  0.4431656530210671 0.19 0  0.4356973507839815 0.19 0  0.4282290485468779 0.19 0  0.4207607463097617 0.19 0  0.4132924440726327 0.19 0  0.4058241418354857 0.19 0  0.3983558395983636 0.19 0  0.3908875373612097 0.19 0  0.3834192351240934 0.19 0  0.3759509328869369 0.19 0  0.3684826306498175 0.19 0  0.361014328412667 0.19 0  0.3535460261755617 0.19 0  0.3460777239384295 0.19 0  0.3386094217012945 0.19 0  0.3311411194641595 0.19 0  0.3236728172270245 0.19 0  0.3162045149898895 0.19 0  0.3087362127527544 0.19 0  0.3012679105156187 0.19 0  0.2937996082784807 0.19 0  0.2863313060413428 0.19 0  0.2788630038042048 0.19 0  0.2713947015670686 0.19 0  0.2639263993299336 0.19 0  0.2564580970927985 0.19 0  0.2607803159922026 0.2000727136295815 0  0.5887803774232762 0.2001272386983733 0  0.5745072403740523 0.2002044435018727 0  0.5511891430099709 0.2001122610077113 0  0.2751288526855082 0.20000000000002 0  0.5365194309847112 0.1999999999999436 0  0.2894621222999649 0.1998691686390484 0  0.5215828265105155 0.1999999999999228 0  0.3127789816668748 0.1998657885438805 0  0.3274069683451451 0.2000000000000796 0  0.5066462220363641 0.199999999999908 0  0.3650630746574081 0.199866017807523 0  0.476773013087985 0.1999999999998713 0  0.3417402379596385 0.1998691686391011 0  0.3796850840047755 0.200000000000134 0  0.4618364086138087 0.1999999999998546 0  0.4917096175621762 0.1999999999998808 0  0.3946216884789568 0.2000000000001512 0  0.446899804139621 0.1999999999998389 0  0.4089549580935208 0.1998691686391595 0  0.4322718174608562 0.200127451265745 0  0.4201487168029707 0.1999966199048527 0  0.3528922713220932 0.2000185703532356 0  0.5633122436674589 0.1999814296467508 0  0.3006558810093873 0.1999966199048318 0  0.5815926498168407 0.1966545283159175 0  0.2677053789419034 0.1964246479135325 0  0.5290511287476175 0.1970915826863981 0  0.5439877332217911 0.197091582686394 0  0.2825131256993216 0.2035478995978015 0  0.3199386661080599 0.202908417313604 0  0.4842413153250809 0.1970915826863873 0  0.5141145242734466 0.1970915826863843 0  0.3722167817676917 0.2029084173136195 0  0.4693047108508938 0.1970915826863783 0  0.3348752705822316 0.202908417313609 0  0.3871533862418661 0.2029084173136212 0  0.4543681063767183 0.1970915826863795 0  0.4991779197992749 0.1970915826863902 0  0.4020059614928624 0.203547899597858 0  0.4394315019025246 0.1970915826863714 0  0.2550657455369551 0.2034088125358657 0  0.2548908499171161 0.1966940311614271 0  0.5946539510196798 0.2024302972968126 0  0.267698176732111 0.2039977513680092 0  0.4261685417851465 0.196409292431739 0  0.3590076176283495 0.196411355804271 0  0.5571672426447437 0.2036011176410121 0  0.3066757059912147 0.1964092924317024 0  0.594380730180568 0.1966558399668133 0  0.4842413153245942 0.2040749161535287 0  0.4693047108503577 0.2040749161535231 0  0.3871533862424271 0.1959250838464788 0  0.372246743208829 0.1959123236376545 0  0.5141145242731028 0.2040749161535395 0  0.4543681063761134 0.2040749161535186 0  0.4019979587101454 0.1959834479682427 0  0.4394608940728603 0.2040870543693135 0  0.5439623148931173 0.2040856076781014 0  0.5290511287473298 0.2040749161535501 0  0.4991779197988497 0.2040749161535382 0  0.3347912413592433 0.1959225448935183 0  0.3199680582793816 0.1959123018030061 0  0.2825051229162361 0.1959834479681729 0  0.3590471196690275 0.2036304442587945 0  0.5571594006495384 0.1963685282145804 0  0.3067669986803285 0.203627750582736 0  0.4262598344738712 0.2036568242185335 0  0.5814408164431408 0.2041285596160068 0  0.5688286748170428 0.1961819304477386 0  0.4145905603063645 0.2038180695522843 0  0.3473758401724931 0.2038180695522752 0  0.2950977245128307 0.2038180695522663 0  0.5688286748170693 0.203818069552238 0  0.2950977245127906 0.1961819304477774 0  0.3473758401723931 0.1961819304478349 0  0.4145905603061963 0.1961819304479011 0  0.2601812407614425 0.2056861609747042
[...]
<PointData  Vectors="f_40-1"> 
<DataArray  type="Float64"  Name="f_40-1"  NumberOfComponents="3" format="ascii">0.0000000000000000e+00 0.0000000000000000e+00 0.0000000000000000e+00  0.0000000000000000e+00 0.0000000000000000e+00 0.0000000000000000e+00  0.0000000000000000e+00 0.0000000000000000e+00 0.0000000000000000e+00  0.0000000000000000e+00 0.0000000000000000e+00 0.0000000000000000e+00  -1.1386778173685723e-05 -1.8079838984423120e-04 0.0000000000000000e+00  3.1880534582071224e-06 -1.8392616306529694e-04 0.0000000000000000e+00  0.0000000000000000e+00 0.0000000000000000e+00 0.0000000000000000e+00  0.0000000000000000e+00 0.0000000000000000e+00 0.0000000000000000e+00  0.0000000000000000e+00 0.0000000000000000e+00 0.0000000000000000e+00  0.0000000000000000e+00 0.0000000000000000e+00 0.0000000000000000e+00  -4.3657824664295257e-06 -1.8236164838989811e-04 0.0000000000000000e+00  0.0000000000000000e+00 0.0000000000000000e+00 0.0000000000000000e+00  0.0000000000000000e+00 0.0000000000000000e+00 0.0000000000000000e+00  0.0000000000000000e+00 0.0000000000000000e+00 0.0000000000000000e+00  0.0000000000000000e+00 0.0000000000000000e+00 0.0000000000000000e+00  0.0000000000000000e+00 0.0000000000000000e+00 0.0000000000000000e+00  0.0000000000000000e+00 0.0000000000000000e+00 0.0000000000000000e+00  0.0000000000000000e+00 0.0000000000000000e+00 0.0000000000000000e+00  0.0000000000000000e+00 0.0000000000000000e+00 0.0000000000000000e+00  0.0000000000000000e+00 0.0000000000000000e+00 0.0000000000000000e+00  0.0000000000000000e+00 0.0000000000000000e+00 0.0000000000000000e+00  0.0000000000000000e+00 0.0000000000000000e+00 0.0000000000000000e+00  0.0000000000000000e+00 0.0000000000000000e+00 0.0000000000000000e+00  0.0000000000000000e+00 0.0000000000000000e+00 0.0000000000000000e+00  0.0000000000000000e+00 0.0000000000000000e+00 0.0000000000000000e+00  0.0000000000000000e+00 0.0000000000000000e+00 0.0000000000000000e+00  0.0000000000000000e+00 0.0000000000000000e+00 0.0000000000000000e+00  0.0000000000000000e+00 0.0000000000000000e+00 0.0000000000000000e+00  0.0000000000000000e+00 0.0000000000000000e+00 0.0000000000000000e+00  0.0000000000000000e+00 0.0000000000000000e+00 0.0000000000000000e+00  0.0000000000000000e+00 0.0000000000000000e+00 0.0000000000000000e+00  0.0000000000000000e+00 0.0000000000000000e+00 0.0000000000000000e+00  0.0000000000000000e+00 0.0000000000000000e+00 0.0000000000000000e+00  0.0000000000000000e+00 0.0000000000000000e+00 0.0000000000000000e+00  0.0000000000000000e+00 0.0000000000000000e+00 0.0000000000000000e+00  0.0000000000000000e+00 0.0000000000000000e+00 0.0000000000000000e+00  0.0000000000000000e+00 0.0000000000000000e+00 0.0000000000000000e+00  0.0000000000000000e+00 0.0000000000000000e+00 0.0000000000000000e+00  0.0000000000000000e+00 0.0000000000000000e+00 0.0000000000000000e+00  0.0000000000000000e+00 0.0000000000000000e+00 0.0000000000000000e+00  0.0000000000000000e+00 0.0000000000000000e+00 0.0000000000000000e+00  0.0000000000000000e+00 0.0000000000000000e+00 0.0000000000000000e+00  0.0000000000000000e+00 0.0000000000000000e+00 0.0000000000000000e+00  0.0000000000000000e+00 0.0000000000000000e+00 0.0000000000000000e+00  0.0000000000000000e+00 0.0000000000000000e+00 0.0000000000000000e+00  0.0000000000000000e+00 0.0000000000000000e+00 0.0000000000000000e+00  0.0000000000000000e+00 0.0000000000000000e+00 0.0000000000000000e+00  0.0000000000000000e+00 0.0000000000000000e+00 0.0000000000000000e+00  0.0000000000000000e+00 0.0000000000000000e+00 0.0000000000000000e+00  0.0000000000000000e+00 0.0000000000000000e+00 0.0000000000000000e+00  0.0000000000000000e+00 0.0000000000000000e+00 0.0000000000000000e+00  0.0000000000000000e+00 0.0000000000000000e+00 0.0000000000000000e+00  0.0000000000000000e+00 0.0000000000000000e+00 0.0000000000000000e+00  0.0000000000000000e+00 0.0000000000000000e+00 0.0000000000000000e+00  0.0000000000000000e+00 0.0000000000000000e+00 0.0000000000000000e+00  0.0000000000000000e+00 0.0000000000000000e+00 0.0000000000000000e+00  0.0000000000000000e+00 0.0000000000000000e+00 0.0000000000000000e+00  0.0000000000000000e+00 0.0000000000000000e+00 0.0000000000000000e+00  0.0000000000000000e+00 0.0000000000000000e+00 0.0000000000000000e+00  0.0000000000000000e+00 0.0000000000000000e+00 0.0000000000000000e+00  0.0000000000000000e+00 0.0000000000000000e+00 0.0000000000000000e+00  0.0000000000000000e+00 0.0000000000000000e+00 0.0000000000000000e+00  0.0000000000000000e+00 0.0000000000000000e+00 0.0000000000000000e+00  0.0000000000000000e+00 0.0000000000000000e+00 0.0000000000000000e+00  0.0000000000000000e+00 0.0000000000000000e+00 0.0000000000000000e+00  0.0000000000000000e+00 0.0000000000000000e+00 0.0000000000000000e+00  0.0000000000000000e+00 0.0000000000000000e+00 0.0000000000000000e+00  0.0000000000000000e+00 0.0000000000000000e+00 0.0000000000000000e+00  0.0000000000000000e+00 0.0000000000000000e+00 0.0000000000000000e+00  0.0000000000000000e+00 0.0000000000000000e+00 0.0000000000000000e+00  0.0000000000000000e+00 0.0000000000000000e+00 0.0000000000000000e+00  0.0000000000000000e+00 0.0000000000000000e+00 0.0000000000000000e+00  0.0000000000000000e+00 0.0000000000000000e+00 0.0000000000000000e+00  0.0000000000000000e+00 0.0000000000000000e+00 0.0000000000000000e+00  0.0000000000000000e+00 0.0000000000000000e+00 0.0000000000000000e+00  0.0000000000000000e+00 0.0000000000000000e+00 0.0000000000000000e+00  0.0000000000000000e+00 0.0000000000000000e+00 0.0000000000000000e+00  0.0000000000000000e+00 0.0000000000000000e+00 0.0000000000000000e+00  0.0000000000000000e+00 0.0000000000000000e+00 0.0000000000000000e+00  0.0000000000000000e+00 0.0000000000000000e+00 0.0000000000000000e+00  0.0000000000000000e+00 0.0000000000000000e+00 0.0000000000000000e+00  0.0000000000000000e+00 0.0000000000000000e+00 0.0000000000000000e+00  0.0000000000000000e+00 0.0000000000000000e+00 0.0000000000000000e+00  0.0000000000000000e+00 0.0000000000000000e+00 0.0000000000000000e+00  0.0000000000000000e+00 0.0000000000000000e+00 0.0000000000000000e+00  0.0000000000000000e+00 0.0000000000000000e+00 0.0000000000000000e+00  0.0000000000000000e+00 0.0000000000000000e+00 0.0000000000000000e+00  0.0000000000000000e+00 0.0000000000000000e+00 0.0000000000000000e+00  0.0000000000000000e+00 0.0000000000000000e+00 0.0000000000000000e+00  0.0000000000000000e+00 0.0000000000000000e+00 0.0000000000000000e+00  0.0000000000000000e+00 0.0000000000000000e+00 0.0000000000000000e+00  0.0000000000000000e+00 0.0000000000000000e+00 0.0000000000000000e+00  0.0000000000000000e+00 0.0000000000000000e+00 0.0000000000000000e+00  0.0000000000000000e+00 0.0000000000000000e+00 0.0000000000000000e+00  0.0000000000000000e+00 0.0000000000000000e+00 0.0000000000000000e+00  0.0000000000000000e+00 0.0000000000000000e+00 0.0000000000000000e+00  0.0000000000000000e+00 0.0000000000000000e+00 0.0000000000000000e+00  0.0000000000000000e+00 0.0000000000000000e+00 0.0000000000000000e+00  0.0000000000000000e+00 0.0000000000000000e+00 0.0000000000000000e+00  0.0000000000000000e+00 0.0000000000000000e+00 0.0000000000000000e+00  0.0000000000000000e+00 0.0000000000000000e+00 0.0000000000000000e+00  0.0000000000000000e+00 0.0000000000000000e+00 0.0000000000000000e+00  0.0000000000000000e+00 0.0000000000000000e+00 0.0000000000000000e+00  0.0000000000000000e+00 0.0000000000000000e+00 0.0000000000000000e+00  0.0000000000000000e+00 0.0000000000000000e+00 0.0000000000000000e+00  0.0000000000000000e+00 0.0000000000000000e+00 0.0000000000000000e+00  0.0000000000000000e+00 0.0000000000000000e+00 0.0000000000000000e+00  0.0000000000000000e+00 0.0000000000000000e+00 0.0000000000000000e+00  0.0000000000000000e+00 0.0000000000000000e+00 0.0000000000000000e+00  0.0000000000000000e+00 0.0000000000000000e+00 0.0000000000000000e+00  0.0000000000000000e+00 0.0000000000000000e+00 0.0000000000000000e+00  0.0000000000000000e+00 0.0000000000000000e+00 0.0000000000000000e+00  0.0000000000000000e+00 0.0000000000000000e+00 0.0000000000000000e+00  0.0000000000000000e+00 0.0000000000000000e+00 0.0000000000000000e+00  0.0000000000000000e+00 0.0000000000000000e+00 0.0000000000000000e+00  0.0000000000000000e+00 0.0000000000000000e+00 0.0000000000000000e+00  0.0000000000000000e+00 0.0000000000000000e+00 0.0000000000000000e+00  0.0000000000000000e+00 0.0000000000000000e+00 0.0000000000000000e+00  0.0000000000000000e+00 0.0000000000000000e+00 0.0000000000000000e+00  0.0000000000000000e+00 0.0000000000000000e+00 0.0000000000000000e+00  0.0000000000000000e+00 0.0000000000000000e+00 0.0000000000000000e+00  0.0000000000000000e+00 0.0000000000000000e+00 0.0000000000000000e+00  0.0000000000000000e+00 0.0000000000000000e+00 0.0000000000000000e+00  0.0000000000000000e+00 0.0000000000000000e+00 0.0000000000000000e+00  0.0000000000000000e+00 0.0000000000000000e+00 0.0000000000000000e+00  0.0000000000000000e+00 0.0000000000000000e+00 0.0000000000000000e+00  0.0000000000000000e+00 0.0000000000000000e+00 0.0000000000000000e+00  0.0000000000000000e+00 0.0000000000000000e+00 0.0000000000000000e+00  0.0000000000000000e+00 0.0000000000000000e+00 0.0000000000000000e+00  0.0000000000000000e+00 0.0000000000000000e+00 0.0000000000000000e+00  0.0000000000000000e+00 0.0000000000000000e+00 0.0000000000000000e+00  0.0000000000000000e+00 0.0000000000000000e+00 0.0000000000000000e+00  0.0000000000000000e+00 0.0000000000000000e+00 0.0000000000000000e+00  0.0000000000000000e+00 0.0000000000000000e+00 0.0000000000000000e+00  0.0000000000000000e+00 0.0000000000000000e+00 0.0000000000000000e+00  0.0000000000000000e+00 0.0000000000000000e+00 0.0000000000000000e+00  0.0000000000000000e+00 0.0000000000000000e+00 0.0000000000000000e+00  0.0000000000000000e+00 0.0000000000000000e+00 0.0000000000000000e+00  0.0000000000000000e+00 0.0000000000000000e+00 0.0000000000000000e+00  0.0000000000000000e+00 0.0000000000000000e+00 0.0000000000000000e+00  0.0000000000000000e+00 0.0000000000000000e+00 0.0000000000000000e+00  0.0000000000000000e+00 0.0000000000000000e+00 0.0000000000000000e+00  0.0000000000000000e+00 0.0000000000000000e+00 0.0000000000000000e+00  4.9810324082079202e-07 -3.1133203523137072e-06 0.0000000000000000e+00  1.1428150617476808e-06 -3.7224839911107983e-06 0.0000000000000000e+00  1.9053720154907603e-06 -4.4362487034697562e-06 0.0000000000000000e+00  2.7737825149938533e-06 -5.3342743767417935e-06 0.0000000000000000e+00  3.6016529188227187e-06 -6.4715479808099488e-06 0.0000000000000000e+00  4.4575634769208726e-06 -7.8966584200002910e-06 0.0000000000000000e+00  5.2261617151129351e-06 -9.5150937123825157e-06 0.0000000000000000e+00  5.9586155997034104e-06 -1.1398356081116001e-05 0.0000000000000000e+00  6.7199915155976993e-06 -1.3486690716277320e-05 0.0000000000000000e+00  7.3661467658010507e-06 -1.5780178512402409e-05 0.0000000000000000e+00  8.0468535636807877e-06 -1.8301592671707026e-05 0.0000000000000000e+00  8.6136770341576122e-06 -2.1004749140849138e-05 0.0000000000000000e+00  9.1925418231354214e-06 -2.3909949288300817e-05 0.0000000000000000e+00  9.6851367910346504e-06 -2.6975667542867803e-05 0.0000000000000000e+00  1.0132652917309966e-05 -3.0232431741163387e-05 0.0000000000000000e+00  1.0587579151038261e-05 -3.3648148151426267e-05 0.0000000000000000e+00  1.0941951296015291e-05 -3.7202283496792516e-05 0.0000000000000000e+00  1.1303911474579311e-05 -4.0931006602521398e-05 0.0000000000000000e+00  1.1572010357869775e-05 -4.4773155975618041e-05 0.0000000000000000e+00  1.1842183384645273e-05 -4.8767648748270988e-05 0.0000000000000000e+00  1.2034661174162571e-05 -5.2866618252370399e-05 0.0000000000000000e+00  1.2207685013345899e-05 -5.7101531603676357e-05 0.0000000000000000e+00  1.2319852307657861e-05 -6.1429600019353889e-05 0.0000000000000000e+00  1.2387910113162463e-05 -6.5870718861552849e-05 0.0000000000000000e+00  1.2445562316149068e-05 -7.0405665869949498e-05 0.0000000000000000e+00  1.2438286843469413e-05 -7.5020495579889229e-05 0.0000000000000000e+00  1.2395884243719181e-05 -7.9746602484020510e-05 0.0000000000000000e+00  1.2307119287299176e-05 -8.4524340503528618e-05 0.0000000000000000e+00  1.2182301279922852e-05 -8.9399807458042312e-05 0.0000000000000000e+00  1.2012054626517464e-05 -9.4320616287200680e-05 0.0000000000000000e+00  1.1806711832474650e-05 -9.9324608745178993e-05 0.0000000000000000e+00  1.1554778819537778e-05 -1.0436238880979769e-04 0.0000000000000000e+00  1.1270055159329560e-05 -1.0947403206480965e-04 0.0000000000000000e+00  1.0938039311097479e-05 -1.1460554187507162e-04 0.0000000000000000e+00  1.0567737578668322e-05 -1.1980596438705339e-04 0.0000000000000000e+00  1.0155951367152518e-05 -1.2501808037724855e-04 0.0000000000000000e+00  9.7077919258125501e-06 -1.3028453449473457e-04 0.0000000000000000e+00  9.2176092454421512e-06 -1.3555590451071834e-04 0.0000000000000000e+00  8.6892507085663316e-06 -1.4087260936475736e-04 0.0000000000000000e+00  8.1174639047044359e-06 -1.4618817722577201e-04 0.0000000000000000e+00  7.5048307785109550e-06 -1.5153427192091004e-04 0.0000000000000000e+00  6.8565279204777969e-06 -1.5688260958439954e-04 0.0000000000000000e+00  6.1630569985582239e-06 -1.6224819586903229e-04 0.0000000000000000e+00  5.4469888430573636e-06 -1.6761673674058484e-04 0.0000000000000000e+00  4.6841855924643725e-06 -1.7297739445920087e-04 0.0000000000000000e+00  3.9081185441144378e-06 -1.7837470059043606e-04 0.0000000000000000e+00  -6.8124147769096283e-07 -1.8313585953639474e-04 0.0000000000000000e+00  -7.9526037020647497e-06 -1.8158861776972104e-04 0.0000000000000000e+00  -1.0642847924555121e-05 -1.7547492761713551e-04 0.0000000000000000e+00  -9.8477431624381306e-06 -1.7000378925850291e-04 0.0000000000000000e+00  -9.0640987969124676e-06 -1.6451714916983673e-04 0.0000000000000000e+00  -8.3199382952926942e-06 -1.5905334092580480e-04 0.0000000000000000e+00  -7.5985419104948527e-06 -1.5359859969078462e-04 0.0000000000000000e+00  -6.9188217681118023e-06 -1.4815764825422769e-04 0.0000000000000000e+00  -6.2604895602588768e-06 -1.4273328009694252e-04 0.0000000000000000e+00  -5.6437674887280205e-06 -1.3731684570102910e-04 0.0000000000000000e+00  -5.0492266714917642e-06 -1.3193768735297477e-04 0.0000000000000000e+00  -4.4934533289700742e-06 -1.2656374273096470e-04 0.0000000000000000e+00  -3.9567015327091290e-06 -1.2123531900351702e-04 0.0000000000000000e+00  -3.4602918823297285e-06 -1.1592096011595690e-04 0.0000000000000000e+00  -2.9789819744599751e-06 -1.1066171989436336e-04 0.0000000000000000e+00  -2.5389885240961480e-06 -1.0542642286812267e-04 0.0000000000000000e+00  -2.1099117555384663e-06 -1.0025566577271239e-04 0.0000000000000000e+00  -1.7251712651396851e-06 -9.5118623912156998e-05 0.0000000000000000e+00  -1.3468512314681894e-06 -9.0054374255187742e-05 0.0000000000000000e+00  -1.0168753910825414e-06 -8.5033847341596544e-05 0.0000000000000000e+00  -6.8952735650522630e-07 -8.0099473340386967e-05 0.0000000000000000e+00  -4.1249892632107773e-07 -7.5221640261631599e-05 0.0000000000000000e+00  -1.3217470464322741e-07 -7.0440776601521301e-05 0.0000000000000000e+00  9.3446689194837099e-08 -6.5728950178741398e-05 0.0000000000000000e+00  3.1965352251542129e-07 -6.1119549555813774e-05 0.0000000000000000e+00  5.0186961109174404e-07 -5.6595848673862600e-05 0.0000000000000000e+00  6.5121949907954710e-07 -5.2191706219672425e-05 0.0000000000000000e+00  8.1219457854366625e-07 -4.7881736058879718e-05 0.0000000000000000e+00  9.2330464776700796e-07 -4.3689014244870164e-05 0.0000000000000000e+00  1.0263422016304774e-06 -3.9635259223639234e-05 0.0000000000000000e+00  1.0912413721439390e-06 -3.5694118589834649e-05 0.0000000000000000e+00  1.1462164189440718e-06 -3.1911209936378536e-05 0.0000000000000000e+00  1.1637892747734387e-06 -2.8251141108240961e-05 0.0000000000000000e+00  1.1857385282061771e-06 -2.4780190000923516e-05 0.0000000000000000e+00  1.1554602127630063e-06 -2.1437488201960471e-05 0.0000000000000000e+00  1.0959079583880186e-06 -1.8302207013843793e-05 0.0000000000000000e+00  1.0645364253546064e-06 -1.5310473524274022e-05 0.0000000000000000e+00  9.7927553773735359e-07 -1.2526484627770997e-05 0.0000000000000000e+00  8.9288558534114736e-07 -9.9509745618108236e-06 0.0000000000000000e+00  7.6688656788957750e-07 -7.5673429605002733e-06 0.0000000000000000e+00  6.5977916040061897e-07 -5.4329355829197404e-06 0.0000000000000000e+00  4.9121487953473913e-07 -3.4863657618265546e-06 0.0000000000000000e+00  2.9883374316858529e-07 -1.8140536563253876e-06 0.0000000000000000e+00  1.5835212031828256e-07 -3.4385283898158220e-07 0.0000000000000000e+00  -3.9460193914972814e-08 8.7787106148226715e-07 0.0000000000000000e+00  -1.6190957394614968e-07 1.8302725781712270e-06 0.0000000000000000e+00  -2.6424662377876911e-07 2.4248529702485598e-06 0.0000000000000000e+00  -1.6579781482183075e-07 2.5871819178447518e-06 0.0000000000000000e+00  -2.2337855546244402e-07 -2.8152251739981281e-07 0.0000000000000000e+00  -2.9732982144291175e-06 -1.7420773398011351e-04 0.0000000000000000e+00  -1.3847221681015902e-06 -1.6385085735130513e-04 0.0000000000000000e+00  6.8872020266236238e-07 -1.4696726568493373e-04 0.0000000000000000e+00  1.0887085414933181e-06 -1.5642700544388353e-06 0.0000000000000000e+00  1.7711136341505326e-06 -1.3640286596725435e-04 0.0000000000000000e+00  2.0556613672423359e-06 -3.7772328495127519e-06 0.0000000000000000e+00  2.8219303115084324e-06 -1.2575154932276375e-04 0.0000000000000000e+00  3.4829974733212042e-06 -9.3454185794969857e-06 0.0000000000000000e+00  4.2940289849928852e-06 -1.3983193429045076e-05 0.0000000000000000e+00  3.7352444286061207e-06 -1.1521863211381624e-04 0.0000000000000000e+00  5.6898282762462018e-06 -2.9210622961529147e-05 0.0000000000000000e+00  5.1555576083156026e-06 -9.4658056206152431e-05 0.0000000000000000e+00  4.8966001834919256e-06 -1.9206193522659729e-05 0.0000000000000000e+00  6.0914015190066474e-06 -3.6323682306568359e-05 0.0000000000000000e+00  5.6649336344768308e-06 -8.4709948703602214e-05 0.0000000000000000e+00  4.5127648402721921e-06 -1.0484098024196627e-04 0.0000000000000000e+00  6.3128777838591884e-06 -4.4115251129722683e-05 0.0000000000000000e+00  6.0406767879424574e-06 -7.5044126844447443e-05 0.0000000000000000e+00  6.3296744112231298e-06 -5.2039959563997204e-05 0.0000000000000000e+00  6.3624904605643876e-06 -6.5925523157573851e-05 0.0000000000000000e+00  6.3722805034803169e-06 -5.8599045939579925e-05 0.0000000000000000e+00  5.3664102589558764e-06 -2.3849369958055637e-05 0.0000000000000000e+00  -4.8838319421985839e-07 -1.5570510714632517e-04 0.0000000000000000e+00  2.7880042813092225e-06 -6.2432888837053697e-06 0.0000000000000000e+00  -4.6983909495304271e-06 -1.6846391196451174e-04 0.0000000000000000e+00  1.7510963997221925e-07 3.6854013242587556e-07 0.0000000000000000e+00  2.4448988329217844e-07 -1.3053357684889364e-04 0.0000000000000000e+00  -8.9245741615497181e-07 -1.4125465791299806e-04 0.0000000000000000e+00  2.1558605445357280e-06 -3.7291861161099163e-06 0.0000000000000000e+00  4.8185514762697788e-06 -1.2405966499375372e-05 0.0000000000000000e+00  2.8740779772938647e-06 -9.9123577052212525e-05 0.0000000000000000e+00  1.2501621341431430e-06 -1.1991388099934540e-04 0.0000000000000000e+00  7.3313909658779674e-06 -3.3426634518471153e-05 0.0000000000000000e+00  3.4967934362795366e-06 -8.9029949275754321e-05 0.0000000000000000e+00  5.7050723524308377e-06 -1.7486423834370440e-05 0.0000000000000000e+00  7.7258172630994309e-06 -4.0919728691888675e-05 0.0000000000000000e+00  3.9940023745368382e-06 -7.9194799975512131e-05 0.0000000000000000e+00  2.1257186560077298e-06 -1.0943067381128365e-04 0.0000000000000000e+00  8.3344177072301348e-06 -4.9066980851934905e-05 0.0000000000000000e+00  4.3671827769958893e-06 -6.9666085422410892e-05 0.0000000000000000e+00  -3.8859387242645608e-07 -7.4165674370055017e-07 0.0000000000000000e+00  -4.9366682678950858e-07 5.7694754672517395e-07 0.0000000000000000e+00  -1.9730856849497183e-06 -1.7881718179122712e-04 0.0000000000000000e+00  8.5113720035820382e-07 -2.1003691937518902e-0