<?xml version="1.0"?>
<VTKFile type="UnstructuredGrid"  version="0.1"  >
<UnstructuredGrid>
<Piece  NumberOfPoints="1419" NumberOfCells="2698">
<Points>
<DataArray  type="Float64"  NumberOfComponents="3"  format="ascii">0 0 0  0 0.41 0  2.5 0 0  2.5 0.41 0  0.6 0.19 0  0.6 0.21 0  0.25 0.2 0  0.15 0.2 0  0.2489897948556636 0.21 0  0.2489897948556636 0.19 0  0.6 0.2 0  0 0.3807142857143437 0  0 0.3514285714286952 0  0 0.3221428571430699 0  0 0.29285714285744 0  0 0.2635714285718054 0  0 0.2342857142861561 0  0 0.2050000000005308 0  0 0.175714285714732 0  0 0.1464285714289574 0  0 0.1171428571431897 0  0 0.08785714285737878 0  0 0.05857142857161107 0  0 0.02928571428580012 0  0.03015443760436003 0 0  0.06140001986583606 0 0  0.09377624077125973 0 0  0.1273239957535082 0 0  0.1620856860351972 0 0  0.1981052433264291 0 0  0.235428184091502 0 0  0.2741016576309132 0 0  0.3141745521465447 0 0  0.3556974926295285 0 0  0.3987229542472677 0 0  0.4433053055141081 0 0  0.4895008759286886 0 0  0.5373680609405097 0 0  0.5869673343216626 0 0  0.6383613676634521 0 0  0.6916151138468254 0 0  0.7467958595648856 0 0  0.8039733463919316 0 0  0.8632198139502143 0 0  0.9246101326867038 0 0  0.9882218810934433 0 0  1.054135445558498 0 0  1.122434100542598 0 0  1.193204177141305 0 0  1.266535089879536 0 0  1.342519516046404 0 0  1.421253448503939 0 0  1.502836389106271 0 0  1.587371439758838 0 0  1.674965418777374 0 0  1.765729001825544 0 0  1.859776908880082 0 0  1.957227977487062 0 0  2.058205329869943 0 0  2.162836591189951 0 0  2.271253957290865 0 0  2.383594446803425 0 0  2.5 0.1024999999997612 0  2.5 0.2049999999994743 0  2.5 0.3074999999997183 0  2.383594446803656 0.41 0  2.271253957291315 0.41 0  2.162836591190598 0.41 0  2.058205329870775 0.41 0  1.957227977488067 0.41 0  1.859776908881246 0.41 0  1.765729001826854 0.41 0  1.674965418778818 0.41 0  1.58737143976041 0.41 0  1.502836389107956 0.41 0  1.421253448505726 0.41 0  1.342519516048286 0.41 0  1.266535089881505 0.41 0  1.193204177143353 0.41 0  1.122434100544716 0.41 0  1.05413544556068 0.41 0  0.9882218810956305 0.41 0  0.9246101326886647 0.41 0  0.8632198139519631 0.41 0  0.8039733463934788 0.41 0  0.7467958595662458 0.41 0  0.6916151138480078 0.41 0  0.6383613676644679 0.41 0  0.5869673343225223 0.41 0  0.5373680609412221 0.41 0  0.4895008759292634 0.41 0  0.4433053055145528 0.41 0  0.3987229542475914 0.41 0  0.3556974926297398 0.41 0  0.3141745521466497 0.41 0  0.2741016576310038 0.41 0  0.2354281840915826 0.41 0  0.1981052433265003 0.41 0  0.1620856860352591 0.41 0  0.1273239957535623 0.41 0  0.09377624077128965 0.41 0  0.06140001986584975 0.41 0  0.03015443760436654 0.41 0  0.2497468076502589 0.2050254481002335 0  0.2497468076502614 0.1949745518997913 0  0.2469965252529372 0.1829317073451959 0  0.2439893735792749 0.1762316384219906 0  0.2400332147834255 0.1700443375285386 0  0.2352133972704371 0.1645032867342007 0  0.2296339016332438 0.1597280261969788 0  0.2234150974217223 0.1558215752574715 0  0.2166911463437691 0.1528682099456123 0  0.2096071079204251 0.1509316448471593 0  0.2023158100364996 0.1500536585536553 0  0.194974551899914 0.1502531923497262 0  0.1877417105387872 0.1515259415822739 0  0.1807733240461124 0.153844448527136 0  0.1742197252835808 0.15715869474974 0  0.1682222986673531 0.1613971801805478 0  0.162910430003803 0.1664684656256651 0  0.1583987151779087 0.1722631454351573 0  0.1547844879126891 0.178656207771761 0  0.1521457199348551 0.1855097315605723 0  0.1505393388476355 0.1926758619366523 0  0.1505393388476328 0.2073241380633295 0  0.1521457199348437 0.2144902684393899 0  0.1547844879126531 0.221343792228163 0  0.1583987151778488 0.2277368545647528 0  0.1629104300036858 0.2335315343742052 0  0.1682222986671726 0.2386028198193036 0  0.1742197252833576 0.2428413052501257 0  0.1807733240458683 0.2461555514727623 0  0.1877417105384929 0.2484740584176516 0  0.1949745518995776 0.2497468076502398 0  0.202315810036185 0.2499463414463592 0  0.2096071079201568 0.2490683551528932 0  0.2166911463435495 0.2471317900544655 0  0.2234150974215506 0.2441784247426195 0  0.2296339016331197 0.2402719738031125 0  0.2352133972703547 0.2354967132658811 0  0.2400332147833751 0.2299556624715287 0  0.2439893735792577 0.2237683615780412 0  0.246996525252926 0.2170682926548348 0  0.25645809709277 0.21 0  0.2639263993298655 0.21 0  0.271394701566961 0.21 0  0.2788630038040554 0.21 0  0.2863313060411479 0.21 0  0.2937996082782405 0.21 0  0.301267910515333 0.21 0  0.3087362127524279 0.21 0  0.3162045149895234 0.21 0  0.3236728172265972 0.21 0  0.3311411194636928 0.21 0  0.3386094217007701 0.21 0  0.3460777239378666 0.21 0  0.3535460261749672 0.21 0  0.3610143284120516 0.21 0  0.3684826306491596 0.21 0  0.3759509328862226 0.21 0  0.383419235123329 0.21 0  0.3908875373604028 0.21 0  0.3983558395975142 0.21 0  0.4058241418345938 0.21 0  0.4132924440716992 0.21 0  0.4207607463087888 0.21 0  0.4282290485459029 0.21 0  0.4356973507830418 0.21 0  0.4431656530201649 0.21 0  0.4506339552573136 0.21 0  0.4581022574944306 0.21 0  0.4655705597315852 0.21 0  0.4730388619686996 0.21 0  0.480507164205851 0.21 0  0.4879754664429498 0.21 0  0.4954437686800938 0.21 0  0.502912070917267 0.21 0  0.5103803731544119 0.21 0  0.5178486753915261 0.21 0  0.5253169776286404 0.21 0  0.5327852798657868 0.21 0  0.5402535821029386 0.21 0  0.54772188434007 0.21 0  0.5551901865771842 0.21 0  0.5626584888143201 0.21 0  0.5701267910514778 0.21 0  0.5775950932886138 0.21 0  0.5850633955257281 0.21 0  0.5925316977628483 0.21 0  0.6 0.2050000000000054 0  0.6 0.1950000000000217 0  0.5925316977628897 0.19 0  0.5850633955257988 0.19 0  0.5775950932887378 0.19 0  0.5701267910515998 0.19 0  0.5626584888145268 0.19 0  0.5551901865773963 0.19 0  0.547721884340339 0.19 0  0.5402535821032429 0.19 0  0.5327852798661811 0.19 0  0.5253169776290537 0.19 0  0.5178486753919799 0.19 0  0.5103803731549078 0.19 0  0.502912070917822 0.19 0  0.4954437686807294 0.19 0  0.4879754664436223 0.19 0  0.4805071642065402 0.19 0  0.4730388619694271 0.19 0  0.4655705597323621 0.19 0  0.4581022574952563 0.19 0  0.4506339552581777 0.19 0  0.4431656530210671 0.19 0  0.4356973507839815 0.19 0  0.4282290485468779 0.19 0  0.4207607463097617 0.19 0  0.4132924440726327 0.19 0  0.4058241418354857 0.19 0  0.3983558395983636 0.19 0  0.3908875373612097 0.19 0  0.3834192351240934 0.19 0  0.3759509328869369 0.19 0  0.3684826306498175 0.19 0  0.361014328412667 0.19 0  0.3535460261755617 0.19 0  0.3460777239384295 0.19 0  0.3386094217012945 0.19 0  0.3311411194641595 0.19 0  0.3236728172270245 0.19 0  0.3162045149898895 0.19 0  0.3087362127527544 0.19 0  0.3012679105156187 0.19 0  0.2937996082784807 0.19 0  0.2863313060413428 0.19 0  0.2788630038042048 0.19 0  0.2713947015670686 0.19 0  0.2639263993299336 0.19 0  0.2564580970927985 0.19 0  0.2607803159922026 0.2000727136295815 0  0.5887803774232762 0.2001272386983733 0  0.5745072403740523 0.2002044435018727 0  0.5511891430099709 0.2001122610077113 0  0.2751288526855082 0.20000000000002 0  0.5365194309847112 0.1999999999999436 0  0.2894621222999649 0.1998691686390484 0  0.5215828265105155 0.1999999999999228 0  0.3127789816668748 0.1998657885438805 0  0.3274069683451451 0.2000000000000796 0  0.5066462220363641 0.199999999999908 0  0.3650630746574081 0.199866017807523 0  0.476773013087985 0.1999999999998713 0  0.3417402379596385 0.1998691686391011 0  0.3796850840047755 0.200000000000134 0  0.4618364086138087 0.1999999999998546 0  0.4917096175621762 0.1999999999998808 0  0.3946216884789568 0.2000000000001512 0  0.446899804139621 0.1999999999998389 0  0.4089549580935208 0.1998691686391595 0  0.4322718174608562 0.200127451265745 0  0.4201487168029707 0.1999966199048527 0  0.3528922713220932 0.2000185703532356 0  0.5633122436674589 0.1999814296467508 0  0.3006558810093873 0.1999966199048318 0  0.5815926498168407 0.1966545283159175 0  0.2677053789419034 0.1964246479135325 0  0.5290511287476175 0.1970915826863981 0  0.5439877332217911 0.197091582686394 0  0.2825131256993216 0.2035478995978015 0  0.3199386661080599 0.202908417313604 0  0.4842413153250809 0.1970915826863873 0  0.5141145242734466 0.1970915826863843 0  0.3722167817676917 0.2029084173136195 0  0.4693047108508938 0.1970915826863783 0  0.3348752705822316 0.202908417313609 0  0.3871533862418661 0.2029084173136212 0  0.4543681063767183 0.1970915826863795 0  0.4991779197992749 0.1970915826863902 0  0.4020059614928624 0.203547899597858 0  0.4394315019025246 0.1970915826863714 0  0.2550657455369551 0.2034088125358657 0  0.2548908499171161 0.1966940311614271 0  0.5946539510196798 0.2024302972968126 0  0.267698176732111 0.2039977513680092 0  0.4261685417851465 0.196409292431739 0  0.3590076176283495 0.196411355804271 0  0.5571672426447437 0.2036011176410121 0  0.3066757059912147 0.1964092924317024 0  0.594380730180568 0.1966558399668133 0  0.4842413153245942 0.2040749161535287 0  0.4693047108503577 0.2040749161535231 0  0.3871533862424271 0.1959250838464788 0  0.372246743208829 0.1959123236376545 0  0.5141145242731028 0.2040749161535395 0  0.4543681063761134 0.2040749161535186 0  0.4019979587101454 0.1959834479682427 0  0.4394608940728603 0.2040870543693135 0  0.5439623148931173 0.2040856076781014 0  0.5290511287473298 0.2040749161535501 0  0.4991779197988497 0.2040749161535382 0  0.3347912413592433 0.1959225448935183 0  0.3199680582793816 0.1959123018030061 0  0.2825051229162361 0.1959834479681729 0  0.3590471196690275 0.2036304442587945 0  0.5571594006495384 0.1963685282145804 0  0.3067669986803285 0.203627750582736 0  0.4262598344738712 0.2036568242185335 0  0.5814408164431408 0.2041285596160068 0  0.5688286748170428 0.1961819304477386 0  0.4145905603063645 0.2038180695522843 0  0.3473758401724931 0.2038180695522752 0  0.2950977245128307 0.2038180695522663 0  0.5688286748170693 0.203818069552238 0  0.2950977245127906 0.1961819304477774 0  0.3473758401723931 0.1961819304478349 0  0.4145905603061963 0.1961819304479011 0  0.2601812407614425 0.2056861609747042
[...]
<PointData  Vectors="f_40-1"> 
<DataArray  type="Float64"  Name="f_40-1"  NumberOfComponents="3" format="ascii">0.0000000000000000e+00 0.0000000000000000e+00 0.0000000000000000e+00  0.0000000000000000e+00 0.0000000000000000e+00 0.0000000000000000e+00  0.0000000000000000e+00 0.0000000000000000e+00 0.0000000000000000e+00  0.0000000000000000e+00 0.0000000000000000e+00 0.0000000000000000e+00  -1.1270562166122593e-05 -1.6128182733514838e-04 0.0000000000000000e+00  1.7417419956775636e-06 -1.6431345383275219e-04 0.0000000000000000e+00  0.0000000000000000e+00 0.0000000000000000e+00 0.0000000000000000e+00  0.0000000000000000e+00 0.0000000000000000e+00 0.0000000000000000e+00  0.0000000000000000e+00 0.0000000000000000e+00 0.0000000000000000e+00  0.0000000000000000e+00 0.0000000000000000e+00 0.0000000000000000e+00  -5.0177891494091846e-06 -1.6279732836633833e-04 0.0000000000000000e+00  0.0000000000000000e+00 0.0000000000000000e+00 0.0000000000000000e+00  0.0000000000000000e+00 0.0000000000000000e+00 0.0000000000000000e+00  0.0000000000000000e+00 0.0000000000000000e+00 0.0000000000000000e+00  0.0000000000000000e+00 0.0000000000000000e+00 0.0000000000000000e+00  0.0000000000000000e+00 0.0000000000000000e+00 0.0000000000000000e+00  0.0000000000000000e+00 0.0000000000000000e+00 0.0000000000000000e+00  0.0000000000000000e+00 0.0000000000000000e+00 0.0000000000000000e+00  0.0000000000000000e+00 0.0000000000000000e+00 0.0000000000000000e+00  0.0000000000000000e+00 0.0000000000000000e+00 0.0000000000000000e+00  0.0000000000000000e+00 0.0000000000000000e+00 0.0000000000000000e+00  0.0000000000000000e+00 0.0000000000000000e+00 0.0000000000000000e+00  0.0000000000000000e+00 0.0000000000000000e+00 0.0000000000000000e+00  0.0000000000000000e+00 0.0000000000000000e+00 0.0000000000000000e+00  0.0000000000000000e+00 0.0000000000000000e+00 0.0000000000000000e+00  0.0000000000000000e+00 0.0000000000000000e+00 0.0000000000000000e+00  0.0000000000000000e+00 0.0000000000000000e+00 0.0000000000000000e+00  0.0000000000000000e+00 0.0000000000000000e+00 0.0000000000000000e+00  0.0000000000000000e+00 0.0000000000000000e+00 0.0000000000000000e+00  0.0000000000000000e+00 0.0000000000000000e+00 0.0000000000000000e+00  0.0000000000000000e+00 0.0000000000000000e+00 0.0000000000000000e+00  0.0000000000000000e+00 0.0000000000000000e+00 0.0000000000000000e+00  0.0000000000000000e+00 0.0000000000000000e+00 0.0000000000000000e+00  0.0000000000000000e+00 0.0000000000000000e+00 0.0000000000000000e+00  0.0000000000000000e+00 0.0000000000000000e+00 0.0000000000000000e+00  0.0000000000000000e+00 0.0000000000000000e+00 0.0000000000000000e+00  0.0000000000000000e+00 0.0000000000000000e+00 0.0000000000000000e+00  0.0000000000000000e+00 0.0000000000000000e+00 0.0000000000000000e+00  0.0000000000000000e+00 0.0000000000000000e+00 0.0000000000000000e+00  0.0000000000000000e+00 0.0000000000000000e+00 0.0000000000000000e+00  0.0000000000000000e+00 0.0000000000000000e+00 0.0000000000000000e+00  0.0000000000000000e+00 0.0000000000000000e+00 0.0000000000000000e+00  0.0000000000000000e+00 0.0000000000000000e+00 0.0000000000000000e+00  0.0000000000000000e+00 0.0000000000000000e+00 0.0000000000000000e+00  0.0000000000000000e+00 0.0000000000000000e+00 0.0000000000000000e+00  0.0000000000000000e+00 0.0000000000000000e+00 0.0000000000000000e+00  0.0000000000000000e+00 0.0000000000000000e+00 0.0000000000000000e+00  0.0000000000000000e+00 0.0000000000000000e+00 0.0000000000000000e+00  0.0000000000000000e+00 0.0000000000000000e+00 0.0000000000000000e+00  0.0000000000000000e+00 0.0000000000000000e+00 0.0000000000000000e+00  0.0000000000000000e+00 0.0000000000000000e+00 0.0000000000000000e+00  0.0000000000000000e+00 0.0000000000000000e+00 0.0000000000000000e+00  0.0000000000000000e+00 0.0000000000000000e+00 0.0000000000000000e+00  0.0000000000000000e+00 0.0000000000000000e+00 0.0000000000000000e+00  0.0000000000000000e+00 0.0000000000000000e+00 0.0000000000000000e+00  0.0000000000000000e+00 0.0000000000000000e+00 0.0000000000000000e+00  0.0000000000000000e+00 0.0000000000000000e+00 0.0000000000000000e+00  0.0000000000000000e+00 0.0000000000000000e+00 0.0000000000000000e+00  0.0000000000000000e+00 0.0000000000000000e+00 0.0000000000000000e+00  0.0000000000000000e+00 0.0000000000000000e+00 0.0000000000000000e+00  0.0000000000000000e+00 0.0000000000000000e+00 0.0000000000000000e+00  0.0000000000000000e+00 0.0000000000000000e+00 0.0000000000000000e+00  0.0000000000000000e+00 0.0000000000000000e+00 0.0000000000000000e+00  0.0000000000000000e+00 0.0000000000000000e+00 0.0000000000000000e+00  0.0000000000000000e+00 0.0000000000000000e+00 0.0000000000000000e+00  0.0000000000000000e+00 0.0000000000000000e+00 0.0000000000000000e+00  0.0000000000000000e+00 0.0000000000000000e+00 0.0000000000000000e+00  0.0000000000000000e+00 0.0000000000000000e+00 0.0000000000000000e+00  0.0000000000000000e+00 0.0000000000000000e+00 0.0000000000000000e+00  0.0000000000000000e+00 0.0000000000000000e+00 0.0000000000000000e+00  0.0000000000000000e+00 0.0000000000000000e+00 0.0000000000000000e+00  0.0000000000000000e+00 0.0000000000000000e+00 0.0000000000000000e+00  0.0000000000000000e+00 0.0000000000000000e+00 0.0000000000000000e+00  0.0000000000000000e+00 0.0000000000000000e+00 0.0000000000000000e+00  0.0000000000000000e+00 0.0000000000000000e+00 0.0000000000000000e+00  0.0000000000000000e+00 0.0000000000000000e+00 0.0000000000000000e+00  0.0000000000000000e+00 0.0000000000000000e+00 0.0000000000000000e+00  0.0000000000000000e+00 0.0000000000000000e+00 0.0000000000000000e+00  0.0000000000000000e+00 0.0000000000000000e+00 0.0000000000000000e+00  0.0000000000000000e+00 0.0000000000000000e+00 0.0000000000000000e+00  0.0000000000000000e+00 0.0000000000000000e+00 0.0000000000000000e+00  0.0000000000000000e+00 0.0000000000000000e+00 0.0000000000000000e+00  0.0000000000000000e+00 0.0000000000000000e+00 0.0000000000000000e+00  0.0000000000000000e+00 0.0000000000000000e+00 0.0000000000000000e+00  0.0000000000000000e+00 0.0000000000000000e+00 0.0000000000000000e+00  0.0000000000000000e+00 0.0000000000000000e+00 0.0000000000000000e+00  0.0000000000000000e+00 0.0000000000000000e+00 0.0000000000000000e+00  0.0000000000000000e+00 0.0000000000000000e+00 0.0000000000000000e+00  0.0000000000000000e+00 0.0000000000000000e+00 0.0000000000000000e+00  0.0000000000000000e+00 0.0000000000000000e+00 0.0000000000000000e+00  0.0000000000000000e+00 0.0000000000000000e+00 0.0000000000000000e+00  0.0000000000000000e+00 0.0000000000000000e+00 0.0000000000000000e+00  0.0000000000000000e+00 0.0000000000000000e+00 0.0000000000000000e+00  0.0000000000000000e+00 0.0000000000000000e+00 0.0000000000000000e+00  0.0000000000000000e+00 0.0000000000000000e+00 0.0000000000000000e+00  0.0000000000000000e+00 0.0000000000000000e+00 0.0000000000000000e+00  0.0000000000000000e+00 0.0000000000000000e+00 0.0000000000000000e+00  0.0000000000000000e+00 0.0000000000000000e+00 0.0000000000000000e+00  0.0000000000000000e+00 0.0000000000000000e+00 0.0000000000000000e+00  0.0000000000000000e+00 0.0000000000000000e+00 0.0000000000000000e+00  0.0000000000000000e+00 0.0000000000000000e+00 0.0000000000000000e+00  0.0000000000000000e+00 0.0000000000000000e+00 0.0000000000000000e+00  0.0000000000000000e+00 0.0000000000000000e+00 0.0000000000000000e+00  0.0000000000000000e+00 0.0000000000000000e+00 0.0000000000000000e+00  0.0000000000000000e+00 0.0000000000000000e+00 0.0000000000000000e+00  0.0000000000000000e+00 0.0000000000000000e+00 0.0000000000000000e+00  0.0000000000000000e+00 0.0000000000000000e+00 0.0000000000000000e+00  0.0000000000000000e+00 0.0000000000000000e+00 0.0000000000000000e+00  0.0000000000000000e+00 0.0000000000000000e+00 0.0000000000000000e+00  0.0000000000000000e+00 0.0000000000000000e+00 0.0000000000000000e+00  0.0000000000000000e+00 0.0000000000000000e+00 0.0000000000000000e+00  0.0000000000000000e+00 0.0000000000000000e+00 0.0000000000000000e+00  0.0000000000000000e+00 0.0000000000000000e+00 0.0000000000000000e+00  0.0000000000000000e+00 0.0000000000000000e+00 0.0000000000000000e+00  0.0000000000000000e+00 0.0000000000000000e+00 0.0000000000000000e+00  0.0000000000000000e+00 0.0000000000000000e+00 0.0000000000000000e+00  0.0000000000000000e+00 0.0000000000000000e+00 0.0000000000000000e+00  0.0000000000000000e+00 0.0000000000000000e+00 0.0000000000000000e+00  0.0000000000000000e+00 0.0000000000000000e+00 0.0000000000000000e+00  0.0000000000000000e+00 0.0000000000000000e+00 0.0000000000000000e+00  0.0000000000000000e+00 0.0000000000000000e+00 0.0000000000000000e+00  0.0000000000000000e+00 0.0000000000000000e+00 0.0000000000000000e+00  0.0000000000000000e+00 0.0000000000000000e+00 0.0000000000000000e+00  0.0000000000000000e+00 0.0000000000000000e+00 0.0000000000000000e+00  0.0000000000000000e+00 0.0000000000000000e+00 0.0000000000000000e+00  0.0000000000000000e+00 0.0000000000000000e+00 0.0000000000000000e+00  0.0000000000000000e+00 0.0000000000000000e+00 0.0000000000000000e+00  0.0000000000000000e+00 0.0000000000000000e+00 0.0000000000000000e+00  0.0000000000000000e+00 0.0000000000000000e+00 0.0000000000000000e+00  0.0000000000000000e+00 0.0000000000000000e+00 0.0000000000000000e+00  0.0000000000000000e+00 0.0000000000000000e+00 0.0000000000000000e+00  0.0000000000000000e+00 0.0000000000000000e+00 0.0000000000000000e+00  0.0000000000000000e+00 0.0000000000000000e+00 0.0000000000000000e+00  0.0000000000000000e+00 0.0000000000000000e+00 0.0000000000000000e+00  0.0000000000000000e+00 0.0000000000000000e+00 0.0000000000000000e+00  0.0000000000000000e+00 0.0000000000000000e+00 0.0000000000000000e+00  0.0000000000000000e+00 0.0000000000000000e+00 0.0000000000000000e+00  0.0000000000000000e+00 0.0000000000000000e+00 0.0000000000000000e+00  0.0000000000000000e+00 0.0000000000000000e+00 0.0000000000000000e+00  0.0000000000000000e+00 0.0000000000000000e+00 0.0000000000000000e+00  0.0000000000000000e+00 0.0000000000000000e+00 0.0000000000000000e+00  0.0000000000000000e+00 0.0000000000000000e+00 0.0000000000000000e+00  0.0000000000000000e+00 0.0000000000000000e+00 0.0000000000000000e+00  4.4180051938423143e-07 -2.9862720221060456e-06 0.0000000000000000e+00  1.0205210382934235e-06 -3.5463029011784132e-06 0.0000000000000000e+00  1.7141147853448586e-06 -4.1876191503400936e-06 0.0000000000000000e+00  2.5059578132322844e-06 -4.9872677591984210e-06 0.0000000000000000e+00  3.2615653455292823e-06 -5.9999087198172258e-06 0.0000000000000000e+00  4.0390080715497125e-06 -7.2718325277239281e-06 0.0000000000000000e+00  4.7364404384451366e-06 -8.7162074443613044e-06 0.0000000000000000e+00  5.3984182995715112e-06 -1.0397226930914221e-05 0.0000000000000000e+00  6.0841940631701845e-06 -1.2261622165317495e-05 0.0000000000000000e+00  6.6645625314017996e-06 -1.4308581908963533e-05 0.0000000000000000e+00  7.2734290417779857e-06 -1.6560025027249981e-05 0.0000000000000000e+00  7.7786381418876403e-06 -1.8972512176878221e-05 0.0000000000000000e+00  8.2921496798344038e-06 -2.1565705259290391e-05 0.0000000000000000e+00  8.7272937725222485e-06 -2.4302151914345868e-05 0.0000000000000000e+00  9.1198849331058351e-06 -2.7208424756688278e-05 0.0000000000000000e+00  9.5176437150088909e-06 -3.0256893114244161e-05 0.0000000000000000e+00  9.8236358048265959e-06 -3.3427604823908754e-05 0.0000000000000000e+00  1.0134467536524408e-05 -3.6755093668328495e-05 0.0000000000000000e+00  1.0359813929395955e-05 -4.0182198387513085e-05 0.0000000000000000e+00  1.0585223942826020e-05 -4.3746284116243266e-05 0.0000000000000000e+00  1.0739470986748519e-05 -4.7402096309295484e-05 0.0000000000000000e+00  1.0874181413009263e-05 -5.1179641303572630e-05 0.0000000000000000e+00  1.0953352904936482e-05 -5.5040242209358149e-05 0.0000000000000000e+00  1.0990971733913372e-05 -5.9001054397747794e-05 0.0000000000000000e+00  1.1017891960775983e-05 -6.3046230194063063e-05 0.0000000000000000e+00  1.0984783856990660e-05 -6.7161361946273737e-05 0.0000000000000000e+00  1.0918275373538193e-05 -7.1377147704961561e-05 0.0000000000000000e+00  1.0808706927923794e-05 -7.5637527817054977e-05 0.0000000000000000e+00  1.0664949683623521e-05 -7.9986206472591889e-05 0.0000000000000000e+00  1.0478921606225590e-05 -8.4374283714578431e-05 0.0000000000000000e+00  1.0259700692381439e-05 -8.8837516145821250e-05 0.0000000000000000e+00  9.9969523690721940e-06 -9.3329870531807773e-05 0.0000000000000000e+00  9.7032565443375484e-06 -9.7889303755846469e-05 0.0000000000000000e+00  9.3653157295401475e-06 -1.0246516135352904e-04 0.0000000000000000e+00  8.9911596558712897e-06 -1.0710398094477045e-04 0.0000000000000000e+00  8.5782063216753426e-06 -1.1175212276325147e-04 0.0000000000000000e+00  8.1309246057770991e-06 -1.1644997757233840e-04 0.0000000000000000e+00  7.6442436502376996e-06 -1.2115125561623930e-04 0.0000000000000000e+00  7.1215086158837848e-06 -1.2589416905046781e-04 0.0000000000000000e+00  6.5579438257158440e-06 -1.3063519859202622e-04 0.0000000000000000e+00  5.9557885118325946e-06 -1.3540425023969468e-04 0.0000000000000000e+00  5.3201904596213500e-06 -1.4017502443478227e-04 0.0000000000000000e+00  4.6419229029209110e-06 -1.4496161623178929e-04 0.0000000000000000e+00  3.9423454078765288e-06 -1.4975076166799103e-04 0.0000000000000000e+00  3.1988229525253248e-06 -1.5453240983293056e-04 0.0000000000000000e+00  2.4433140845055307e-06 -1.5934911898145111e-04 0.0000000000000000e+00  -1.7258818809346659e-06 -1.6354778329735157e-04 0.0000000000000000e+00  -8.2168050192564718e-06 -1.6204792703101897e-04 0.0000000000000000e+00  -1.0546672001805158e-05 -1.5653829458287457e-04 0.0000000000000000e+00  -9.7733992196638605e-06 -1.5165232736275250e-04 0.0000000000000000e+00  -9.0105961448150788e-06 -1.4675137454675527e-04 0.0000000000000000e+00  -8.2852938074771737e-06 -1.4187169895447414e-04 0.0000000000000000e+00  -7.5815732117077129e-06 -1.3700036836957185e-04 0.0000000000000000e+00  -6.9175785600012263e-06 -1.3214158839112638e-04 0.0000000000000000e+00  -6.2742155658025947e-06 -1.2729796061777978e-04 0.0000000000000000e+00  -5.6702965008169084e-06 -1.2246107578439618e-04 0.0000000000000000e+00  -5.0880480324401827e-06 -1.1765851806004188e-04 0.0000000000000000e+00  -4.5424384985028068e-06 -1.1285969178866795e-04 0.0000000000000000e+00  -4.0157515412056249e-06 -1.0810265991118317e-04 0.0000000000000000e+00  -3.5270672746588567e-06 -1.0335729282076956e-04 0.0000000000000000e+00  -3.0537787754447606e-06 -9.8662231597213939e-05 0.0000000000000000e+00  -2.6193259660526215e-06 -9.3987583127795365e-05 0.0000000000000000e+00  -2.1965588377628192e-06 -8.9371666618757816e-05 0.0000000000000000e+00  -1.8152861754986584e-06 -8.4784831575240437e-05 0.0000000000000000e+00  -1.4417148983605061e-06 -8.0263957010146830e-05 0.0000000000000000e+00  -1.1132274643807234e-06 -7.5781046742746797e-05 0.0000000000000000e+00  -7.8904143434377916e-07 -7.1376048529743337e-05 0.0000000000000000e+00  -5.1162161938769224e-07 -6.7020414436813093e-05 0.0000000000000000e+00  -2.3321801866825521e-07 -6.2752252074081740e-05 0.0000000000000000e+00  -5.4813632009846001e-09 -5.8544608836825648e-05 0.0000000000000000e+00  2.2056437174511184e-07 -5.4428810460485095e-05 0.0000000000000000e+00  4.0591336171451663e-07 -5.0389250767011772e-05 0.0000000000000000e+00  5.5962906325888565e-07 -4.6456100857011745e-05 0.0000000000000000e+00  7.2241399660662584e-07 -4.2607205756323059e-05 0.0000000000000000e+00  8.3850220343110784e-07 -3.8861933331786537e-05 0.0000000000000000e+00  9.4553250618077754e-07 -3.5241693391898549e-05 0.0000000000000000e+00  1.0166511564118323e-06 -3.1720293440732529e-05 0.0000000000000000e+00  1.0770041986196702e-06 -2.8341170715291382e-05 0.0000000000000000e+00  1.1021456704138487e-06 -2.5070029253443718e-05 0.0000000000000000e+00  1.1290355112691080e-06 -2.1968280249708690e-05 0.0000000000000000e+00  1.1081095097425962e-06 -1.8980149447177355e-05 0.0000000000000000e+00  1.0588478171128848e-06 -1.6177071134684238e-05 0.0000000000000000e+00  1.0334062035079537e-06 -1.3501716273854109e-05 0.0000000000000000e+00  9.5756726777666982e-07 -1.1011053329309700e-05 0.0000000000000000e+00  8.7875134740977344e-07 -8.7071528487715203e-06 0.0000000000000000e+00  7.6238802407391577e-07 -6.5731596069592947e-06 0.0000000000000000e+00  6.6049096970555719e-07 -4.6620127190879141e-06 0.0000000000000000e+00  5.0198990980101836e-07 -2.9181649717145646e-06 0.0000000000000000e+00  3.1930344852191181e-07 -1.4190542653345273e-06 0.0000000000000000e+00  1.8129378758720255e-07 -1.0074203362376076e-07 0.0000000000000000e+00  -1.0997347706025350e-08 9.9746717596243824e-07 0.0000000000000000e+00  -1.3550467404998757e-07 1.8536370004746242e-06 0.0000000000000000e+00  -2.3871749071063159e-07 2.3832491034799905e-06 0.0000000000000000e+00  -1.5320464746347985e-07 2.5134277665724550e-06 0.0000000000000000e+00  -2.4169944040042316e-07 -2.5400877297982635e-07 0.0000000000000000e+00  -3.6734189144055171e-06 -1.5551920249621832e-04 0.0000000000000000e+00  -2.1317503754643394e-06 -1.4627517608265040e-04 0.0000000000000000e+00  -9.8933665896161394e-08 -1.3120496409738060e-04 0.0000000000000000e+00  9.8866974527581002e-07 -1.4010070585298922e-06 0.0000000000000000e+00  9.7160548354523471e-07 -1.2177515626908971e-04 0.0000000000000000e+00  1.8828255392946201e-06 -3.3783337316189680e-06 0.0000000000000000e+00  2.0083337095088047e-06 -1.1226971957911761e-04 0.0000000000000000e+00  3.1868303761565776e-06 -8.3585459392077395e-06 0.0000000000000000e+00  3.9177995074541232e-06 -1.2507025718786739e-05 0.0000000000000000e+00  2.9145756406384995e-06 -1.0287044669955064e-04 0.0000000000000000e+00  5.1466303202216150e-06 -2.6108261729264765e-05 0.0000000000000000e+00  4.3413055883490739e-06 -8.4523654964338966e-05 0.0000000000000000e+00  4.4551052381796138e-06 -1.7171757371006119e-05 0.0000000000000000e+00  5.4853759148176567e-06 -3.2462240569482638e-05 0.0000000000000000e+00  4.8640413045291096e-06 -7.5646722351675126e-05 0.0000000000000000e+00  3.6919045148881130e-06 -9.3610059285687382e-05 0.0000000000000000e+00  5.6559628457700719e-06 -3.9418047958408506e-05 0.0000000000000000e+00  5.2599512850871434e-06 -6.7021460532763719e-05 0.0000000000000000e+00  5.6382404960151272e-06 -4.6489298867116515e-05 0.0000000000000000e+00  5.5993837047287180e-06 -5.8886174654349250e-05 0.0000000000000000e+00  5.6451380597822820e-06 -5.2345566453447632e-05 0.0000000000000000e+00  4.8682094196955655e-06 -2.1322609823202976e-05 0.0000000000000000e+00  -1.2425495898618496e-06 -1.3900198996559323e-04 0.0000000000000000e+00  2.5530387430500630e-06 -5.5870196280538328e-06 0.0000000000000000e+00  -5.1497114216889036e-06 -1.5035259768138678e-04 0.0000000000000000e+00  1.4817682746598533e-07 4.0997720400205669e-07 0.0000000000000000e+00  -3.4036195451686713e-07 -1.1649844847490204e-04 0.0000000000000000e+00  -1.4579443694837367e-06 -1.2606783030682514e-04 0.0000000000000000e+00  1.9594195594119157e-06 -3.4127711926675160e-06 0.0000000000000000e+00  4.3845068206116771e-06 -1.1154524810732885e-05 0.0000000000000000e+00  2.2684761666524959e-06 -8.8465175366508981e-05 0.0000000000000000e+00  6.5226403892084433e-07 -1.0702005351563649e-04 0.0000000000000000e+00  6.6035446690805263e-06 -2.9928549102478919e-05 0.0000000000000000e+00  2.8961504319108761e-06 -7.9457016578556543e-05 0.0000000000000000e+00  5.1789063856621674e-06 -1.5693732203337326e-05 0.0000000000000000e+00  6.9318051512632282e-06 -3.6617332413755246e-05 0.0000000000000000e+00  3.4041712880500046e-06 -7.0679382715582484e-05 0.0000000000000000e+00  1.5209908285197347e-06 -9.7663876998018860e-05 0.0000000000000000e+00  7.4443774176518223e-06 -4.3899881318522848e-05 0.0000000000000000e+00  3.7939822323874591e-06 -6.2174902347124854e-05 0.0000000000000000e+00  -3.9138457627712544e-07 -7.1209202281029384e-07 0.0000000000000000e+00  -4.8468496882489171e-07 5.5929655661654394e-07 0.0000000000000000e+00  -2.8334967792487837e-06 -1.5965992977254656e-04 0.0000000000000000e+00  7.5393411536253198e-07 -1.9707504125758362