<?xml version="1.0"?>
<VTKFile type="UnstructuredGrid"  version="0.1"  >
<UnstructuredGrid>
<Piece  NumberOfPoints="1419" NumberOfCells="2698">
<Points>
<DataArray  type="Float64"  NumberOfComponents="3"  format="ascii">0 0 0  0 0.41 0  2.5 0 0  2.5 0.41 0  0.6 0.19 0  0.6 0.21 0  0.25 0.2 0  0.15 0.2 0  0.2489897948556636 0.21 0  0.2489897948556636 0.19 0  0.6 0.2 0  0 0.3807142857143437 0  0 0.3514285714286952 0  0 0.3221428571430699 0  0 0.29285714285744 0  0 0.2635714285718054 0  0 0.2342857142861561 0  0 0.2050000000005308 0  0 0.175714285714732 0  0 0.1464285714289574 0  0 0.1171428571431897 0  0 0.08785714285737878 0  0 0.05857142857161107 0  0 0.02928571428580012 0  0.03015443760436003 0 0  0.06140001986583606 0 0  0.09377624077125973 0 0  0.1273239957535082 0 0  0.1620856860351972 0 0  0.1981052433264291 0 0  0.235428184091502 0 0  0.2741016576309132 0 0  0.3141745521465447 0 0  0.3556974926295285 0 0  0.3987229542472677 0 0  0.4433053055141081 0 0  0.4895008759286886 0 0  0.5373680609405097 0 0  0.5869673343216626 0 0  0.6383613676634521 0 0  0.6916151138468254 0 0  0.7467958595648856 0 0  0.8039733463919316 0 0  0.8632198139502143 0 0  0.9246101326867038 0 0  0.9882218810934433 0 0  1.054135445558498 0 0  1.122434100542598 0 0  1.193204177141305 0 0  1.266535089879536 0 0  1.342519516046404 0 0  1.421253448503939 0 0  1.502836389106271 0 0  1.587371439758838 0 0  1.674965418777374 0 0  1.765729001825544 0 0  1.859776908880082 0 0  1.957227977487062 0 0  2.058205329869943 0 0  2.162836591189951 0 0  2.271253957290865 0 0  2.383594446803425 0 0  2.5 0.1024999999997612 0  2.5 0.2049999999994743 0  2.5 0.3074999999997183 0  2.383594446803656 0.41 0  2.271253957291315 0.41 0  2.162836591190598 0.41 0  2.058205329870775 0.41 0  1.957227977488067 0.41 0  1.859776908881246 0.41 0  1.765729001826854 0.41 0  1.674965418778818 0.41 0  1.58737143976041 0.41 0  1.502836389107956 0.41 0  1.421253448505726 0.41 0  1.342519516048286 0.41 0  1.266535089881505 0.41 0  1.193204177143353 0.41 0  1.122434100544716 0.41 0  1.05413544556068 0.41 0  0.9882218810956305 0.41 0  0.9246101326886647 0.41 0  0.8632198139519631 0.41 0  0.8039733463934788 0.41 0  0.7467958595662458 0.41 0  0.6916151138480078 0.41 0  0.6383613676644679 0.41 0  0.5869673343225223 0.41 0  0.5373680609412221 0.41 0  0.4895008759292634 0.41 0  0.4433053055145528 0.41 0  0.3987229542475914 0.41 0  0.3556974926297398 0.41 0  0.3141745521466497 0.41 0  0.2741016576310038 0.41 0  0.2354281840915826 0.41 0  0.1981052433265003 0.41 0  0.1620856860352591 0.41 0  0.1273239957535623 0.41 0  0.09377624077128965 0.41 0  0.06140001986584975 0.41 0  0.03015443760436654 0.41 0  0.2497468076502589 0.2050254481002335 0  0.2497468076502614 0.1949745518997913 0  0.2469965252529372 0.1829317073451959 0  0.2439893735792749 0.1762316384219906 0  0.2400332147834255 0.1700443375285386 0  0.2352133972704371 0.1645032867342007 0  0.2296339016332438 0.1597280261969788 0  0.2234150974217223 0.1558215752574715 0  0.2166911463437691 0.1528682099456123 0  0.2096071079204251 0.1509316448471593 0  0.2023158100364996 0.1500536585536553 0  0.194974551899914 0.1502531923497262 0  0.1877417105387872 0.1515259415822739 0  0.1807733240461124 0.153844448527136 0  0.1742197252835808 0.15715869474974 0  0.1682222986673531 0.1613971801805478 0  0.162910430003803 0.1664684656256651 0  0.1583987151779087 0.1722631454351573 0  0.1547844879126891 0.178656207771761 0  0.1521457199348551 0.1855097315605723 0  0.1505393388476355 0.1926758619366523 0  0.1505393388476328 0.2073241380633295 0  0.1521457199348437 0.2144902684393899 0  0.1547844879126531 0.221343792228163 0  0.1583987151778488 0.2277368545647528 0  0.1629104300036858 0.2335315343742052 0  0.1682222986671726 0.2386028198193036 0  0.1742197252833576 0.2428413052501257 0  0.1807733240458683 0.2461555514727623 0  0.1877417105384929 0.2484740584176516 0  0.1949745518995776 0.2497468076502398 0  0.202315810036185 0.2499463414463592 0  0.2096071079201568 0.2490683551528932 0  0.2166911463435495 0.2471317900544655 0  0.2234150974215506 0.2441784247426195 0  0.2296339016331197 0.2402719738031125 0  0.2352133972703547 0.2354967132658811 0  0.2400332147833751 0.2299556624715287 0  0.2439893735792577 0.2237683615780412 0  0.246996525252926 0.2170682926548348 0  0.25645809709277 0.21 0  0.2639263993298655 0.21 0  0.271394701566961 0.21 0  0.2788630038040554 0.21 0  0.2863313060411479 0.21 0  0.2937996082782405 0.21 0  0.301267910515333 0.21 0  0.3087362127524279 0.21 0  0.3162045149895234 0.21 0  0.3236728172265972 0.21 0  0.3311411194636928 0.21 0  0.3386094217007701 0.21 0  0.3460777239378666 0.21 0  0.3535460261749672 0.21 0  0.3610143284120516 0.21 0  0.3684826306491596 0.21 0  0.3759509328862226 0.21 0  0.383419235123329 0.21 0  0.3908875373604028 0.21 0  0.3983558395975142 0.21 0  0.4058241418345938 0.21 0  0.4132924440716992 0.21 0  0.4207607463087888 0.21 0  0.4282290485459029 0.21 0  0.4356973507830418 0.21 0  0.4431656530201649 0.21 0  0.4506339552573136 0.21 0  0.4581022574944306 0.21 0  0.4655705597315852 0.21 0  0.4730388619686996 0.21 0  0.480507164205851 0.21 0  0.4879754664429498 0.21 0  0.4954437686800938 0.21 0  0.502912070917267 0.21 0  0.5103803731544119 0.21 0  0.5178486753915261 0.21 0  0.5253169776286404 0.21 0  0.5327852798657868 0.21 0  0.5402535821029386 0.21 0  0.54772188434007 0.21 0  0.5551901865771842 0.21 0  0.5626584888143201 0.21 0  0.5701267910514778 0.21 0  0.5775950932886138 0.21 0  0.5850633955257281 0.21 0  0.5925316977628483 0.21 0  0.6 0.2050000000000054 0  0.6 0.1950000000000217 0  0.5925316977628897 0.19 0  0.5850633955257988 0.19 0  0.5775950932887378 0.19 0  0.5701267910515998 0.19 0  0.5626584888145268 0.19 0  0.5551901865773963 0.19 0  0.547721884340339 0.19 0  0.5402535821032429 0.19 0  0.5327852798661811 0.19 0  0.5253169776290537 0.19 0  0.5178486753919799 0.19 0  0.5103803731549078 0.19 0  0.502912070917822 0.19 0  0.4954437686807294 0.19 0  0.4879754664436223 0.19 0  0.4805071642065402 0.19 0  0.4730388619694271 0.19 0  0.4655705597323621 0.19 0  0.4581022574952563 0.19 0  0.4506339552581777 0.19 0  0.4431656530210671 0.19 0  0.4356973507839815 0.19 0  0.4282290485468779 0.19 0  0.4207607463097617 0.19 0  0.4132924440726327 0.19 0  0.4058241418354857 0.19 0  0.3983558395983636 0.19 0  0.3908875373612097 0.19 0  0.3834192351240934 0.19 0  0.3759509328869369 0.19 0  0.3684826306498175 0.19 0  0.361014328412667 0.19 0  0.3535460261755617 0.19 0  0.3460777239384295 0.19 0  0.3386094217012945 0.19 0  0.3311411194641595 0.19 0  0.3236728172270245 0.19 0  0.3162045149898895 0.19 0  0.3087362127527544 0.19 0  0.3012679105156187 0.19 0  0.2937996082784807 0.19 0  0.2863313060413428 0.19 0  0.2788630038042048 0.19 0  0.2713947015670686 0.19 0  0.2639263993299336 0.19 0  0.2564580970927985 0.19 0  0.2607803159922026 0.2000727136295815 0  0.5887803774232762 0.2001272386983733 0  0.5745072403740523 0.2002044435018727 0  0.5511891430099709 0.2001122610077113 0  0.2751288526855082 0.20000000000002 0  0.5365194309847112 0.1999999999999436 0  0.2894621222999649 0.1998691686390484 0  0.5215828265105155 0.1999999999999228 0  0.3127789816668748 0.1998657885438805 0  0.3274069683451451 0.2000000000000796 0  0.5066462220363641 0.199999999999908 0  0.3650630746574081 0.199866017807523 0  0.476773013087985 0.1999999999998713 0  0.3417402379596385 0.1998691686391011 0  0.3796850840047755 0.200000000000134 0  0.4618364086138087 0.1999999999998546 0  0.4917096175621762 0.1999999999998808 0  0.3946216884789568 0.2000000000001512 0  0.446899804139621 0.1999999999998389 0  0.4089549580935208 0.1998691686391595 0  0.4322718174608562 0.200127451265745 0  0.4201487168029707 0.1999966199048527 0  0.3528922713220932 0.2000185703532356 0  0.5633122436674589 0.1999814296467508 0  0.3006558810093873 0.1999966199048318 0  0.5815926498168407 0.1966545283159175 0  0.2677053789419034 0.1964246479135325 0  0.5290511287476175 0.1970915826863981 0  0.5439877332217911 0.197091582686394 0  0.2825131256993216 0.2035478995978015 0  0.3199386661080599 0.202908417313604 0  0.4842413153250809 0.1970915826863873 0  0.5141145242734466 0.1970915826863843 0  0.3722167817676917 0.2029084173136195 0  0.4693047108508938 0.1970915826863783 0  0.3348752705822316 0.202908417313609 0  0.3871533862418661 0.2029084173136212 0  0.4543681063767183 0.1970915826863795 0  0.4991779197992749 0.1970915826863902 0  0.4020059614928624 0.203547899597858 0  0.4394315019025246 0.1970915826863714 0  0.2550657455369551 0.2034088125358657 0  0.2548908499171161 0.1966940311614271 0  0.5946539510196798 0.2024302972968126 0  0.267698176732111 0.2039977513680092 0  0.4261685417851465 0.196409292431739 0  0.3590076176283495 0.196411355804271 0  0.5571672426447437 0.2036011176410121 0  0.3066757059912147 0.1964092924317024 0  0.594380730180568 0.1966558399668133 0  0.4842413153245942 0.2040749161535287 0  0.4693047108503577 0.2040749161535231 0  0.3871533862424271 0.1959250838464788 0  0.372246743208829 0.1959123236376545 0  0.5141145242731028 0.2040749161535395 0  0.4543681063761134 0.2040749161535186 0  0.4019979587101454 0.1959834479682427 0  0.4394608940728603 0.2040870543693135 0  0.5439623148931173 0.2040856076781014 0  0.5290511287473298 0.2040749161535501 0  0.4991779197988497 0.2040749161535382 0  0.3347912413592433 0.1959225448935183 0  0.3199680582793816 0.1959123018030061 0  0.2825051229162361 0.1959834479681729 0  0.3590471196690275 0.2036304442587945 0  0.5571594006495384 0.1963685282145804 0  0.3067669986803285 0.203627750582736 0  0.4262598344738712 0.2036568242185335 0  0.5814408164431408 0.2041285596160068 0  0.5688286748170428 0.1961819304477386 0  0.4145905603063645 0.2038180695522843 0  0.3473758401724931 0.2038180695522752 0  0.2950977245128307 0.2038180695522663 0  0.5688286748170693 0.203818069552238 0  0.2950977245127906 0.1961819304477774 0  0.3473758401723931 0.1961819304478349 0  0.4145905603061963 0.1961819304479011 0  0.2601812407614425 0.2056861609747042
[...]
<PointData  Scalars="f_40-2"> 
<DataArray  type="Float64"  Name="f_40-2"  format="ascii">1.1127545725167199e+03  1.1135059684007442e+03  0.0000000000000000e+00  0.0000000000000000e+00  8.3329262458150856e+02  8.3293901639354408e+02  0.0000000000000000e+00  1.0993385706108236e+03  9.9288994041135606e+02  9.9302018371342263e+02  8.2539555264105741e+02  1.1151813320475992e+03  1.1198791064868929e+03  1.1314386539370350e+03  1.1394099288920277e+03  1.1451256360753130e+03  1.1489918575766023e+03  1.1535296956224081e+03  1.1517353498893278e+03  1.1488121231086413e+03  1.1384434115290171e+03  1.1329879541547004e+03  1.1203575401381825e+03  1.1124875281718271e+03  1.1149678894892104e+03  1.1016999661592827e+03  1.0915534472852064e+03  1.0728006891830544e+03  1.0595318368255673e+03  1.0398732076374970e+03  1.0174153912311427e+03  1.0044509894591025e+03  9.7047109545167802e+02  9.6296088009677032e+02  9.3267845637241328e+02  9.2171128145489774e+02  8.8901850309767144e+02  8.7447029286953534e+02  8.5171204127445117e+02  8.2833600646135017e+02  8.0339876693863334e+02  7.8248371508588468e+02  7.4851201904004779e+02  7.3246995944256287e+02  7.1065086853665025e+02  6.5694339916223714e+02  6.5863778275638072e+02  6.2105084472336705e+02  5.7514525589598134e+02  5.7140392536297509e+02  5.1393527068522951e+02  4.9196803429697832e+02  4.6010729152622167e+02  4.1884069437290282e+02  3.6988871051332654e+02  3.3405907646892439e+02  2.8992549837094731e+02  2.5542177206179230e+02  1.9082527738900279e+02  1.5135609381392931e+02  1.1078578680626758e+02  4.7409079128703688e+01  0.0000000000000000e+00  0.0000000000000000e+00  0.0000000000000000e+00  4.9338021975779654e+01  1.0530021211597119e+02  1.5879722389486926e+02  1.8975570911775580e+02  2.5523470088292544e+02  2.8960278300038289e+02  3.2433348665398768e+02  3.6903470075579457e+02  4.2052301436679841e+02  4.4583671078942672e+02  4.9858778101127967e+02  5.0760061804971014e+02  5.7213764843283082e+02  5.7618629566875029e+02  6.1356616442783616e+02  6.5590060382696913e+02  6.5884652342614572e+02  7.0482335081201825e+02  7.3314068214695988e+02  7.5310420935802813e+02  7.8120486544364121e+02  8.0577494553356780e+02  8.3089098093202279e+02  8.4973525396536070e+02  8.6886664712014169e+02  8.9706067188534530e+02  9.1780033990513050e+02  9.3649012022951536e+02  9.5816309861677291e+02  9.7928407258350683e+02  9.9705258803429797e+02  1.0183745679230639e+03  1.0396494463923968e+03  1.0554538947246156e+03  1.0770958191068107e+03  1.0859924679898058e+03  1.1028925624122749e+03  1.1095102046496684e+03  0.0000000000000000e+00  0.0000000000000000e+00  9.9102074473313553e+02  9.9295720042016956e+02  9.9454244243037579e+02  1.0002406502974675e+03  1.0043895269698824e+03  1.0123740537784065e+03  1.0154734644843051e+03  1.0308678328305032e+03  1.0304164831342860e+03  1.0451162112831541e+03  1.0495155228440253e+03  1.0629930929720501e+03  1.0648221686799457e+03  1.0780584958173815e+03  1.0789093619835753e+03  1.0893631609394088e+03  1.0910305735703432e+03  1.0965628097201254e+03  1.0973830267165695e+03  1.0967749800512192e+03  1.0966711035355713e+03  1.0894318175346423e+03  1.0901549258172292e+03  1.0790647169647361e+03  1.0778844654039449e+03  1.0659847580848639e+03  1.0582642646572046e+03  1.0524850907046987e+03  1.0439029084937167e+03  1.0298196816038512e+03  1.0303871832843674e+03  1.0157125568710312e+03  1.0146524663255468e+03  1.0029896328352273e+03  1.0016172266657404e+03  9.9402650076612576e+02  9.9292412426972589e+02  9.9115043164187966e+02  9.9374483351124707e+02  9.9316014627679874e+02  9.9092859332969829e+02  9.8805332627365817e+02  9.8545559608535757e+02  9.8355414283248581e+02  9.7901642712501950e+02  9.7787072582309634e+02  9.7294985240467986e+02  9.7137651584666412e+02  9.6654435734135825e+02  9.6512622409926212e+02  9.5952696505549909e+02  9.5866762757354354e+02  9.5331248155349908e+02  9.5169515204657012e+02  9.4638976110513318e+02  9.4457571410000730e+02  9.4024338646284639e+02  9.3754492882558168e+02  9.3378297365585593e+02  9.2921296079097033e+02  9.2790873415680585e+02  9.2135234389725042e+02  9.2204285597550654e+02  9.1480175619497936e+02  9.1393146769209284e+02  9.0951355497252484e+02  9.0492534001227614e+02  9.0388460708738432e+02  8.9793218010305350e+02  8.9595781920394074e+02  8.9307419184327784e+02  8.8736892656706334e+02  8.8461650402513737e+02  8.8171080070325445e+02  8.7704055085056052e+02  8.7537047570711240e+02  8.6937757405147761e+02  8.6772644644516004e+02  8.6353566686561646e+02  8.5890191150549765e+02  8.5682628269426755e+02  8.5148589068191279e+02  8.4980974270041281e+02  8.4483380242376586e+02  8.2424322610417562e+02  8.2192825878820690e+02  8.4664494234568303e+02  8.4966699161014310e+02  8.5179381652483369e+02  8.5656984770017255e+02  8.6004921087968341e+02  8.6265000671237920e+02  8.6844388335767792e+02  8.6938379059869771e+02  8.7526043363149722e+02  8.7655672160118661e+02  8.8274925661198415e+02  8.8355782705442459e+02  8.8905444758412159e+02  8.9121444954120886e+02  8.9665861920025918e+02  8.9758832324106504e+02  9.0352232333599829e+02  9.0509147903481073e+02  9.1020481165593685e+02  9.1216952587009905e+02  9.1729367039654881e+02  9.1881548017461012e+02  9.2472438120688491e+02  9.2577364984656253e+02  9.3111213954042569e+02  9.3282385212608710e+02  9.3821913458226925e+02  9.3934314191332498e+02  9.4508796267713205e+02  9.4656808139502289e+02  9.5163774754116696e+02  9.5329522029753321e+02  9.5832254410950111e+02  9.5993289601521803e+02  9.6535937878994014e+02  9.6640396349861419e+02  9.7147909268282774e+02  9.7294140463869610e+02  9.7794615602991053e+02  9.7910083916563428e+02  9.8354377551168557e+02  9.8554976274179660e+02  9.8816309263374978e+02  9.9112091562371779e+02  9.9320486351647719e+02  9.9381319921596332e+02  0.0000000000000000e+00  0.0000000000000000e+00  0.0000000000000000e+00  0.0000000000000000e+00  0.0000000000000000e+00  0.0000000000000000e+00  0.0000000000000000e+00  0.0000000000000000e+00  0.0000000000000000e+00  0.0000000000000000e+00  0.0000000000000000e+00  0.0000000000000000e+00  0.0000000000000000e+00  0.0000000000000000e+00  0.0000000000000000e+00  0.0000000000000000e+00  0.0000000000000000e+00  0.0000000000000000e+00  0.0000000000000000e+00  0.0000000000000000e+00  0.0000000000000000e+00  0.0000000000000000e+00  0.0000000000000000e+00  0.0000000000000000e+00  0.0000000000000000e+00  0.0000000000000000e+00  0.0000000000000000e+00  0.0000000000000000e+00  0.0000000000000000e+00  0.0000000000000000e+00  0.0000000000000000e+00  0.0000000000000000e+00  0.0000000000000000e+00  0.0000000000000000e+00  0.0000000000000000e+00  0.0000000000000000e+00  0.0000000000000000e+00  0.0000000000000000e+00  0.0000000000000000e+00  0.0000000000000000e+00  0.0000000000000000e+00  0.0000000000000000e+00  0.0000000000000000e+00  0.0000000000000000e+00  0.0000000000000000e+00  0.0000000000000000e+00  0.0000000000000000e+00  0.0000000000000000e+00  0.0000000000000000e+00  0.0000000000000000e+00  0.0000000000000000e+00  0.0000000000000000e+00  0.0000000000000000e+00  0.0000000000000000e+00  0.0000000000000000e+00  0.0000000000000000e+00  0.0000000000000000e+00  0.0000000000000000e+00  0.0000000000000000e+00  0.0000000000000000e+00  0.0000000000000000e+00  0.0000000000000000e+00  0.0000000000000000e+00  0.0000000000000000e+00  0.0000000000000000e+00  0.0000000000000000e+00  0.0000000000000000e+00  0.0000000000000000e+00  0.0000000000000000e+00  0.0000000000000000e+00  0.0000000000000000e+00  0.0000000000000000e+00  0.0000000000000000e+00  0.0000000000000000e+00  0.0000000000000000e+00  0.0000000000000000e+00  0.0000000000000000e+00  0.0000000000000000e+00  0.0000000000000000e+00  0.0000000000000000e+00  0.0000000000000000e+00  0.0000000000000000e+00  0.0000000000000000e+00  0.0000000000000000e+00  0.0000000000000000e+00  0.0000000000000000e+00  0.0000000000000000e+00  0.0000000000000000e+00  0.0000000000000000e+00  0.0000000000000000e+00  0.0000000000000000e+00  0.0000000000000000e+00  0.0000000000000000e+00  0.0000000000000000e+00  0.0000000000000000e+00  0.0000000000000000e+00  0.0000000000000000e+00  0.0000000000000000e+00  0.0000000000000000e+00  0.0000000000000000e+00  0.0000000000000000e+00  0.0000000000000000e+00  0.0000000000000000e+00  0.0000000000000000e+00  0.0000000000000000e+00  0.0000000000000000e+00  0.0000000000000000e+00  0.0000000000000000e+00  0.0000000000000000e+00  0.0000000000000000e+00  0.0000000000000000e+00  0.0000000000000000e+00  0.0000000000000000e+00  0.0000000000000000e+00  0.0000000000000000e+00  0.0000000000000000e+00  0.0000000000000000e+00  0.0000000000000000e+00  0.0000000000000000e+00  0.0000000000000000e+00  0.0000000000000000e+00  0.0000000000000000e+00  0.0000000000000000e+00  9.8519784548016673e+02  9.8303627923288491e+02  7.5776630719799311e+02  9.3937801003406162e+02  8.9747036442572278e+02  9.4368650304317600e+02  8.4875196439988451e+02  9.0087020666604690e+02  1.0921525581378633e+03  8.6127226404627811e+02  1.0970239010755820e+03  1.0601653595681025e+03  1.0211914762323925e+03  1.0570000198126440e+03  1.1052910090714024e+03  1.0229501926176516e+03  9.9102208139609763e+02  9.9104975479044560e+02  1.1053189967817218e+03  9.7296228602924498e+02  9.7294542388479590e+02  9.5200179964881363e+02  7.9734960324690121e+02  9.5221085969543469e+02  9.3247597659405506e+02  9.0801984379364058e+02  9.3147819404981863e+02  9.1078739711835340e+02  8.8907156283512199e+02  8.7188681879389890e+02  8.6868790065121664e+02  1.0815521837612478e+03  8.4953540124861661e+02  1.0815897246684929e+03  8.5169111848299337e+02  8.1636178544698339e+02  1.0078898447683126e+03  1.0070630485029727e+03  8.1826161696386362e+02  8.2338034942943216e+02  8.8910124980968794e+02  1.1007539816128672e+03  1.0375966475610408e+03  1.0488758907729521e+03  6.5976292057585670e+02  1.0640108517713268e+03  1.0905884926014048e+03  1.0902357440153135e+03  5.7471445550129295e+02  9.1850734550364791e+02  9.8129540605376314e+02  8.2438076996083430e+02  9.8135554011538125e+02  9.6275297474880881e+02  9.4250441933112370e+02  1.0648694383584752e+03  1.0316913321446025e+03  9.6290926597035957e+02  8.6551172271460200e+02  9.4249822095152194e+02  1.0234787877532571e+03  7.8873008967003466e+02  9.2164479302645873e+02  1.0775048691520280e+03  4.8784441634211595e+02  9.0094253376934728e+02  8.7940824023864764e+02  9.6318302201240874e+02  8.5881110027262616e+02  9.0006108448984594e+02  8.8011339588726105e+02  8.4384863173789677e+02  1.0954117410118613e+03  8.2976952463389671e+02  3.8559554783804191e+02  8.2774471132646408e+02  9.6326306081391783e+02  1.0775249325430727e+03  8.5351398439165678e+02  1.1191030482319334e+03  1.1231083311786585e+03  1.0881052652098517e+03  9.9260292466909482e+02  9.9781245413432748e+02  9.9247331409272147e+02  9.9884834767453310e+02  9.2267723410642850e+02  8.4265012017129845e+02  9.7210307965327343e+02  9.2893240865953840e+02  1.1208087352106361e+03  9.7245732647681609e+02  1.0750637722553251e+03  2.8433931908642160e+02  9.5224775270368821e+02  7.7480328368528603e+02  8.2944808751908533e+02  8.7856819531409917e+02  1.1101867766069502e+03  9.5261788964267066e+02  9.3217184166409743e+02  1.1049426074624014e+03  9.9711960552593405e+02  1.0378225060856275e+03  1.0961664580912607e+03  9.1109409462565816e+02  1.0479088101246259e+03  8.9037224250947440e+02  9.7498393952619983e+02  9.1743592912978363e+02  7.0598794782191158e+02  7.0649568037451070e+02  8.6858115838785034e+02  2.1370823775114596e+02  1.0964542717638501e+03  9.1183004720235556e+02  1.0478381404210400e+03  8.7577661414768409e+02  9.8778550412626169e+02  1.0164609985284627e+03  8.2962611492460530e+02  8.2292160422766801e+02  9.8766403956831698e+02  1.0814093088135169e+03  8.9017672071592438e+02  9.7138825673143424e+02  9.9791579260678088e+02  8.3472672753959728e+02  1.2060031059150225e+02  1.0944590151266359e+03  1.0087226066083211e+03  8.7231410380310354e+02  6.1911990940391024e+02  6.2322767156643454e+02  9.3538931912517671e+02  9.2136560621526257e+02  9.2071306964845746e+02  1.0430227047025944e+03  1.0017759820299981e+03  8.5112303977493343e+02  9.8281926095650374e+02  9.3082487506779694e+02  1.0774436204336027e+03  1.0700730850747698e+03  8.6172049084311891e+02  7.4704747264844593e+02  9.8383873799694970e+02  9.2641542315071410e+02  1.0890757340246369e+03  9.9420741708731271e+02  8.2796599485867807e+02  9.0552256398438033e+02  9.9382144438429361e+02  1.0637388014721009e+03  1.1107811148252920e+03  8.8527110424853936e+02  5.2783670531186942e+02  5.3920265520619137e+02  9.4173833472565241e+02  9.6579743512486584e+02  9.5934573394930146e+02  1.0886276515971265e+03  9.6291860251666094e+02  9.5914538264762280e+02  9.6601317167091179e+02  9.4524298577763875e+02  9.7820531117295582e+02  9.4584880638301331e+02  9.3907471957857035e+02  6.6352501985848596e+02  6.5883393971286978e+02  1.0297672835223200e+03  1.1203838236893562e+03  9.7835507204206647e+02  9.6365304010477462e+02  9.1807242513019685e+02  9.2508656245239240e+02  9.5241453676640833e+02  9.0417771515142078e+02  8.9747755956334902e+02  1.0979355988234283e+03  7.8764117538860080e+02  8.7591964943456821e+02  8.8278911886863830e+02  1.0970066804688061e+03  1.0250306455839768e+03  9.4134255326785433e+02  8.6163411083644348e+02  8.0201007605736481e+02  7.7293063587769916e+02  1.0508611363153057e+03  4.4387522688049347e+02  4.5081043126253905e+02  1.1078105545354470e+03  1.0392246537757080e+03  1.0180737155048495e+03  8.9744356134343502e+02  9.0448281544924055e+02  1.0940494692974287e+03  9.2273273383906394e+02  8.8232311521759505e+02  1.1143244243363977e+03  1.0066406680134572e+03  8.8723976752092062e+02  9.5439542678527846e+02  8.4064712465557659e+02  8.3390019387612153e+02  1.0638344828120632e+03  1.0523268053882637e+03  8.9964731352082379e+02  8.5959149359215962e+02  1.0203697268726563e+03  1.1180058937534723e+03  1.0077070769447952e+03  1.0902980426486752e+03  8.8005177519011295e+02  8.5582088497059783e+02  8.4821365975213473e+02  8.3222913659910330e+02  9.7679730513968241e+02  1.0713685880869020e+03  9.8434552383659047e+02  1.0993713223433417e+03  9.9942473550770774e+02  5.8219045117486132e+02  5.7821753522048346e+02  9.8440708926146397e+02  1.0309653081740908e+03  1.0699863242141894e+03  8.5916249038689568e+02  3.2161913720606623e+02  3.4707619794409368e+02  8.4131749055221064e+02  9.7621823274003475e+02  9.9577785277563544e+02  1.1088075803604306e+03  8.0545349915610393e+02  9.9568599425889715e+02  9.1312634535753966e+02  7.3982996311982072e+02  9.9964897211150844e+02  1.0177612902986056e+03  1.1030247599616491e+03  8.0678195456400442e+02  1.0557014143636195e+03  1.0349571695156797e+03  8.5167350640040775e+02  8.1119190663040786e+02  9.3181651803556372e+02  8.0077325868528908e+02  1.0896814932929515e+03  9.4810265481137560e+02  1.0036349915106206e+03  1.0160816160074878e+03  9.3366028151623107e+02  1.0772202197740337e+03  8.8874507324664239e+02  1.0926257346680748e+03  7.1926947980228601e+02  8.9795330651853249e+02  9.0501332562655693e+02  8.8239143401445222e+02  1.1087531185085097e+03  9.5468346199371729e+02  1.0951996510152824e+03  8.2628609500058622e+02  8.7506770847380346e+02  2.5668639394410184e+02  2.5275328746865648e+02  9.7210380806874116e+02  9.2807412166612369e+02  4.7803734979065683e+02  4.8176673098546900e+02  1.0931262514942255e+03  9.7200369826152860e+02  9.0715447887854691e+02  5.6586575068752929e+01  8.9220390475826468e+02  9.9078102873657792e+02  9.5260074554855044e+02  1.1042523234071903e+03  9.0845911964074196e+02  9.9094245261690912e+02  1.0872378026034021e+03  9.5237635699186148e+02  1.0552694041683139e+03  9.1434141878900584e+02  1.1008292062124449e+03  1.1168029026921863e+03  9.3183626222632745e+02  1.0854559346684077e+03  1.0779432951152232e+03  9.9406396358944812e+02  9.1119567403511451e+02  9.4091049640219092e+02  8.9006624539187146e+02  1.1353042195068213e+03  8.6050236798105186e+02  8.7304307194156650e+02  9.4527988410025739e+02  1.0077576276371873e+03  3.9123172214422726e+02  3.8678060996928849e+02  8.6895001128787408e+02  1.0905318476327561e+03  9.9211901942757947e+02  8.4648998392534122e+02  1.0748363928384924e+03  8.3010492427845065e+02  1.1181108826974485e+03  8.1633212090193922e+02  8.7731343055887498e+02  9.5263390704780898e+02  8.6722752013961554e+02  1.0839558781128885e+03  8.6721338195405576e+02  9.9261048619245901e+02  1.0893342945198597e+03  1.5926718832820723e+02  1.6103033436579290e+02  9.2512346747433298e+02  1.0397202020400973e+03  1.0738870025828539e+03  8.5596185105755183e+02  7.9822504637495433e+02  1.1312324641513565e+03  7.7148349116924032e+02  1.0552252145500486e+03  9.3545553012137134e+02  1.1099146624335972e+03  9.7642647619560694e+02  6.3896286790304728e+01  9.7429822795467840e+02  6.2920267147561890e+02  1.1044178660239368e+03  7.4791024023452303e+02  7.7881838374976269e+02  1.0294336881639069e+03  9.7103481621562457e+02  1.0584354037353612e+03  9.8624690898652955e+02  9.9412425877045962e+02  1.0467233139672542e+03  9.7684688087275038e+02  9.9422827592073395e+02  1.0580370915544404e+03  1.0236079264292218e+03  1.0398389844484700e+03  7.2364440557826595e+02  8.5636511025468042e+02  1.0673844115891695e+03  8.3539788941335405e+02  1.1202975507881590e+03  1.0566673179862846e+03  9.8588885694206613e+02  8.1653872042899570e+02  9.0108281914267184e+02  9.9461764692138718e+02  9.9903731884497847e+02  8.4687062587606488e+02  9.6791020332764333e+02  8.9004819825086270e+02  9.9955338362664179e+02  1.0775659873023719e+03  1.1281925816645553e+03  1.1269079938236723e+03  1.0824286376710736e+03  1.0695519143517593e+03  1.1039202175000414e+03  9.8057507279173967e+02  1.0094956676299620e+03  1.0924899522877083e+03  9.6248961407041259e+02  8.7619196317352498e+02  1.0916930444802101e+03  1.1132417109532598e+03  1.1101249074138459e+03  8.5891653666274703e+02  9.6232984256796033e+02  7.0158367818764918e+02  9.6837052266440469e+02  6.9773960644382953e+02  7.3691019294333478e+02  1.0225552102698256e+03  9.4226367426776505e+02  1.0931074584331861e+03  3.1053021642942434e+02  3.1646049176034700e+02  1.0955506773661903e+03  8.4279344738706561e+02  9.5765328393363075e+02  9.2138685152801133e+02  9.3089536303714215e+02  1.0828517035565249e+03  1.0697588010642457e+03  9.4786841749809901e+02  9.0082712056957337e+02  8.7938046209142351e+02  8.4912220847943377e+02  9.5073915882521192e+02  9.8558609632316188e+02  9.4909208635389507e+02  1.0555084112159111e+03  1.0510167536208112e+03  8.3583681504558876e+02  9.6209040751386374e+02  1.0293273431004900e+03  8.2434360205425310e+02  1.1202446652959709e+03  9.8472002256881603e+02  1.0844423754966299e+03  9.5759716696334431e+02  9.2981247968562002e+02  9.0751175049519782e+02  9.0044114915806915e+02  5.4164301214817533e+02  8.2604778315020212e+02  1.0029932140472846e+03  9.4861627705080173e+02  1.0046171144385266e+03  1.0326316564662916e+03  6.9591463430267811e+02  9.8729929791703023e+02  6.3645800491180012e+02  1.0067998881454587e+03  1.0476898005429950e+03  1.1330831710636644e+03  9.3646785595199208e+02  1.0843935177890603e+03  9.8751182175363431e+02  6.3315590999926940e+02  9.9086116139726460e+02  7.9944712171394099e+02  8.1800455200101703e+02  8.2537571322725773e+02  1.0097724624718003e+03  1.1119019348875670e+03  9.2790667360775069e+02  1.0466578227757050e+03  1.0794280444440760e+03  1.0386363020581152e+03  1.0731920605138316e+03  8.4238374269267854e+02  1.0111816927493014e+03  1.0702103815438652e+03  1.0701735567802793e+03  1.0171754239271160e+03  1.1023273566503592e+03  9.1369326069126225e+02  1.1036933448721454e+03  9.8157141284655779e+02  1.0834715973220295e+03  1.0916596606710759e+03  1.0950369589605702e+03  1.0562179669334071e+03  7.7058790601262285e+02  9.8168078939011127e+02  9.6978731025174829e+02  9.1547908493485272e+02  9.0408041884981265e+02  1.0904356549094464e+03  8.9210524163545301e+02  9.0677234435685273e+02  1.0028077951601275e+03  9.8542203301297559e+02  9.8794521483629364e+02  8.9455897347114490e+02  1.0250567909212325e+03  1.0143530120991915e+03  9.8850138924200