<?xml version="1.0"?>
<VTKFile type="UnstructuredGrid"  version="0.1"  >
<UnstructuredGrid>
<Piece  NumberOfPoints="1419" NumberOfCells="2698">
<Points>
<DataArray  type="Float64"  NumberOfComponents="3"  format="ascii">0 0 0  0 0.41 0  2.5 0 0  2.5 0.41 0  0.6 0.19 0  0.6 0.21 0  0.25 0.2 0  0.15 0.2 0  0.2489897948556636 0.21 0  0.2489897948556636 0.19 0  0.6 0.2 0  0 0.3807142857143437 0  0 0.3514285714286952 0  0 0.3221428571430699 0  0 0.29285714285744 0  0 0.2635714285718054 0  0 0.2342857142861561 0  0 0.2050000000005308 0  0 0.175714285714732 0  0 0.1464285714289574 0  0 0.1171428571431897 0  0 0.08785714285737878 0  0 0.05857142857161107 0  0 0.02928571428580012 0  0.03015443760436003 0 0  0.06140001986583606 0 0  0.09377624077125973 0 0  0.1273239957535082 0 0  0.1620856860351972 0 0  0.1981052433264291 0 0  0.235428184091502 0 0  0.2741016576309132 0 0  0.3141745521465447 0 0  0.3556974926295285 0 0  0.3987229542472677 0 0  0.4433053055141081 0 0  0.4895008759286886 0 0  0.5373680609405097 0 0  0.5869673343216626 0 0  0.6383613676634521 0 0  0.6916151138468254 0 0  0.7467958595648856 0 0  0.8039733463919316 0 0  0.8632198139502143 0 0  0.9246101326867038 0 0  0.9882218810934433 0 0  1.054135445558498 0 0  1.122434100542598 0 0  1.193204177141305 0 0  1.266535089879536 0 0  1.342519516046404 0 0  1.421253448503939 0 0  1.502836389106271 0 0  1.587371439758838 0 0  1.674965418777374 0 0  1.765729001825544 0 0  1.859776908880082 0 0  1.957227977487062 0 0  2.058205329869943 0 0  2.162836591189951 0 0  2.271253957290865 0 0  2.383594446803425 0 0  2.5 0.1024999999997612 0  2.5 0.2049999999994743 0  2.5 0.3074999999997183 0  2.383594446803656 0.41 0  2.271253957291315 0.41 0  2.162836591190598 0.41 0  2.058205329870775 0.41 0  1.957227977488067 0.41 0  1.859776908881246 0.41 0  1.765729001826854 0.41 0  1.674965418778818 0.41 0  1.58737143976041 0.41 0  1.502836389107956 0.41 0  1.421253448505726 0.41 0  1.342519516048286 0.41 0  1.266535089881505 0.41 0  1.193204177143353 0.41 0  1.122434100544716 0.41 0  1.05413544556068 0.41 0  0.9882218810956305 0.41 0  0.9246101326886647 0.41 0  0.8632198139519631 0.41 0  0.8039733463934788 0.41 0  0.7467958595662458 0.41 0  0.6916151138480078 0.41 0  0.6383613676644679 0.41 0  0.5869673343225223 0.41 0  0.5373680609412221 0.41 0  0.4895008759292634 0.41 0  0.4433053055145528 0.41 0  0.3987229542475914 0.41 0  0.3556974926297398 0.41 0  0.3141745521466497 0.41 0  0.2741016576310038 0.41 0  0.2354281840915826 0.41 0  0.1981052433265003 0.41 0  0.1620856860352591 0.41 0  0.1273239957535623 0.41 0  0.09377624077128965 0.41 0  0.06140001986584975 0.41 0  0.03015443760436654 0.41 0  0.2497468076502589 0.2050254481002335 0  0.2497468076502614 0.1949745518997913 0  0.2469965252529372 0.1829317073451959 0  0.2439893735792749 0.1762316384219906 0  0.2400332147834255 0.1700443375285386 0  0.2352133972704371 0.1645032867342007 0  0.2296339016332438 0.1597280261969788 0  0.2234150974217223 0.1558215752574715 0  0.2166911463437691 0.1528682099456123 0  0.2096071079204251 0.1509316448471593 0  0.2023158100364996 0.1500536585536553 0  0.194974551899914 0.1502531923497262 0  0.1877417105387872 0.1515259415822739 0  0.1807733240461124 0.153844448527136 0  0.1742197252835808 0.15715869474974 0  0.1682222986673531 0.1613971801805478 0  0.162910430003803 0.1664684656256651 0  0.1583987151779087 0.1722631454351573 0  0.1547844879126891 0.178656207771761 0  0.1521457199348551 0.1855097315605723 0  0.1505393388476355 0.1926758619366523 0  0.1505393388476328 0.2073241380633295 0  0.1521457199348437 0.2144902684393899 0  0.1547844879126531 0.221343792228163 0  0.1583987151778488 0.2277368545647528 0  0.1629104300036858 0.2335315343742052 0  0.1682222986671726 0.2386028198193036 0  0.1742197252833576 0.2428413052501257 0  0.1807733240458683 0.2461555514727623 0  0.1877417105384929 0.2484740584176516 0  0.1949745518995776 0.2497468076502398 0  0.202315810036185 0.2499463414463592 0  0.2096071079201568 0.2490683551528932 0  0.2166911463435495 0.2471317900544655 0  0.2234150974215506 0.2441784247426195 0  0.2296339016331197 0.2402719738031125 0  0.2352133972703547 0.2354967132658811 0  0.2400332147833751 0.2299556624715287 0  0.2439893735792577 0.2237683615780412 0  0.246996525252926 0.2170682926548348 0  0.25645809709277 0.21 0  0.2639263993298655 0.21 0  0.271394701566961 0.21 0  0.2788630038040554 0.21 0  0.2863313060411479 0.21 0  0.2937996082782405 0.21 0  0.301267910515333 0.21 0  0.3087362127524279 0.21 0  0.3162045149895234 0.21 0  0.3236728172265972 0.21 0  0.3311411194636928 0.21 0  0.3386094217007701 0.21 0  0.3460777239378666 0.21 0  0.3535460261749672 0.21 0  0.3610143284120516 0.21 0  0.3684826306491596 0.21 0  0.3759509328862226 0.21 0  0.383419235123329 0.21 0  0.3908875373604028 0.21 0  0.3983558395975142 0.21 0  0.4058241418345938 0.21 0  0.4132924440716992 0.21 0  0.4207607463087888 0.21 0  0.4282290485459029 0.21 0  0.4356973507830418 0.21 0  0.4431656530201649 0.21 0  0.4506339552573136 0.21 0  0.4581022574944306 0.21 0  0.4655705597315852 0.21 0  0.4730388619686996 0.21 0  0.480507164205851 0.21 0  0.4879754664429498 0.21 0  0.4954437686800938 0.21 0  0.502912070917267 0.21 0  0.5103803731544119 0.21 0  0.5178486753915261 0.21 0  0.5253169776286404 0.21 0  0.5327852798657868 0.21 0  0.5402535821029386 0.21 0  0.54772188434007 0.21 0  0.5551901865771842 0.21 0  0.5626584888143201 0.21 0  0.5701267910514778 0.21 0  0.5775950932886138 0.21 0  0.5850633955257281 0.21 0  0.5925316977628483 0.21 0  0.6 0.2050000000000054 0  0.6 0.1950000000000217 0  0.5925316977628897 0.19 0  0.5850633955257988 0.19 0  0.5775950932887378 0.19 0  0.5701267910515998 0.19 0  0.5626584888145268 0.19 0  0.5551901865773963 0.19 0  0.547721884340339 0.19 0  0.5402535821032429 0.19 0  0.5327852798661811 0.19 0  0.5253169776290537 0.19 0  0.5178486753919799 0.19 0  0.5103803731549078 0.19 0  0.502912070917822 0.19 0  0.4954437686807294 0.19 0  0.4879754664436223 0.19 0  0.4805071642065402 0.19 0  0.4730388619694271 0.19 0  0.4655705597323621 0.19 0  0.4581022574952563 0.19 0  0.4506339552581777 0.19 0  0.4431656530210671 0.19 0  0.4356973507839815 0.19 0  0.4282290485468779 0.19 0  0.4207607463097617 0.19 0  0.4132924440726327 0.19 0  0.4058241418354857 0.19 0  0.3983558395983636 0.19 0  0.3908875373612097 0.19 0  0.3834192351240934 0.19 0  0.3759509328869369 0.19 0  0.3684826306498175 0.19 0  0.361014328412667 0.19 0  0.3535460261755617 0.19 0  0.3460777239384295 0.19 0  0.3386094217012945 0.19 0  0.3311411194641595 0.19 0  0.3236728172270245 0.19 0  0.3162045149898895 0.19 0  0.3087362127527544 0.19 0  0.3012679105156187 0.19 0  0.2937996082784807 0.19 0  0.2863313060413428 0.19 0  0.2788630038042048 0.19 0  0.2713947015670686 0.19 0  0.2639263993299336 0.19 0  0.2564580970927985 0.19 0  0.2607803159922026 0.2000727136295815 0  0.5887803774232762 0.2001272386983733 0  0.5745072403740523 0.2002044435018727 0  0.5511891430099709 0.2001122610077113 0  0.2751288526855082 0.20000000000002 0  0.5365194309847112 0.1999999999999436 0  0.2894621222999649 0.1998691686390484 0  0.5215828265105155 0.1999999999999228 0  0.3127789816668748 0.1998657885438805 0  0.3274069683451451 0.2000000000000796 0  0.5066462220363641 0.199999999999908 0  0.3650630746574081 0.199866017807523 0  0.476773013087985 0.1999999999998713 0  0.3417402379596385 0.1998691686391011 0  0.3796850840047755 0.200000000000134 0  0.4618364086138087 0.1999999999998546 0  0.4917096175621762 0.1999999999998808 0  0.3946216884789568 0.2000000000001512 0  0.446899804139621 0.1999999999998389 0  0.4089549580935208 0.1998691686391595 0  0.4322718174608562 0.200127451265745 0  0.4201487168029707 0.1999966199048527 0  0.3528922713220932 0.2000185703532356 0  0.5633122436674589 0.1999814296467508 0  0.3006558810093873 0.1999966199048318 0  0.5815926498168407 0.1966545283159175 0  0.2677053789419034 0.1964246479135325 0  0.5290511287476175 0.1970915826863981 0  0.5439877332217911 0.197091582686394 0  0.2825131256993216 0.2035478995978015 0  0.3199386661080599 0.202908417313604 0  0.4842413153250809 0.1970915826863873 0  0.5141145242734466 0.1970915826863843 0  0.3722167817676917 0.2029084173136195 0  0.4693047108508938 0.1970915826863783 0  0.3348752705822316 0.202908417313609 0  0.3871533862418661 0.2029084173136212 0  0.4543681063767183 0.1970915826863795 0  0.4991779197992749 0.1970915826863902 0  0.4020059614928624 0.203547899597858 0  0.4394315019025246 0.1970915826863714 0  0.2550657455369551 0.2034088125358657 0  0.2548908499171161 0.1966940311614271 0  0.5946539510196798 0.2024302972968126 0  0.267698176732111 0.2039977513680092 0  0.4261685417851465 0.196409292431739 0  0.3590076176283495 0.196411355804271 0  0.5571672426447437 0.2036011176410121 0  0.3066757059912147 0.1964092924317024 0  0.594380730180568 0.1966558399668133 0  0.4842413153245942 0.2040749161535287 0  0.4693047108503577 0.2040749161535231 0  0.3871533862424271 0.1959250838464788 0  0.372246743208829 0.1959123236376545 0  0.5141145242731028 0.2040749161535395 0  0.4543681063761134 0.2040749161535186 0  0.4019979587101454 0.1959834479682427 0  0.4394608940728603 0.2040870543693135 0  0.5439623148931173 0.2040856076781014 0  0.5290511287473298 0.2040749161535501 0  0.4991779197988497 0.2040749161535382 0  0.3347912413592433 0.1959225448935183 0  0.3199680582793816 0.1959123018030061 0  0.2825051229162361 0.1959834479681729 0  0.3590471196690275 0.2036304442587945 0  0.5571594006495384 0.1963685282145804 0  0.3067669986803285 0.203627750582736 0  0.4262598344738712 0.2036568242185335 0  0.5814408164431408 0.2041285596160068 0  0.5688286748170428 0.1961819304477386 0  0.4145905603063645 0.2038180695522843 0  0.3473758401724931 0.2038180695522752 0  0.2950977245128307 0.2038180695522663 0  0.5688286748170693 0.203818069552238 0  0.2950977245127906 0.1961819304477774 0  0.3473758401723931 0.1961819304478349 0  0.4145905603061963 0.1961819304479011 0  0.2601812407614425 0.2056861609747042
[...]
<PointData  Scalars="f_40-2"> 
<DataArray  type="Float64"  Name="f_40-2"  format="ascii">2.3992458483448236e+03  2.4080123004113880e+03  0.0000000000000000e+00  0.0000000000000000e+00  1.7686923890193650e+03  1.7672182753737291e+03  0.0000000000000000e+00  2.3967965210037833e+03  2.1320606921695721e+03  2.1323699275254030e+03  1.7533603810883853e+03  2.3985384241128277e+03  2.4194239501809152e+03  2.4327684990866869e+03  2.4534622302047301e+03  2.4685309973887488e+03  2.4781312788388623e+03  2.4872353806774249e+03  2.4857566886535524e+03  2.4746197405009771e+03  2.4551012012461056e+03  2.4419358834362670e+03  2.4109467429915294e+03  2.4036170127508353e+03  2.4150554209504512e+03  2.3810172630983507e+03  2.3606965402458063e+03  2.3132390134452239e+03  2.2875258270864779e+03  2.2354984349481629e+03  2.1846068152251801e+03  2.1612398080369553e+03  2.0742112845904421e+03  2.0689351996954256e+03  1.9935974221123331e+03  1.9770430035838237e+03  1.8959332471661119e+03  1.8719660933753071e+03  1.8186729180869515e+03  1.7752754891652569e+03  1.7134326365440852e+03  1.6698662362926916e+03  1.5919737211060087e+03  1.5688002765720119e+03  1.5163427689780076e+03  1.3925195683215397e+03  1.4151783009959254e+03  1.3275351091620482e+03  1.2261424122351493e+03  1.2305873960032343e+03  1.0930212402852019e+03  1.0503414350577409e+03  9.9181226743152172e+02  8.9146508107600368e+02  7.8502010676750558e+02  7.1126598212190697e+02  6.1478997274200208e+02  5.5587902835994612e+02  4.0374608422572527e+02  3.2705787001448954e+02  2.3853483779458480e+02  9.7069900129695085e+01  0.0000000000000000e+00  0.0000000000000000e+00  0.0000000000000000e+00  1.0496496682821059e+02  2.2477607332795901e+02  3.3691002353973232e+02  3.9992125718594951e+02  5.5613526929665704e+02  6.1427307467195590e+02  6.9237778735737834e+02  7.8054941141825884e+02  8.9528914792593173e+02  9.5402031269260783e+02  1.0705692407871004e+03  1.0690174954654494e+03  1.2331646705889457e+03  1.2282548407703566e+03  1.2979881178797134e+03  1.4070169109755043e+03  1.3967773721479166e+03  1.5040350850923799e+03  1.5661392705886810e+03  1.6060747221779861e+03  1.6696251845269157e+03  1.7217744175525625e+03  1.7775218897120633e+03  1.8129832845257959e+03  1.8568837442288816e+03  1.9209875597786872e+03  1.9648524188790095e+03  2.0079687693486630e+03  2.0545532506240493e+03  2.0998616007969781e+03  2.1381811098872486e+03  2.1873412332686789e+03  2.2369358003039461e+03  2.2738608017605275e+03  2.3259583317546740e+03  2.3406981090678828e+03  2.3888586321250668e+03  2.3912823087913102e+03  0.0000000000000000e+00  0.0000000000000000e+00  2.1257862262827020e+03  2.1267148065450328e+03  2.1267625454894642e+03  2.1354568263670399e+03  2.1391870751553211e+03  2.1540825687149186e+03  2.1528639963296096e+03  2.1900392757029763e+03  2.1859013070169462e+03  2.2224691673510265e+03  2.2316943602851361e+03  2.2719695954714298e+03  2.2759461496719805e+03  2.3198134410357502e+03  2.3206434704034364e+03  2.3583330817542078e+03  2.3646161484970226e+03  2.3857113075764460e+03  2.3891533170261587e+03  2.3856495775062499e+03  2.3862077122844985e+03  2.3569507174573346e+03  2.3617887062700906e+03  2.3216373372583139e+03  2.3183785781297420e+03  2.2782949344710264e+03  2.2579509289021980e+03  2.2422597903971564e+03  2.2181867020047057e+03  2.1820322265079258e+03  2.1911203312647622e+03  2.1570338841378907e+03  2.1593713750218258e+03  2.1364166193872825e+03  2.1375591362612436e+03  2.1257622656022495e+03  2.1262352590510322e+03  2.1259812559249749e+03  2.1345626625280152e+03  2.1356642508795808e+03  2.1309849993124017e+03  2.1251091083342412e+03  2.1191265739536962e+03  2.1153295865733890e+03  2.1045171686414988e+03  2.1020581576355485e+03  2.0904556650253153e+03  2.0870416992513733e+03  2.0757151483463804e+03  2.0727677713557891e+03  2.0593992834194860e+03  2.0583827132496144e+03  2.0457644501716877e+03  2.0424524532856938e+03  2.0299527535637083e+03  2.0264132036374453e+03  2.0164903578997910e+03  2.0109760276386280e+03  2.0019183850870372e+03  1.9917623170664901e+03  1.9890385199976126e+03  1.9735555014359470e+03  1.9765511259090738e+03  1.9589304509773872e+03  1.9579585761586648e+03  1.9481128072456904e+03  1.9376779516278593e+03  1.9358080441460543e+03  1.9218165717424642e+03  1.9182044881971544e+03  1.9116280157989056e+03  1.8979161190140337e+03  1.8920178396805097e+03  1.8860783223612395e+03  1.8752593641742089e+03  1.8720686516774851e+03  1.8578652258808554e+03  1.8549344098154841e+03  1.8452430446979201e+03  1.8341025623112569e+03  1.8300918491769296e+03  1.8170158953237583e+03  1.8142855757135935e+03  1.8023761116501882e+03  1.7487875792323098e+03  1.7401294697872031e+03  1.8074693259770670e+03  1.8136592629244419e+03  1.8183407471751461e+03  1.8294118381048243e+03  1.8369873111351615e+03  1.8428924749067703e+03  1.8565173907644337e+03  1.8579507462282031e+03  1.8719025990003249e+03  1.8736989217581668e+03  1.8886888107610646e+03  1.8893821493047164e+03  1.9022053862099508e+03  1.9070138678121957e+03  1.9197217601559701e+03  1.9206748314845379e+03  1.9346448208695299e+03  1.9378848805229100e+03  1.9495691233444384e+03  1.9536911670384050e+03  1.9654589092759834e+03  1.9682036878502888e+03  1.9821108789410789e+03  1.9840471435850604e+03  1.9963737118804404e+03  1.9994372599511776e+03  2.0121234683050579e+03  2.0140017724450377e+03  2.0274814312569954e+03  2.0304261702145484e+03  2.0422294830434728e+03  2.0455663109553348e+03  2.0572657303596261e+03  2.0605373533063002e+03  2.0734226092182457e+03  2.0752344957437736e+03  2.0872508849920737e+03  2.0902574266738216e+03  2.1022552134998573e+03  2.1046688015148020e+03  2.1151953011213432e+03  2.1193618966297086e+03  2.1254087185077692e+03  2.1315334245419936e+03  2.1357951306726759e+03  2.1346956927589217e+03  0.0000000000000000e+00  0.0000000000000000e+00  0.0000000000000000e+00  0.0000000000000000e+00  0.0000000000000000e+00  0.0000000000000000e+00  0.0000000000000000e+00  0.0000000000000000e+00  0.0000000000000000e+00  0.0000000000000000e+00  0.0000000000000000e+00  0.0000000000000000e+00  0.0000000000000000e+00  0.0000000000000000e+00  0.0000000000000000e+00  0.0000000000000000e+00  0.0000000000000000e+00  0.0000000000000000e+00  0.0000000000000000e+00  0.0000000000000000e+00  0.0000000000000000e+00  0.0000000000000000e+00  0.0000000000000000e+00  0.0000000000000000e+00  0.0000000000000000e+00  0.0000000000000000e+00  0.0000000000000000e+00  0.0000000000000000e+00  0.0000000000000000e+00  0.0000000000000000e+00  0.0000000000000000e+00  0.0000000000000000e+00  0.0000000000000000e+00  0.0000000000000000e+00  0.0000000000000000e+00  0.0000000000000000e+00  0.0000000000000000e+00  0.0000000000000000e+00  0.0000000000000000e+00  0.0000000000000000e+00  0.0000000000000000e+00  0.0000000000000000e+00  0.0000000000000000e+00  0.0000000000000000e+00  0.0000000000000000e+00  0.0000000000000000e+00  0.0000000000000000e+00  0.0000000000000000e+00  0.0000000000000000e+00  0.0000000000000000e+00  0.0000000000000000e+00  0.0000000000000000e+00  0.0000000000000000e+00  0.0000000000000000e+00  0.0000000000000000e+00  0.0000000000000000e+00  0.0000000000000000e+00  0.0000000000000000e+00  0.0000000000000000e+00  0.0000000000000000e+00  0.0000000000000000e+00  0.0000000000000000e+00  0.0000000000000000e+00  0.0000000000000000e+00  0.0000000000000000e+00  0.0000000000000000e+00  0.0000000000000000e+00  0.0000000000000000e+00  0.0000000000000000e+00  0.0000000000000000e+00  0.0000000000000000e+00  0.0000000000000000e+00  0.0000000000000000e+00  0.0000000000000000e+00  0.0000000000000000e+00  0.0000000000000000e+00  0.0000000000000000e+00  0.0000000000000000e+00  0.0000000000000000e+00  0.0000000000000000e+00  0.0000000000000000e+00  0.0000000000000000e+00  0.0000000000000000e+00  0.0000000000000000e+00  0.0000000000000000e+00  0.0000000000000000e+00  0.0000000000000000e+00  0.0000000000000000e+00  0.0000000000000000e+00  0.0000000000000000e+00  0.0000000000000000e+00  0.0000000000000000e+00  0.0000000000000000e+00  0.0000000000000000e+00  0.0000000000000000e+00  0.0000000000000000e+00  0.0000000000000000e+00  0.0000000000000000e+00  0.0000000000000000e+00  0.0000000000000000e+00  0.0000000000000000e+00  0.0000000000000000e+00  0.0000000000000000e+00  0.0000000000000000e+00  0.0000000000000000e+00  0.0000000000000000e+00  0.0000000000000000e+00  0.0000000000000000e+00  0.0000000000000000e+00  0.0000000000000000e+00  0.0000000000000000e+00  0.0000000000000000e+00  0.0000000000000000e+00  0.0000000000000000e+00  0.0000000000000000e+00  0.0000000000000000e+00  0.0000000000000000e+00  0.0000000000000000e+00  0.0000000000000000e+00  0.0000000000000000e+00  0.0000000000000000e+00  0.0000000000000000e+00  0.0000000000000000e+00  2.1156201937736764e+03  2.1095883883641345e+03  1.6175010047583362e+03  2.0134353831513051e+03  1.9229833539502094e+03  2.0242531200174294e+03  1.8132815370116912e+03  1.9267046122180100e+03  2.3549074480714235e+03  1.8461391845222711e+03  2.3682854280258603e+03  2.2810689886857695e+03  2.1906413396861012e+03  2.2728116036484507e+03  2.3904056844466768e+03  2.1971626966947147e+03  2.1275957602141780e+03  2.1271190202724761e+03  2.3928555285374346e+03  2.0889357952175214e+03  2.0885560707258155e+03  2.0423881883376630e+03  1.7042770664625104e+03  2.0426040693960863e+03  1.9988599978067189e+03  1.9437092131834252e+03  1.9959268833683316e+03  1.9511746450270375e+03  1.9028245776616031e+03  1.8652553370486353e+03  1.8565539970656152e+03  2.3315766655226676e+03  1.8151765681477711e+03  2.3313833461774821e+03  1.8198655695827085e+03  1.7441415267920740e+03  2.1584280503210239e+03  2.1566125746029470e+03  1.7463254158731397e+03  1.7571887910266159e+03  1.9029768402564273e+03  2.3866452504892345e+03  2.2200309694760058e+03  2.2486165547449264e+03  1.4026050446066492e+03  2.2832730262810492e+03  2.3586710234046823e+03  2.3568462339570247e+03  1.2274736266475684e+03  1.9678893923028959e+03  2.1083903176557837e+03  1.7582338782423676e+03  2.1084776769769396e+03  2.0667394854779645e+03  2.0216210379207271e+03  2.2851327572114647e+03  2.2041214284570174e+03  2.0672714099759655e+03  1.8496594255975911e+03  2.0213636838501620e+03  2.1843614378795692e+03  1.6818903123446446e+03  1.9752383149376230e+03  2.3191469416850737e+03  1.0404976203037761e+03  1.9294621949062021e+03  1.8807483544395993e+03  2.0671401466945590e+03  1.8354972176522147e+03  1.9273212889062552e+03  1.8818146137439749e+03  1.8009029162796321e+03  2.3748212107801951e+03  1.7717636177269169e+03  8.1871693692063354e+02  1.7671693247255553e+03  2.0653328889746790e+03  2.3196460259027622e+03  1.8218954714081458e+03  2.4143934187657605e+03  2.4274621794853147e+03  2.3492417012481224e+03  2.1310909991547205e+03  2.1370882108991341e+03  2.1311510170878901e+03  2.1404652771898477e+03  1.9748923808260029e+03  1.7979961052788294e+03  2.0879882942801419e+03  1.9911711393805413e+03  2.4209130747686481e+03  2.0891286359575511e+03  2.3182863600799042e+03  6.0571198288694393e+02  2.0430852236780549e+03  1.6548655625299007e+03  1.7706027665689326e+03  1.8805261796669497e+03  2.3957539160553511e+03  2.0442503322559344e+03  1.9986203244501594e+03  2.3837957275960121e+03  2.1389448579129403e+03  2.2299800853669226e+03  2.3794885692914477e+03  1.9514150627227136e+03  2.2377860454353363e+03  1.9056318332389098e+03  2.0940736678424914e+03  1.9650003484274480e+03  1.5040335846292701e+03  1.5084488991012745e+03  1.8557691499169116e+03  4.5585869821713743e+02  2.3690203217553421e+03  1.9534385469611389e+03  2.2378638770452985e+03  1.8771661591585917e+03  2.1229551098323304e+03  2.1669698570840997e+03  1.7667165399377304e+03  1.7612598112563219e+03  2.1225167265380751e+03  2.3318188933523647e+03  1.9048751641849424e+03  2.0806816115355750e+03  2.1415986727239429e+03  1.7823789026866336e+03  2.5806577999634845e+02  2.3612347300925408e+03  2.1549532904844755e+03  1.8642862085599922e+03  1.3163053975465593e+03  1.3368965317420848e+03  2.0056144951131680e+03  1.9737538752562789e+03  1.9725358463552068e+03  2.2430405430152828e+03  2.1482632354827651e+03  1.8171543007481371e+03  2.1096791333656279e+03  1.9939340108430461e+03  2.3213756921031063e+03  2.3041542648316859e+03  1.8409530356443363e+03  1.5937085769887312e+03  2.1124740415749948e+03  1.9844866389447072e+03  2.3564253990617140e+03  2.1340399794787086e+03  1.7628627063383849e+03  1.9397364131610409e+03  2.1330571334998153e+03  2.2775847003837684e+03  2.4042095928157046e+03  1.8887921726937400e+03  1.1206842911162341e+03  1.1560169648981555e+03  2.0189204167025782e+03  2.0739776800002342e+03  2.0595124070461047e+03  2.3553063411800540e+03  2.0671811406348220e+03  2.0590799709983753e+03  2.0746231942371996e+03  2.0273338322668467e+03  2.1024050773640802e+03  2.0289878703161478e+03  2.0138874258122187e+03  1.4161748885410357e+03  1.4028268138832977e+03  2.1925502228246301e+03  2.4204148784677809e+03  2.1028614508306591e+03  2.0694264790314328e+03  1.9670115025912432e+03  1.9828516410022037e+03  2.0445287702080409e+03  1.9359623253816353e+03  1.9212991996999910e+03  2.3773086982725094e+03  1.6822443845606192e+03  1.8729875400998094e+03  1.8880177496400649e+03  2.3838531508544083e+03  2.2023603461490306e+03  2.0169066222838717e+03  1.8407779756786881e+03  1.7122456751490158e+03  1.6504553544619050e+03  2.2652447162851086e+03  9.4818244518689551e+02  9.6533750183959501e+02  2.3911518902510061e+03  2.2321858576318077e+03  2.1845276231764601e+03  1.9211758725970983e+03  1.9368890272829960e+03  2.3638393679406508e+03  1.9788368750555817e+03  1.8866711260240261e+03  2.4052705105968162e+03  2.1501747187726123e+03  1.8993312659761948e+03  2.0495040009647901e+03  1.7906555554824017e+03  1.7770336196879568e+03  2.2774950960422411e+03  2.2557908250024311e+03  1.9244719765376612e+03  1.8379289373432709e+03  2.1844083295821392e+03  2.4166054421862600e+03  2.1654187019481228e+03  2.3473400011070512e+03  1.8827841573434471e+03  1.8313272007413889e+03  1.8160471118949363e+03  1.7745478336252022e+03  2.0959200855149711e+03  2.3048594065377074e+03  2.1162434103249516e+03  2.3796385921605010e+03  2.1430554449163806e+03  1.2487888877229800e+03  1.2334410435321056e+03  2.1162238815606161e+03  2.1950709461858737e+03  2.3100083026213551e+03  1.8378908792740551e+03  6.7523594647390735e+02  7.3954383968530749e+02  1.7916384508984600e+03  2.0938840474345643e+03  2.1343921054577022e+03  2.3956737429746881e+03  1.7184945389860668e+03  2.1342065749889307e+03  1.9591097027186147e+03  1.5770995042765162e+03  2.1434301445772826e+03  2.1795450453199387e+03  2.3859989894499595e+03  1.7216634202901580e+03  2.2710732292169464e+03  2.2204658651071022e+03  1.8179904984819291e+03  1.7311366788135892e+03  1.9973211687643807e+03  1.7093887545291727e+03  2.3505410865965050e+03  2.0310839934217686e+03  2.1425398829250548e+03  2.1647556039251176e+03  1.9995786217686693e+03  2.3172066615822946e+03  1.9031471847728842e+03  2.3565175055871905e+03  1.5351660360943833e+03  1.9228959660094336e+03  1.9380552447405023e+03  1.8872152749219701e+03  2.3948555805606920e+03  2.0483711902003943e+03  2.3791257542875514e+03  1.7568337897633419e+03  1.8785080439561016e+03  5.5070403958662223e+02  5.4384040987112996e+02  2.0884400285030119e+03  1.9888020561629592e+03  1.0111903844931268e+03  1.0256666761721294e+03  2.3710476695919424e+03  2.0879377478003689e+03  1.9416805932363327e+03  1.1924055366740667e+02  1.9113216017981003e+03  2.1293972514402089e+03  2.0443804744683518e+03  2.3826779870232103e+03  1.9466960257481480e+03  2.1296547386134375e+03  2.3452324867522716e+03  2.0435768494576710e+03  2.2517313219360458e+03  1.9578494428704437e+03  2.3866177934467710e+03  2.4119892139365861e+03  1.9974330744176038e+03  2.3424762176383692e+03  2.3199018541501191e+03  2.1341093510295541e+03  1.9515989565652144e+03  2.0184970904269705e+03  1.9043133841323145e+03  2.4515135831015559e+03  1.8379282246164789e+03  1.8668510953539499e+03  2.0281246475450785e+03  2.1616914705772356e+03  8.3541757165867489e+02  8.1838773571223544e+02  1.8573453486230826e+03  2.3523038901551104e+03  2.1307976276219001e+03  1.8083817095954312e+03  2.3133529211012537e+03  1.7740593993960508e+03  2.4069895446356959e+03  1.7418122562538733e+03  1.8762912637243480e+03  2.0424472909619881e+03  1.8535020668021477e+03  2.3382340602097465e+03  1.8533516360169690e+03  2.1306795637023029e+03  2.3525514199348268e+03  3.3934738007793567e+02  3.4579907524552169e+02  1.9825648414588450e+03  2.2120709026285999e+03  2.3111281559400823e+03  1.8271461685135562e+03  1.7045872159043506e+03  2.4423811694705100e+03  1.6498317878582143e+03  2.2515571439445680e+03  2.0058825399297855e+03  2.3998492888581231e+03  2.0976468759882882e+03  1.3391691185847998e+02  2.0907528635277617e+03  1.3417897155969601e+03  2.3916429031162193e+03  1.5965604353319841e+03  1.6632636069786665e+03  2.2069831250040434e+03  2.0812470545722745e+03  2.2719667065409062e+03  2.1189517442322490e+03  2.1354291436565331e+03  2.2458724313818548e+03  2.0990018276324204e+03  2.1355076923950569e+03  2.2747567115694123e+03  2.1795886766252852e+03  2.2126638807745512e+03  1.5432904664957048e+03  1.8283255080197687e+03  2.2970890238183451e+03  1.7838376269800685e+03  2.4139936058195317e+03  2.2728663668436002e+03  2.1175389720351036e+03  1.7439976650666229e+03  1.9282994890074567e+03  2.1320310267383343e+03  2.1365458663768964e+03  1.8099169493615802e+03  2.0783693364219744e+03  1.9043868650493719e+03  2.1390300958166372e+03  2.3207702495758231e+03  2.4335408257411477e+03  2.4315478326395842e+03  2.3324883991430474e+03  2.2918474217638231e+03  2.3905678964134950e+03  2.1027772035907710e+03  2.1521658770637855e+03  2.3655361552983691e+03  2.0664662585663673e+03  1.8720186174786102e+03  2.3657463866909939e+03  2.4075941194694160e+03  2.3962985221024924e+03  1.8351706167859277e+03  2.0657179121949966e+03  1.5006020608059962e+03  2.0799926812006843e+03  1.4930645251138897e+03  1.5728528599075501e+03  2.1739356083784114e+03  2.0207613283207352e+03  2.3701662454505563e+03  6.6936324182704709e+02  6.8079120639760606e+02  2.3696671089251963e+03  1.8027067713027598e+03  2.0556939156879848e+03  1.9740833092314690e+03  1.9952353173976742e+03  2.3347268870753587e+03  2.2921828197778432e+03  2.0334188347808947e+03  1.9285792579815159e+03  1.8802947572731211e+03  1.8112621936570240e+03  2.0344257826211528e+03  2.1154670879231317e+03  2.0361711939674365e+03  2.2566742085131509e+03  2.2602995303012030e+03  1.7803213077510902e+03  2.0622059825012266e+03  2.2130309580108164e+03  1.7622440419766838e+03  2.4139296658675835e+03  2.1126318201419440e+03  2.3400919687404307e+03  2.0554307690880451e+03  1.9934530332246127e+03  1.9431415606518128e+03  1.9277256007691433e+03  1.1549323892356344e+03  1.7524389913656330e+03  2.1473005156700988e+03  2.0351145036775390e+03  2.1463227823950779e+03  2.2068363630836843e+03  1.4887191460351726e+03  2.1220933870720683e+03  1.3533122377872992e+03  2.1578573652194586e+03  2.2315802144349877e+03  2.4435415129718317e+03  2.0080344545654880e+03  2.3407943621257946e+03  2.1228347392241621e+03  1.3414533211944029e+03  2.1280055005938148e+03  1.7060010503137437e+03  1.7499164106402420e+03  1.7613773542215888e+03  2.1671702905545435e+03  2.4030848603333257e+03  1.9899923277583312e+03  2.2297345705412658e+03  2.3265263750395457e+03  2.2158570212104896e+03  2.3119196883484265e+03  1.7983410427701090e+03  2.1576676176345854e+03  2.2974706575676150e+03  2.2960886474239933e+03  2.1687983352705187e+03  2.3837819013647763e+03  1.9572171398018095e+03  2.3805132019492189e+03  2.1095874844386308e+03  2.3372750387350848e+03  2.3638477997005616e+03  2.3777329678031433e+03  2.2601955264250350e+03  1.6422827636061113e+03  2.1099481638668785e+03  2.0809545352390496e+03  1.9611174345176721e+03  1.9354839112175937e+03  2.3516078843252199e+03  1.9145531646837690e+03  1.9413302287993806e+03  2.1503592758442987e+03  2.1153874442471842e+03  2.1217986109328617e+03  1.9141494107480680e+03  2.1845340047670384e+03  2.1686743531688385e+03  2.1209923556773