<?xml version="1.0"?>
<VTKFile type="UnstructuredGrid"  version="0.1"  >
<UnstructuredGrid>
<Piece  NumberOfPoints="1419" NumberOfCells="2698">
<Points>
<DataArray  type="Float64"  NumberOfComponents="3"  format="ascii">0 0 0  0 0.41 0  2.5 0 0  2.5 0.41 0  0.6 0.19 0  0.6 0.21 0  0.25 0.2 0  0.15 0.2 0  0.2489897948556636 0.21 0  0.2489897948556636 0.19 0  0.6 0.2 0  0 0.3807142857143437 0  0 0.3514285714286952 0  0 0.3221428571430699 0  0 0.29285714285744 0  0 0.2635714285718054 0  0 0.2342857142861561 0  0 0.2050000000005308 0  0 0.175714285714732 0  0 0.1464285714289574 0  0 0.1171428571431897 0  0 0.08785714285737878 0  0 0.05857142857161107 0  0 0.02928571428580012 0  0.03015443760436003 0 0  0.06140001986583606 0 0  0.09377624077125973 0 0  0.1273239957535082 0 0  0.1620856860351972 0 0  0.1981052433264291 0 0  0.235428184091502 0 0  0.2741016576309132 0 0  0.3141745521465447 0 0  0.3556974926295285 0 0  0.3987229542472677 0 0  0.4433053055141081 0 0  0.4895008759286886 0 0  0.5373680609405097 0 0  0.5869673343216626 0 0  0.6383613676634521 0 0  0.6916151138468254 0 0  0.7467958595648856 0 0  0.8039733463919316 0 0  0.8632198139502143 0 0  0.9246101326867038 0 0  0.9882218810934433 0 0  1.054135445558498 0 0  1.122434100542598 0 0  1.193204177141305 0 0  1.266535089879536 0 0  1.342519516046404 0 0  1.421253448503939 0 0  1.502836389106271 0 0  1.587371439758838 0 0  1.674965418777374 0 0  1.765729001825544 0 0  1.859776908880082 0 0  1.957227977487062 0 0  2.058205329869943 0 0  2.162836591189951 0 0  2.271253957290865 0 0  2.383594446803425 0 0  2.5 0.1024999999997612 0  2.5 0.2049999999994743 0  2.5 0.3074999999997183 0  2.383594446803656 0.41 0  2.271253957291315 0.41 0  2.162836591190598 0.41 0  2.058205329870775 0.41 0  1.957227977488067 0.41 0  1.859776908881246 0.41 0  1.765729001826854 0.41 0  1.674965418778818 0.41 0  1.58737143976041 0.41 0  1.502836389107956 0.41 0  1.421253448505726 0.41 0  1.342519516048286 0.41 0  1.266535089881505 0.41 0  1.193204177143353 0.41 0  1.122434100544716 0.41 0  1.05413544556068 0.41 0  0.9882218810956305 0.41 0  0.9246101326886647 0.41 0  0.8632198139519631 0.41 0  0.8039733463934788 0.41 0  0.7467958595662458 0.41 0  0.6916151138480078 0.41 0  0.6383613676644679 0.41 0  0.5869673343225223 0.41 0  0.5373680609412221 0.41 0  0.4895008759292634 0.41 0  0.4433053055145528 0.41 0  0.3987229542475914 0.41 0  0.3556974926297398 0.41 0  0.3141745521466497 0.41 0  0.2741016576310038 0.41 0  0.2354281840915826 0.41 0  0.1981052433265003 0.41 0  0.1620856860352591 0.41 0  0.1273239957535623 0.41 0  0.09377624077128965 0.41 0  0.06140001986584975 0.41 0  0.03015443760436654 0.41 0  0.2497468076502589 0.2050254481002335 0  0.2497468076502614 0.1949745518997913 0  0.2469965252529372 0.1829317073451959 0  0.2439893735792749 0.1762316384219906 0  0.2400332147834255 0.1700443375285386 0  0.2352133972704371 0.1645032867342007 0  0.2296339016332438 0.1597280261969788 0  0.2234150974217223 0.1558215752574715 0  0.2166911463437691 0.1528682099456123 0  0.2096071079204251 0.1509316448471593 0  0.2023158100364996 0.1500536585536553 0  0.194974551899914 0.1502531923497262 0  0.1877417105387872 0.1515259415822739 0  0.1807733240461124 0.153844448527136 0  0.1742197252835808 0.15715869474974 0  0.1682222986673531 0.1613971801805478 0  0.162910430003803 0.1664684656256651 0  0.1583987151779087 0.1722631454351573 0  0.1547844879126891 0.178656207771761 0  0.1521457199348551 0.1855097315605723 0  0.1505393388476355 0.1926758619366523 0  0.1505393388476328 0.2073241380633295 0  0.1521457199348437 0.2144902684393899 0  0.1547844879126531 0.221343792228163 0  0.1583987151778488 0.2277368545647528 0  0.1629104300036858 0.2335315343742052 0  0.1682222986671726 0.2386028198193036 0  0.1742197252833576 0.2428413052501257 0  0.1807733240458683 0.2461555514727623 0  0.1877417105384929 0.2484740584176516 0  0.1949745518995776 0.2497468076502398 0  0.202315810036185 0.2499463414463592 0  0.2096071079201568 0.2490683551528932 0  0.2166911463435495 0.2471317900544655 0  0.2234150974215506 0.2441784247426195 0  0.2296339016331197 0.2402719738031125 0  0.2352133972703547 0.2354967132658811 0  0.2400332147833751 0.2299556624715287 0  0.2439893735792577 0.2237683615780412 0  0.246996525252926 0.2170682926548348 0  0.25645809709277 0.21 0  0.2639263993298655 0.21 0  0.271394701566961 0.21 0  0.2788630038040554 0.21 0  0.2863313060411479 0.21 0  0.2937996082782405 0.21 0  0.301267910515333 0.21 0  0.3087362127524279 0.21 0  0.3162045149895234 0.21 0  0.3236728172265972 0.21 0  0.3311411194636928 0.21 0  0.3386094217007701 0.21 0  0.3460777239378666 0.21 0  0.3535460261749672 0.21 0  0.3610143284120516 0.21 0  0.3684826306491596 0.21 0  0.3759509328862226 0.21 0  0.383419235123329 0.21 0  0.3908875373604028 0.21 0  0.3983558395975142 0.21 0  0.4058241418345938 0.21 0  0.4132924440716992 0.21 0  0.4207607463087888 0.21 0  0.4282290485459029 0.21 0  0.4356973507830418 0.21 0  0.4431656530201649 0.21 0  0.4506339552573136 0.21 0  0.4581022574944306 0.21 0  0.4655705597315852 0.21 0  0.4730388619686996 0.21 0  0.480507164205851 0.21 0  0.4879754664429498 0.21 0  0.4954437686800938 0.21 0  0.502912070917267 0.21 0  0.5103803731544119 0.21 0  0.5178486753915261 0.21 0  0.5253169776286404 0.21 0  0.5327852798657868 0.21 0  0.5402535821029386 0.21 0  0.54772188434007 0.21 0  0.5551901865771842 0.21 0  0.5626584888143201 0.21 0  0.5701267910514778 0.21 0  0.5775950932886138 0.21 0  0.5850633955257281 0.21 0  0.5925316977628483 0.21 0  0.6 0.2050000000000054 0  0.6 0.1950000000000217 0  0.5925316977628897 0.19 0  0.5850633955257988 0.19 0  0.5775950932887378 0.19 0  0.5701267910515998 0.19 0  0.5626584888145268 0.19 0  0.5551901865773963 0.19 0  0.547721884340339 0.19 0  0.5402535821032429 0.19 0  0.5327852798661811 0.19 0  0.5253169776290537 0.19 0  0.5178486753919799 0.19 0  0.5103803731549078 0.19 0  0.502912070917822 0.19 0  0.4954437686807294 0.19 0  0.4879754664436223 0.19 0  0.4805071642065402 0.19 0  0.4730388619694271 0.19 0  0.4655705597323621 0.19 0  0.4581022574952563 0.19 0  0.4506339552581777 0.19 0  0.4431656530210671 0.19 0  0.4356973507839815 0.19 0  0.4282290485468779 0.19 0  0.4207607463097617 0.19 0  0.4132924440726327 0.19 0  0.4058241418354857 0.19 0  0.3983558395983636 0.19 0  0.3908875373612097 0.19 0  0.3834192351240934 0.19 0  0.3759509328869369 0.19 0  0.3684826306498175 0.19 0  0.361014328412667 0.19 0  0.3535460261755617 0.19 0  0.3460777239384295 0.19 0  0.3386094217012945 0.19 0  0.3311411194641595 0.19 0  0.3236728172270245 0.19 0  0.3162045149898895 0.19 0  0.3087362127527544 0.19 0  0.3012679105156187 0.19 0  0.2937996082784807 0.19 0  0.2863313060413428 0.19 0  0.2788630038042048 0.19 0  0.2713947015670686 0.19 0  0.2639263993299336 0.19 0  0.2564580970927985 0.19 0  0.2607803159922026 0.2000727136295815 0  0.5887803774232762 0.2001272386983733 0  0.5745072403740523 0.2002044435018727 0  0.5511891430099709 0.2001122610077113 0  0.2751288526855082 0.20000000000002 0  0.5365194309847112 0.1999999999999436 0  0.2894621222999649 0.1998691686390484 0  0.5215828265105155 0.1999999999999228 0  0.3127789816668748 0.1998657885438805 0  0.3274069683451451 0.2000000000000796 0  0.5066462220363641 0.199999999999908 0  0.3650630746574081 0.199866017807523 0  0.476773013087985 0.1999999999998713 0  0.3417402379596385 0.1998691686391011 0  0.3796850840047755 0.200000000000134 0  0.4618364086138087 0.1999999999998546 0  0.4917096175621762 0.1999999999998808 0  0.3946216884789568 0.2000000000001512 0  0.446899804139621 0.1999999999998389 0  0.4089549580935208 0.1998691686391595 0  0.4322718174608562 0.200127451265745 0  0.4201487168029707 0.1999966199048527 0  0.3528922713220932 0.2000185703532356 0  0.5633122436674589 0.1999814296467508 0  0.3006558810093873 0.1999966199048318 0  0.5815926498168407 0.1966545283159175 0  0.2677053789419034 0.1964246479135325 0  0.5290511287476175 0.1970915826863981 0  0.5439877332217911 0.197091582686394 0  0.2825131256993216 0.2035478995978015 0  0.3199386661080599 0.202908417313604 0  0.4842413153250809 0.1970915826863873 0  0.5141145242734466 0.1970915826863843 0  0.3722167817676917 0.2029084173136195 0  0.4693047108508938 0.1970915826863783 0  0.3348752705822316 0.202908417313609 0  0.3871533862418661 0.2029084173136212 0  0.4543681063767183 0.1970915826863795 0  0.4991779197992749 0.1970915826863902 0  0.4020059614928624 0.203547899597858 0  0.4394315019025246 0.1970915826863714 0  0.2550657455369551 0.2034088125358657 0  0.2548908499171161 0.1966940311614271 0  0.5946539510196798 0.2024302972968126 0  0.267698176732111 0.2039977513680092 0  0.4261685417851465 0.196409292431739 0  0.3590076176283495 0.196411355804271 0  0.5571672426447437 0.2036011176410121 0  0.3066757059912147 0.1964092924317024 0  0.594380730180568 0.1966558399668133 0  0.4842413153245942 0.2040749161535287 0  0.4693047108503577 0.2040749161535231 0  0.3871533862424271 0.1959250838464788 0  0.372246743208829 0.1959123236376545 0  0.5141145242731028 0.2040749161535395 0  0.4543681063761134 0.2040749161535186 0  0.4019979587101454 0.1959834479682427 0  0.4394608940728603 0.2040870543693135 0  0.5439623148931173 0.2040856076781014 0  0.5290511287473298 0.2040749161535501 0  0.4991779197988497 0.2040749161535382 0  0.3347912413592433 0.1959225448935183 0  0.3199680582793816 0.1959123018030061 0  0.2825051229162361 0.1959834479681729 0  0.3590471196690275 0.2036304442587945 0  0.5571594006495384 0.1963685282145804 0  0.3067669986803285 0.203627750582736 0  0.4262598344738712 0.2036568242185335 0  0.5814408164431408 0.2041285596160068 0  0.5688286748170428 0.1961819304477386 0  0.4145905603063645 0.2038180695522843 0  0.3473758401724931 0.2038180695522752 0  0.2950977245128307 0.2038180695522663 0  0.5688286748170693 0.203818069552238 0  0.2950977245127906 0.1961819304477774 0  0.3473758401723931 0.1961819304478349 0  0.4145905603061963 0.1961819304479011 0  0.2601812407614425 0.2056861609747042
[...]
<PointData  Vectors="f_40-0"> 
<DataArray  type="Float64"  Name="f_40-0"  NumberOfComponents="3" format="ascii">0.0000000000000000e+00 0.0000000000000000e+00 0.0000000000000000e+00  0.0000000000000000e+00 0.0000000000000000e+00 0.0000000000000000e+00  0.0000000000000000e+00 0.0000000000000000e+00 0.0000000000000000e+00  0.0000000000000000e+00 0.0000000000000000e+00 0.0000000000000000e+00  -1.7158918142153415e-05 -1.6765385928686215e-04 0.0000000000000000e+00  -4.0421265654355532e-06 -1.7378465586357186e-04 0.0000000000000000e+00  0.0000000000000000e+00 0.0000000000000000e+00 0.0000000000000000e+00  0.0000000000000000e+00 0.0000000000000000e+00 0.0000000000000000e+00  0.0000000000000000e+00 0.0000000000000000e+00 0.0000000000000000e+00  0.0000000000000000e+00 0.0000000000000000e+00 0.0000000000000000e+00  -1.1123477163841732e-05 -1.7072417964681002e-04 0.0000000000000000e+00  2.5978666910120747e-02 0.0000000000000000e+00 0.0000000000000000e+00  4.7960615834072240e-02 0.0000000000000000e+00 0.0000000000000000e+00  6.5945846771849365e-02 0.0000000000000000e+00 0.0000000000000000e+00  7.9934359723472875e-02 0.0000000000000000e+00 0.0000000000000000e+00  8.9926154688941023e-02 0.0000000000000000e+00 0.0000000000000000e+00  9.5921231668253171e-02 0.0000000000000000e+00 0.0000000000000000e+00  9.7919590661403336e-02 0.0000000000000000e+00 0.0000000000000000e+00  9.5921231668374365e-02 0.0000000000000000e+00 0.0000000000000000e+00  8.9926154689149218e-02 0.0000000000000000e+00 0.0000000000000000e+00  7.9934359723730725e-02 0.0000000000000000e+00 0.0000000000000000e+00  6.5945846772094294e-02 0.0000000000000000e+00 0.0000000000000000e+00  4.7960615834281267e-02 0.0000000000000000e+00 0.0000000000000000e+00  2.5978666910238514e-02 0.0000000000000000e+00 0.0000000000000000e+00  0.0000000000000000e+00 0.0000000000000000e+00 0.0000000000000000e+00  0.0000000000000000e+00 0.0000000000000000e+00 0.0000000000000000e+00  0.0000000000000000e+00 0.0000000000000000e+00 0.0000000000000000e+00  0.0000000000000000e+00 0.0000000000000000e+00 0.0000000000000000e+00  0.0000000000000000e+00 0.0000000000000000e+00 0.0000000000000000e+00  0.0000000000000000e+00 0.0000000000000000e+00 0.0000000000000000e+00  0.0000000000000000e+00 0.0000000000000000e+00 0.0000000000000000e+00  0.0000000000000000e+00 0.0000000000000000e+00 0.0000000000000000e+00  0.0000000000000000e+00 0.0000000000000000e+00 0.0000000000000000e+00  0.0000000000000000e+00 0.0000000000000000e+00 0.0000000000000000e+00  0.0000000000000000e+00 0.0000000000000000e+00 0.0000000000000000e+00  0.0000000000000000e+00 0.0000000000000000e+00 0.0000000000000000e+00  0.0000000000000000e+00 0.0000000000000000e+00 0.0000000000000000e+00  0.0000000000000000e+00 0.0000000000000000e+00 0.0000000000000000e+00  0.0000000000000000e+00 0.0000000000000000e+00 0.0000000000000000e+00  0.0000000000000000e+00 0.0000000000000000e+00 0.0000000000000000e+00  0.0000000000000000e+00 0.0000000000000000e+00 0.0000000000000000e+00  0.0000000000000000e+00 0.0000000000000000e+00 0.0000000000000000e+00  0.0000000000000000e+00 0.0000000000000000e+00 0.0000000000000000e+00  0.0000000000000000e+00 0.0000000000000000e+00 0.0000000000000000e+00  0.0000000000000000e+00 0.0000000000000000e+00 0.0000000000000000e+00  0.0000000000000000e+00 0.0000000000000000e+00 0.0000000000000000e+00  0.0000000000000000e+00 0.0000000000000000e+00 0.0000000000000000e+00  0.0000000000000000e+00 0.0000000000000000e+00 0.0000000000000000e+00  0.0000000000000000e+00 0.0000000000000000e+00 0.0000000000000000e+00  0.0000000000000000e+00 0.0000000000000000e+00 0.0000000000000000e+00  0.0000000000000000e+00 0.0000000000000000e+00 0.0000000000000000e+00  0.0000000000000000e+00 0.0000000000000000e+00 0.0000000000000000e+00  0.0000000000000000e+00 0.0000000000000000e+00 0.0000000000000000e+00  0.0000000000000000e+00 0.0000000000000000e+00 0.0000000000000000e+00  0.0000000000000000e+00 0.0000000000000000e+00 0.0000000000000000e+00  0.0000000000000000e+00 0.0000000000000000e+00 0.0000000000000000e+00  0.0000000000000000e+00 0.0000000000000000e+00 0.0000000000000000e+00  0.0000000000000000e+00 0.0000000000000000e+00 0.0000000000000000e+00  0.0000000000000000e+00 0.0000000000000000e+00 0.0000000000000000e+00  0.0000000000000000e+00 0.0000000000000000e+00 0.0000000000000000e+00  0.0000000000000000e+00 0.0000000000000000e+00 0.0000000000000000e+00  0.0000000000000000e+00 0.0000000000000000e+00 0.0000000000000000e+00  9.3408828336202662e-02 4.0597722855750936e-03 0.0000000000000000e+00  6.6132845944296220e-02 -8.0059836262117562e-04 0.0000000000000000e+00  9.4248826335293676e-02 -4.5515158264423389e-03 0.0000000000000000e+00  0.0000000000000000e+00 0.0000000000000000e+00 0.0000000000000000e+00  0.0000000000000000e+00 0.0000000000000000e+00 0.0000000000000000e+00  0.0000000000000000e+00 0.0000000000000000e+00 0.0000000000000000e+00  0.0000000000000000e+00 0.0000000000000000e+00 0.0000000000000000e+00  0.0000000000000000e+00 0.0000000000000000e+00 0.0000000000000000e+00  0.0000000000000000e+00 0.0000000000000000e+00 0.0000000000000000e+00  0.0000000000000000e+00 0.0000000000000000e+00 0.0000000000000000e+00  0.0000000000000000e+00 0.0000000000000000e+00 0.0000000000000000e+00  0.0000000000000000e+00 0.0000000000000000e+00 0.0000000000000000e+00  0.0000000000000000e+00 0.0000000000000000e+00 0.0000000000000000e+00  0.0000000000000000e+00 0.0000000000000000e+00 0.0000000000000000e+00  0.0000000000000000e+00 0.0000000000000000e+00 0.0000000000000000e+00  0.0000000000000000e+00 0.0000000000000000e+00 0.0000000000000000e+00  0.0000000000000000e+00 0.0000000000000000e+00 0.0000000000000000e+00  0.0000000000000000e+00 0.0000000000000000e+00 0.0000000000000000e+00  0.0000000000000000e+00 0.0000000000000000e+00 0.0000000000000000e+00  0.0000000000000000e+00 0.0000000000000000e+00 0.0000000000000000e+00  0.0000000000000000e+00 0.0000000000000000e+00 0.0000000000000000e+00  0.0000000000000000e+00 0.0000000000000000e+00 0.0000000000000000e+00  0.0000000000000000e+00 0.0000000000000000e+00 0.0000000000000000e+00  0.0000000000000000e+00 0.0000000000000000e+00 0.0000000000000000e+00  0.0000000000000000e+00 0.0000000000000000e+00 0.0000000000000000e+00  0.0000000000000000e+00 0.0000000000000000e+00 0.0000000000000000e+00  0.0000000000000000e+00 0.0000000000000000e+00 0.0000000000000000e+00  0.0000000000000000e+00 0.0000000000000000e+00 0.0000000000000000e+00  0.0000000000000000e+00 0.0000000000000000e+00 0.0000000000000000e+00  0.0000000000000000e+00 0.0000000000000000e+00 0.0000000000000000e+00  0.0000000000000000e+00 0.0000000000000000e+00 0.0000000000000000e+00  0.0000000000000000e+00 0.0000000000000000e+00 0.0000000000000000e+00  0.0000000000000000e+00 0.0000000000000000e+00 0.0000000000000000e+00  0.0000000000000000e+00 0.0000000000000000e+00 0.0000000000000000e+00  0.0000000000000000e+00 0.0000000000000000e+00 0.0000000000000000e+00  0.0000000000000000e+00 0.0000000000000000e+00 0.0000000000000000e+00  0.0000000000000000e+00 0.0000000000000000e+00 0.0000000000000000e+00  0.0000000000000000e+00 0.0000000000000000e+00 0.0000000000000000e+00  0.0000000000000000e+00 0.0000000000000000e+00 0.0000000000000000e+00  0.0000000000000000e+00 0.0000000000000000e+00 0.0000000000000000e+00  0.0000000000000000e+00 0.0000000000000000e+00 0.0000000000000000e+00  0.0000000000000000e+00 0.0000000000000000e+00 0.0000000000000000e+00  0.0000000000000000e+00 0.0000000000000000e+00 0.0000000000000000e+00  0.0000000000000000e+00 0.0000000000000000e+00 0.0000000000000000e+00  0.0000000000000000e+00 0.0000000000000000e+00 0.0000000000000000e+00  0.0000000000000000e+00 0.0000000000000000e+00 0.0000000000000000e+00  0.0000000000000000e+00 0.0000000000000000e+00 0.0000000000000000e+00  0.0000000000000000e+00 0.0000000000000000e+00 0.0000000000000000e+00  0.0000000000000000e+00 0.0000000000000000e+00 0.0000000000000000e+00  0.0000000000000000e+00 0.0000000000000000e+00 0.0000000000000000e+00  0.0000000000000000e+00 0.0000000000000000e+00 0.0000000000000000e+00  0.0000000000000000e+00 0.0000000000000000e+00 0.0000000000000000e+00  0.0000000000000000e+00 0.0000000000000000e+00 0.0000000000000000e+00  0.0000000000000000e+00 0.0000000000000000e+00 0.0000000000000000e+00  0.0000000000000000e+00 0.0000000000000000e+00 0.0000000000000000e+00  0.0000000000000000e+00 0.0000000000000000e+00 0.0000000000000000e+00  0.0000000000000000e+00 0.0000000000000000e+00 0.0000000000000000e+00  0.0000000000000000e+00 0.0000000000000000e+00 0.0000000000000000e+00  0.0000000000000000e+00 0.0000000000000000e+00 0.0000000000000000e+00  0.0000000000000000e+00 0.0000000000000000e+00 0.0000000000000000e+00  0.0000000000000000e+00 0.0000000000000000e+00 0.0000000000000000e+00  0.0000000000000000e+00 0.0000000000000000e+00 0.0000000000000000e+00  0.0000000000000000e+00 0.0000000000000000e+00 0.0000000000000000e+00  0.0000000000000000e+00 0.0000000000000000e+00 0.0000000000000000e+00  0.0000000000000000e+00 0.0000000000000000e+00 0.0000000000000000e+00  0.0000000000000000e+00 0.0000000000000000e+00 0.0000000000000000e+00  0.0000000000000000e+00 0.0000000000000000e+00 0.0000000000000000e+00  0.0000000000000000e+00 0.0000000000000000e+00 0.0000000000000000e+00  0.0000000000000000e+00 0.0000000000000000e+00 0.0000000000000000e+00  0.0000000000000000e+00 0.0000000000000000e+00 0.0000000000000000e+00  0.0000000000000000e+00 0.0000000000000000e+00 0.0000000000000000e+00  0.0000000000000000e+00 0.0000000000000000e+00 0.0000000000000000e+00  0.0000000000000000e+00 0.0000000000000000e+00 0.0000000000000000e+00  0.0000000000000000e+00 0.0000000000000000e+00 0.0000000000000000e+00  0.0000000000000000e+00 0.0000000000000000e+00 0.0000000000000000e+00  0.0000000000000000e+00 0.0000000000000000e+00 0.0000000000000000e+00  0.0000000000000000e+00 0.0000000000000000e+00 0.0000000000000000e+00  0.0000000000000000e+00 0.0000000000000000e+00 0.0000000000000000e+00  0.0000000000000000e+00 0.0000000000000000e+00 0.0000000000000000e+00  0.0000000000000000e+00 0.0000000000000000e+00 0.0000000000000000e+00  0.0000000000000000e+00 0.0000000000000000e+00 0.0000000000000000e+00  6.5972534216835874e-07 -5.7355981305613698e-06 0.0000000000000000e+00  1.5483010916238932e-06 -6.5822265428485485e-06 0.0000000000000000e+00  2.6693110035785309e-06 -7.3924871005297100e-06 0.0000000000000000e+00  3.9378338204118995e-06 -8.3265019459220720e-06 0.0000000000000000e+00  5.1604668097262250e-06 -9.4990358081641511e-06 0.0000000000000000e+00  6.3684454022467102e-06 -1.0994418086102089e-05 0.0000000000000000e+00  7.4620207123754978e-06 -1.2681590263948196e-05 0.0000000000000000e+00  8.4804836362237970e-06 -1.4632134521660485e-05 0.0000000000000000e+00  9.5000327984277113e-06 -1.6784703481391697e-05 0.0000000000000000e+00  1.0373341588570428e-05 -1.9124229578688137e-05 0.0000000000000000e+00  1.1246715588592879e-05 -2.1691783426081125e-05 0.0000000000000000e+00  1.1982644499161066e-05 -2.4409499282431205e-05 0.0000000000000000e+00  1.2692282994862614e-05 -2.7316547859942892e-05 0.0000000000000000e+00  1.3299467550324307e-05 -3.0366572063979165e-05 0.0000000000000000e+00  1.3828583741592462e-05 -3.3575276682761374e-05 0.0000000000000000e+00  1.4337728238109933e-05 -3.6927686221706968e-05 0.0000000000000000e+00  1.4723409109028090e-05 -4.0376844767889776e-05 0.0000000000000000e+00  1.5080055278275277e-05 -4.3990448020511949e-05 0.0000000000000000e+00  1.5325764435356981e-05 -4.7668818115405965e-05 0.0000000000000000e+00  1.5539281058504654e-05 -5.1490123511859936e-05 0.0000000000000000e+00  1.5654983496613288e-05 -5.5366261455912731e-05 0.0000000000000000e+00  1.5713297942650542e-05 -5.9357126202066634e-05 0.0000000000000000e+00  1.5699851394500819e-05 -6.3417303587202543e-05 0.0000000000000000e+00  1.5611492910359877e-05 -6.7550008095777428e-05 0.0000000000000000e+00  1.5486569937198405e-05 -7.1763375954192417e-05 0.0000000000000000e+00  1.5272513023507555e-05 -7.6009015529651590e-05 0.0000000000000000e+00  1.4992181429936980e-05 -8.0360160487388444e-05 0.0000000000000000e+00  1.4644949469597035e-05 -8.4717634117485865e-05 0.0000000000000000e+00  1.4231973368367915e-05 -8.9164133629687043e-05 0.0000000000000000e+00  1.3752468213254963e-05 -9.3618757209555227e-05 0.0000000000000000e+00  1.3210845213995273e-05 -9.8147771774641788e-05 0.0000000000000000e+00  1.2598589016203767e-05 -1.0267652256039189e-04 0.0000000000000000e+00  1.1929631899980509e-05 -1.0727649788964644e-04 0.0000000000000000e+00  1.1188135656537153e-05 -1.1186189759384943e-04 0.0000000000000000e+00  1.0380151767208232e-05 -1.1652078857655872e-04 0.0000000000000000e+00  9.5088437662931353e-06 -1.2116305679164733e-04 0.0000000000000000e+00  8.5758020119939837e-06 -1.2586465923533014e-04 0.0000000000000000e+00  7.5767548075306019e-06 -1.3054860525766422e-04 0.0000000000000000e+00  6.5124379415599345e-06 -1.3528614132052761e-04 0.0000000000000000e+00  5.3779656843802395e-06 -1.4000451092791602e-04 0.0000000000000000e+00  4.1733381798844464e-06 -1.4475856705157801e-04 0.0000000000000000e+00  2.9124083140224381e-06 -1.4950823701085641e-04 0.0000000000000000e+00  1.5750975656037699e-06 -1.5427799908694200e-04 0.0000000000000000e+00  1.9985912394675063e-07 -1.5904801487567289e-04 0.0000000000000000e+00  -1.2513727495738169e-06 -1.6380306838974332e-04 0.0000000000000000e+00  -2.7109404363620349e-06 -1.6863389035980214e-04 0.0000000000000000e+00  -7.7636016476013072e-06 -1.7223899167802923e-04 0.0000000000000000e+00  -1.4291018514890942e-05 -1.6921028585140300e-04 0.0000000000000000e+00  -1.5788220150025185e-05 -1.6304167293239871e-04 0.0000000000000000e+00  -1.4298820525814409e-05 -1.5810164938923941e-04 0.0000000000000000e+00  -1.2818525479574726e-05 -1.5312739056039183e-04 0.0000000000000000e+00  -1.1410142259699838e-05 -1.4818766760123567e-04 0.0000000000000000e+00  -1.0042851367333318e-05 -1.4325920598169624e-04 0.0000000000000000e+00  -8.7538867629875864e-06 -1.3834480187142073e-04 0.0000000000000000e+00  -7.5108995900514682e-06 -1.3344887578261124e-04 0.0000000000000000e+00  -6.3425879521998282e-06 -1.2855002928749418e-04 0.0000000000000000e+00  -5.2274792729920769e-06 -1.2369794691699567e-04 0.0000000000000000e+00  -4.1795201834833420e-06 -1.1882885006367628e-04 0.0000000000000000e+00  -3.1841432442302649e-06 -1.1401355964097219e-04 0.0000000000000000e+00  -2.2557346111939330e-06 -1.0918712418036789e-04 0.0000000000000000e+00  -1.3767401117050872e-06 -1.0441937245762773e-04 0.0000000000000000e+00  -5.6411723588980057e-07 -9.9645658076957306e-05 0.0000000000000000e+00  2.0194872005352668e-07 -9.4936640695737241e-05 0.0000000000000000e+00  9.0031375871909764e-07 -9.0227486111023710e-05 0.0000000000000000e+00  1.5553486820395380e-06 -8.5586460336757716e-05 0.0000000000000000e+00  2.1400552173404422e-06 -8.0951915187543714e-05 0.0000000000000000e+00  2.6849542394703725e-06 -7.6396352413764896e-05 0.0000000000000000e+00  3.1596668538331636e-06 -7.1857230707555802e-05 0.0000000000000000e+00  3.5998244707996934e-06 -6.7404408099387895e-05 0.0000000000000000e+00  3.9665159625511221e-06 -6.2978839549673291e-05 0.0000000000000000e+00  4.2931205559170416e-06 -5.8636426988021416e-05 0.0000000000000000e+00  4.5617067513786164e-06 -5.4351929775036607e-05 0.0000000000000000e+00  4.7653947190765262e-06 -5.0152186729053800e-05 0.0000000000000000e+00  4.9556408457191821e-06 -4.6027930734841769e-05 0.0000000000000000e+00  5.0698429273409948e-06 -4.1977233829013235e-05 0.0000000000000000e+00  5.1468531191181049e-06 -3.8054501824225307e-05 0.0000000000000000e+00  5.1628087745740137e-06 -3.4195347379184500e-05 0.0000000000000000e+00  5.1407252845555270e-06 -3.0484414839542033e-05 0.0000000000000000e+00  5.0590872880351231e-06 -2.6850599444110373e-05 0.0000000000000000e+00  4.9495486036609839e-06 -2.3389242763815058e-05 0.0000000000000000e+00  4.7774512828138958e-06 -2.0027711741530882e-05 0.0000000000000000e+00  4.5492225548383101e-06 -1.6850002942459362e-05 0.0000000000000000e+00  4.3283266356619095e-06 -1.3796932170189228e-05 0.0000000000000000e+00  4.0307101509924177e-06 -1.0925282575030564e-05 0.0000000000000000e+00  3.7081355369148674e-06 -8.2564615461022069e-06 0.0000000000000000e+00  3.3251570039488742e-06 -5.7531104273348489e-06 0.0000000000000000e+00  2.9353329629518973e-06 -3.4931743510653178e-06 0.0000000000000000e+00  2.4697791088149927e-06 -1.4121198917999642e-06 0.0000000000000000e+00  1.9525145753722904e-06 4.0009909628860651e-07 0.0000000000000000e+00  1.4725798094261825e-06 2.0077250311655519e-06 0.0000000000000000e+00  9.0326424925917568e-07 3.3870658476701661e-06 0.0000000000000000e+00  4.2327865113697030e-07 4.4736518421288791e-06 0.0000000000000000e+00  6.4690028999302505e-09 5.1049302448362062e-06 0.0000000000000000e+00  -8.2763208926848264e-08 5.1191927807660038e-06 0.0000000000000000e+00  -4.7998146287274034e-07 -3.4780097523176528e-07 0.0000000000000000e+00  -8.6051506912662853e-06 -1.6340938056163615e-04 0.0000000000000000e+00  -5.6454952958138165e-06 -1.5413039613138650e-04 0.0000000000000000e+00  -1.6050349204451915e-06 -1.3899237150205381e-04 0.0000000000000000e+00  1.9216512549211172e-06 -1.7537255171203672e-06 0.0000000000000000e+00  5.7448137375912929e-07 -1.2950681212636859e-04 0.0000000000000000e+00  3.6228701233058634e-06 -4.1192115628210042e-06 0.0000000000000000e+00  2.6266309770292913e-06 -1.1995072210278936e-04 0.0000000000000000e+00  6.0103423478338585e-06 -1.0016138151541349e-05 0.0000000000000000e+00  7.2909582268608913e-06 -1.4854256171829350e-05 0.0000000000000000e+00  4.4303608614124231e-06 -1.1047799872898742e-04 0.0000000000000000e+00  9.4549777272065273e-06 -3.0155953952434910e-05 0.0000000000000000e+00  7.3014718692872829e-06 -9.1864548345575584e-05 0.0000000000000000e+00  8.2631384258346617e-06 -2.0148761295459000e-05 0.0000000000000000e+00  9.9754115816209918e-06 -3.7172602922647412e-05 0.0000000000000000e+00  8.3727410895022014e-06 -8.2771904792155462e-05 0.0000000000000000e+00  5.9881978911912878e-06 -1.0110794557180921e-04 0.0000000000000000e+00  1.0220998870655607e-05 -4.4718998032896867e-05 0.0000000000000000e+00  9.2023745156806843e-06 -7.3865160901137776e-05 0.0000000000000000e+00  1.0169169941980005e-05 -5.2267806030867742e-05 0.0000000000000000e+00  9.8620604254449192e-06 -6.5412640467357781e-05 0.0000000000000000e+00  1.0071287192476979e-05 -5.8504506235896499e-05 0.0000000000000000e+00  8.9447575843081283e-06 -2.4855151086147911e-05 0.0000000000000000e+00  -3.7675330971582554e-06 -1.4679657505067584e-04 0.0000000000000000e+00  4.8404408449804845e-06 -6.7808716661170346e-06 0.0000000000000000e+00  -9.3583093959049625e-06 -1.5772616612231286e-04 0.0000000000000000e+00  4.9654340164415641e-07 1.3068670153290973e-06 0.0000000000000000e+00  -2.2633569723085519e-07 -1.2371187636580784e-04 0.0000000000000000e+00  -2.4156259307084245e-06 -1.3334517635060371e-04 0.0000000000000000e+00  3.4216492048803664e-06 -4.9759209598530303e-06 0.0000000000000000e+00  7.6173030359419244e-06 -1.3935241398160592e-05 0.0000000000000000e+00  4.8790049384300743e-06 -9.5334004982731654e-05 0.0000000000000000e+00  1.7178318348956227e-06 -1.1415209575094611e-04 0.0000000000000000e+00  1.1138984446176288e-05 -3.5026528193164241e-05 0.0000000000000000e+00  6.1018940519873445e-06 -8.6119936856336913e-05 0.0000000000000000e+00  8.9240586655610324e-06 -1.9139545290781191e-05 0.0000000000000000e+00  1.1586320687275328e-05 -4.2315591524681407e-05 0.0000000000000000e+00  7.0882512235461492e-06 -7.7074195789209201e-05 0.0000000000000000e+00  3.4184113768271179e-06 -1.0468499759947523e-04 0.0000000000000000e+00  1.2131521046770421e-05 -5.0283117150916917e-05 0.0000000000000000e+00  7.8419540398145258e-06 -6.8233469303675289e-05 0.0000000000000000e+00  -8.1148399878985437e-07 -1.3809422324501676e-06 0.0000000000000000e+00  -9.2230405340148931e-07 1.1249042285440689e-06 0.0000000000000000e+00  -8.3701958934765697e-06 -1.6789920236789306e-04 0.0000000000000000e+00  1.2421283067894677e-06 -3.3766825649160285e-06 0.0