<?xml version="1.0"?>
<VTKFile type="UnstructuredGrid"  version="0.1"  >
<UnstructuredGrid>
<Piece  NumberOfPoints="1419" NumberOfCells="2698">
<Points>
<DataArray  type="Float64"  NumberOfComponents="3"  format="ascii">0 0 0  0 0.41 0  2.5 0 0  2.5 0.41 0  0.6 0.19 0  0.6 0.21 0  0.25 0.2 0  0.15 0.2 0  0.2489897948556636 0.21 0  0.2489897948556636 0.19 0  0.6 0.2 0  0 0.3807142857143437 0  0 0.3514285714286952 0  0 0.3221428571430699 0  0 0.29285714285744 0  0 0.2635714285718054 0  0 0.2342857142861561 0  0 0.2050000000005308 0  0 0.175714285714732 0  0 0.1464285714289574 0  0 0.1171428571431897 0  0 0.08785714285737878 0  0 0.05857142857161107 0  0 0.02928571428580012 0  0.03015443760436003 0 0  0.06140001986583606 0 0  0.09377624077125973 0 0  0.1273239957535082 0 0  0.1620856860351972 0 0  0.1981052433264291 0 0  0.235428184091502 0 0  0.2741016576309132 0 0  0.3141745521465447 0 0  0.3556974926295285 0 0  0.3987229542472677 0 0  0.4433053055141081 0 0  0.4895008759286886 0 0  0.5373680609405097 0 0  0.5869673343216626 0 0  0.6383613676634521 0 0  0.6916151138468254 0 0  0.7467958595648856 0 0  0.8039733463919316 0 0  0.8632198139502143 0 0  0.9246101326867038 0 0  0.9882218810934433 0 0  1.054135445558498 0 0  1.122434100542598 0 0  1.193204177141305 0 0  1.266535089879536 0 0  1.342519516046404 0 0  1.421253448503939 0 0  1.502836389106271 0 0  1.587371439758838 0 0  1.674965418777374 0 0  1.765729001825544 0 0  1.859776908880082 0 0  1.957227977487062 0 0  2.058205329869943 0 0  2.162836591189951 0 0  2.271253957290865 0 0  2.383594446803425 0 0  2.5 0.1024999999997612 0  2.5 0.2049999999994743 0  2.5 0.3074999999997183 0  2.383594446803656 0.41 0  2.271253957291315 0.41 0  2.162836591190598 0.41 0  2.058205329870775 0.41 0  1.957227977488067 0.41 0  1.859776908881246 0.41 0  1.765729001826854 0.41 0  1.674965418778818 0.41 0  1.58737143976041 0.41 0  1.502836389107956 0.41 0  1.421253448505726 0.41 0  1.342519516048286 0.41 0  1.266535089881505 0.41 0  1.193204177143353 0.41 0  1.122434100544716 0.41 0  1.05413544556068 0.41 0  0.9882218810956305 0.41 0  0.9246101326886647 0.41 0  0.8632198139519631 0.41 0  0.8039733463934788 0.41 0  0.7467958595662458 0.41 0  0.6916151138480078 0.41 0  0.6383613676644679 0.41 0  0.5869673343225223 0.41 0  0.5373680609412221 0.41 0  0.4895008759292634 0.41 0  0.4433053055145528 0.41 0  0.3987229542475914 0.41 0  0.3556974926297398 0.41 0  0.3141745521466497 0.41 0  0.2741016576310038 0.41 0  0.2354281840915826 0.41 0  0.1981052433265003 0.41 0  0.1620856860352591 0.41 0  0.1273239957535623 0.41 0  0.09377624077128965 0.41 0  0.06140001986584975 0.41 0  0.03015443760436654 0.41 0  0.2497468076502589 0.2050254481002335 0  0.2497468076502614 0.1949745518997913 0  0.2469965252529372 0.1829317073451959 0  0.2439893735792749 0.1762316384219906 0  0.2400332147834255 0.1700443375285386 0  0.2352133972704371 0.1645032867342007 0  0.2296339016332438 0.1597280261969788 0  0.2234150974217223 0.1558215752574715 0  0.2166911463437691 0.1528682099456123 0  0.2096071079204251 0.1509316448471593 0  0.2023158100364996 0.1500536585536553 0  0.194974551899914 0.1502531923497262 0  0.1877417105387872 0.1515259415822739 0  0.1807733240461124 0.153844448527136 0  0.1742197252835808 0.15715869474974 0  0.1682222986673531 0.1613971801805478 0  0.162910430003803 0.1664684656256651 0  0.1583987151779087 0.1722631454351573 0  0.1547844879126891 0.178656207771761 0  0.1521457199348551 0.1855097315605723 0  0.1505393388476355 0.1926758619366523 0  0.1505393388476328 0.2073241380633295 0  0.1521457199348437 0.2144902684393899 0  0.1547844879126531 0.221343792228163 0  0.1583987151778488 0.2277368545647528 0  0.1629104300036858 0.2335315343742052 0  0.1682222986671726 0.2386028198193036 0  0.1742197252833576 0.2428413052501257 0  0.1807733240458683 0.2461555514727623 0  0.1877417105384929 0.2484740584176516 0  0.1949745518995776 0.2497468076502398 0  0.202315810036185 0.2499463414463592 0  0.2096071079201568 0.2490683551528932 0  0.2166911463435495 0.2471317900544655 0  0.2234150974215506 0.2441784247426195 0  0.2296339016331197 0.2402719738031125 0  0.2352133972703547 0.2354967132658811 0  0.2400332147833751 0.2299556624715287 0  0.2439893735792577 0.2237683615780412 0  0.246996525252926 0.2170682926548348 0  0.25645809709277 0.21 0  0.2639263993298655 0.21 0  0.271394701566961 0.21 0  0.2788630038040554 0.21 0  0.2863313060411479 0.21 0  0.2937996082782405 0.21 0  0.301267910515333 0.21 0  0.3087362127524279 0.21 0  0.3162045149895234 0.21 0  0.3236728172265972 0.21 0  0.3311411194636928 0.21 0  0.3386094217007701 0.21 0  0.3460777239378666 0.21 0  0.3535460261749672 0.21 0  0.3610143284120516 0.21 0  0.3684826306491596 0.21 0  0.3759509328862226 0.21 0  0.383419235123329 0.21 0  0.3908875373604028 0.21 0  0.3983558395975142 0.21 0  0.4058241418345938 0.21 0  0.4132924440716992 0.21 0  0.4207607463087888 0.21 0  0.4282290485459029 0.21 0  0.4356973507830418 0.21 0  0.4431656530201649 0.21 0  0.4506339552573136 0.21 0  0.4581022574944306 0.21 0  0.4655705597315852 0.21 0  0.4730388619686996 0.21 0  0.480507164205851 0.21 0  0.4879754664429498 0.21 0  0.4954437686800938 0.21 0  0.502912070917267 0.21 0  0.5103803731544119 0.21 0  0.5178486753915261 0.21 0  0.5253169776286404 0.21 0  0.5327852798657868 0.21 0  0.5402535821029386 0.21 0  0.54772188434007 0.21 0  0.5551901865771842 0.21 0  0.5626584888143201 0.21 0  0.5701267910514778 0.21 0  0.5775950932886138 0.21 0  0.5850633955257281 0.21 0  0.5925316977628483 0.21 0  0.6 0.2050000000000054 0  0.6 0.1950000000000217 0  0.5925316977628897 0.19 0  0.5850633955257988 0.19 0  0.5775950932887378 0.19 0  0.5701267910515998 0.19 0  0.5626584888145268 0.19 0  0.5551901865773963 0.19 0  0.547721884340339 0.19 0  0.5402535821032429 0.19 0  0.5327852798661811 0.19 0  0.5253169776290537 0.19 0  0.5178486753919799 0.19 0  0.5103803731549078 0.19 0  0.502912070917822 0.19 0  0.4954437686807294 0.19 0  0.4879754664436223 0.19 0  0.4805071642065402 0.19 0  0.4730388619694271 0.19 0  0.4655705597323621 0.19 0  0.4581022574952563 0.19 0  0.4506339552581777 0.19 0  0.4431656530210671 0.19 0  0.4356973507839815 0.19 0  0.4282290485468779 0.19 0  0.4207607463097617 0.19 0  0.4132924440726327 0.19 0  0.4058241418354857 0.19 0  0.3983558395983636 0.19 0  0.3908875373612097 0.19 0  0.3834192351240934 0.19 0  0.3759509328869369 0.19 0  0.3684826306498175 0.19 0  0.361014328412667 0.19 0  0.3535460261755617 0.19 0  0.3460777239384295 0.19 0  0.3386094217012945 0.19 0  0.3311411194641595 0.19 0  0.3236728172270245 0.19 0  0.3162045149898895 0.19 0  0.3087362127527544 0.19 0  0.3012679105156187 0.19 0  0.2937996082784807 0.19 0  0.2863313060413428 0.19 0  0.2788630038042048 0.19 0  0.2713947015670686 0.19 0  0.2639263993299336 0.19 0  0.2564580970927985 0.19 0  0.2607803159922026 0.2000727136295815 0  0.5887803774232762 0.2001272386983733 0  0.5745072403740523 0.2002044435018727 0  0.5511891430099709 0.2001122610077113 0  0.2751288526855082 0.20000000000002 0  0.5365194309847112 0.1999999999999436 0  0.2894621222999649 0.1998691686390484 0  0.5215828265105155 0.1999999999999228 0  0.3127789816668748 0.1998657885438805 0  0.3274069683451451 0.2000000000000796 0  0.5066462220363641 0.199999999999908 0  0.3650630746574081 0.199866017807523 0  0.476773013087985 0.1999999999998713 0  0.3417402379596385 0.1998691686391011 0  0.3796850840047755 0.200000000000134 0  0.4618364086138087 0.1999999999998546 0  0.4917096175621762 0.1999999999998808 0  0.3946216884789568 0.2000000000001512 0  0.446899804139621 0.1999999999998389 0  0.4089549580935208 0.1998691686391595 0  0.4322718174608562 0.200127451265745 0  0.4201487168029707 0.1999966199048527 0  0.3528922713220932 0.2000185703532356 0  0.5633122436674589 0.1999814296467508 0  0.3006558810093873 0.1999966199048318 0  0.5815926498168407 0.1966545283159175 0  0.2677053789419034 0.1964246479135325 0  0.5290511287476175 0.1970915826863981 0  0.5439877332217911 0.197091582686394 0  0.2825131256993216 0.2035478995978015 0  0.3199386661080599 0.202908417313604 0  0.4842413153250809 0.1970915826863873 0  0.5141145242734466 0.1970915826863843 0  0.3722167817676917 0.2029084173136195 0  0.4693047108508938 0.1970915826863783 0  0.3348752705822316 0.202908417313609 0  0.3871533862418661 0.2029084173136212 0  0.4543681063767183 0.1970915826863795 0  0.4991779197992749 0.1970915826863902 0  0.4020059614928624 0.203547899597858 0  0.4394315019025246 0.1970915826863714 0  0.2550657455369551 0.2034088125358657 0  0.2548908499171161 0.1966940311614271 0  0.5946539510196798 0.2024302972968126 0  0.267698176732111 0.2039977513680092 0  0.4261685417851465 0.196409292431739 0  0.3590076176283495 0.196411355804271 0  0.5571672426447437 0.2036011176410121 0  0.3066757059912147 0.1964092924317024 0  0.594380730180568 0.1966558399668133 0  0.4842413153245942 0.2040749161535287 0  0.4693047108503577 0.2040749161535231 0  0.3871533862424271 0.1959250838464788 0  0.372246743208829 0.1959123236376545 0  0.5141145242731028 0.2040749161535395 0  0.4543681063761134 0.2040749161535186 0  0.4019979587101454 0.1959834479682427 0  0.4394608940728603 0.2040870543693135 0  0.5439623148931173 0.2040856076781014 0  0.5290511287473298 0.2040749161535501 0  0.4991779197988497 0.2040749161535382 0  0.3347912413592433 0.1959225448935183 0  0.3199680582793816 0.1959123018030061 0  0.2825051229162361 0.1959834479681729 0  0.3590471196690275 0.2036304442587945 0  0.5571594006495384 0.1963685282145804 0  0.3067669986803285 0.203627750582736 0  0.4262598344738712 0.2036568242185335 0  0.5814408164431408 0.2041285596160068 0  0.5688286748170428 0.1961819304477386 0  0.4145905603063645 0.2038180695522843 0  0.3473758401724931 0.2038180695522752 0  0.2950977245128307 0.2038180695522663 0  0.5688286748170693 0.203818069552238 0  0.2950977245127906 0.1961819304477774 0  0.3473758401723931 0.1961819304478349 0  0.4145905603061963 0.1961819304479011 0  0.2601812407614425 0.2056861609747042
[...]
<PointData  Vectors="f_40-0"> 
<DataArray  type="Float64"  Name="f_40-0"  NumberOfComponents="3" format="ascii">0.0000000000000000e+00 0.0000000000000000e+00 0.0000000000000000e+00  0.0000000000000000e+00 0.0000000000000000e+00 0.0000000000000000e+00  0.0000000000000000e+00 0.0000000000000000e+00 0.0000000000000000e+00  0.0000000000000000e+00 0.0000000000000000e+00 0.0000000000000000e+00  -1.1145743067993690e-04 1.9787247299977066e-06 0.0000000000000000e+00  -1.1105229646185664e-04 -4.2555552481230534e-06 0.0000000000000000e+00  0.0000000000000000e+00 0.0000000000000000e+00 0.0000000000000000e+00  0.0000000000000000e+00 0.0000000000000000e+00 0.0000000000000000e+00  0.0000000000000000e+00 0.0000000000000000e+00 0.0000000000000000e+00  0.0000000000000000e+00 0.0000000000000000e+00 0.0000000000000000e+00  -1.1134714250274508e-04 -1.1400953657726181e-06 0.0000000000000000e+00  3.3821925043627994e-05 0.0000000000000000e+00 0.0000000000000000e+00  6.2440477003625054e-05 0.0000000000000000e+00 0.0000000000000000e+00  8.5855655879984449e-05 0.0000000000000000e+00 0.0000000000000000e+00  1.0406746167273332e-04 0.0000000000000000e+00 0.0000000000000000e+00  1.1707589438186931e-04 0.0000000000000000e+00 0.0000000000000000e+00  1.2488095400739157e-04 0.0000000000000000e+00 0.0000000000000000e+00  1.2748264054929240e-04 0.0000000000000000e+00 0.0000000000000000e+00  1.2488095400754937e-04 0.0000000000000000e+00 0.0000000000000000e+00  1.1707589438214036e-04 0.0000000000000000e+00 0.0000000000000000e+00  1.0406746167306900e-04 0.0000000000000000e+00 0.0000000000000000e+00  8.5855655880303367e-05 0.0000000000000000e+00 0.0000000000000000e+00  6.2440477003897175e-05 0.0000000000000000e+00 0.0000000000000000e+00  3.3821925043781321e-05 0.0000000000000000e+00 0.0000000000000000e+00  0.0000000000000000e+00 0.0000000000000000e+00 0.0000000000000000e+00  0.0000000000000000e+00 0.0000000000000000e+00 0.0000000000000000e+00  0.0000000000000000e+00 0.0000000000000000e+00 0.0000000000000000e+00  0.0000000000000000e+00 0.0000000000000000e+00 0.0000000000000000e+00  0.0000000000000000e+00 0.0000000000000000e+00 0.0000000000000000e+00  0.0000000000000000e+00 0.0000000000000000e+00 0.0000000000000000e+00  0.0000000000000000e+00 0.0000000000000000e+00 0.0000000000000000e+00  0.0000000000000000e+00 0.0000000000000000e+00 0.0000000000000000e+00  0.0000000000000000e+00 0.0000000000000000e+00 0.0000000000000000e+00  0.0000000000000000e+00 0.0000000000000000e+00 0.0000000000000000e+00  0.0000000000000000e+00 0.0000000000000000e+00 0.0000000000000000e+00  0.0000000000000000e+00 0.0000000000000000e+00 0.0000000000000000e+00  0.0000000000000000e+00 0.0000000000000000e+00 0.0000000000000000e+00  0.0000000000000000e+00 0.0000000000000000e+00 0.0000000000000000e+00  0.0000000000000000e+00 0.0000000000000000e+00 0.0000000000000000e+00  0.0000000000000000e+00 0.0000000000000000e+00 0.0000000000000000e+00  0.0000000000000000e+00 0.0000000000000000e+00 0.0000000000000000e+00  0.0000000000000000e+00 0.0000000000000000e+00 0.0000000000000000e+00  0.0000000000000000e+00 0.0000000000000000e+00 0.0000000000000000e+00  0.0000000000000000e+00 0.0000000000000000e+00 0.0000000000000000e+00  0.0000000000000000e+00 0.0000000000000000e+00 0.0000000000000000e+00  0.0000000000000000e+00 0.0000000000000000e+00 0.0000000000000000e+00  0.0000000000000000e+00 0.0000000000000000e+00 0.0000000000000000e+00  0.0000000000000000e+00 0.0000000000000000e+00 0.0000000000000000e+00  0.0000000000000000e+00 0.0000000000000000e+00 0.0000000000000000e+00  0.0000000000000000e+00 0.0000000000000000e+00 0.0000000000000000e+00  0.0000000000000000e+00 0.0000000000000000e+00 0.0000000000000000e+00  0.0000000000000000e+00 0.0000000000000000e+00 0.0000000000000000e+00  0.0000000000000000e+00 0.0000000000000000e+00 0.0000000000000000e+00  0.0000000000000000e+00 0.0000000000000000e+00 0.0000000000000000e+00  0.0000000000000000e+00 0.0000000000000000e+00 0.0000000000000000e+00  0.0000000000000000e+00 0.0000000000000000e+00 0.0000000000000000e+00  0.0000000000000000e+00 0.0000000000000000e+00 0.0000000000000000e+00  0.0000000000000000e+00 0.0000000000000000e+00 0.0000000000000000e+00  0.0000000000000000e+00 0.0000000000000000e+00 0.0000000000000000e+00  0.0000000000000000e+00 0.0000000000000000e+00 0.0000000000000000e+00  0.0000000000000000e+00 0.0000000000000000e+00 0.0000000000000000e+00  0.0000000000000000e+00 0.0000000000000000e+00 0.0000000000000000e+00  8.9826525387070956e-05 2.6985827523917455e-06 0.0000000000000000e+00  7.1644204811357226e-05 -1.1157607532380970e-07 0.0000000000000000e+00  8.7754419275833020e-05 -3.6615286115910288e-06 0.0000000000000000e+00  0.0000000000000000e+00 0.0000000000000000e+00 0.0000000000000000e+00  0.0000000000000000e+00 0.0000000000000000e+00 0.0000000000000000e+00  0.0000000000000000e+00 0.0000000000000000e+00 0.0000000000000000e+00  0.0000000000000000e+00 0.0000000000000000e+00 0.0000000000000000e+00  0.0000000000000000e+00 0.0000000000000000e+00 0.0000000000000000e+00  0.0000000000000000e+00 0.0000000000000000e+00 0.0000000000000000e+00  0.0000000000000000e+00 0.0000000000000000e+00 0.0000000000000000e+00  0.0000000000000000e+00 0.0000000000000000e+00 0.0000000000000000e+00  0.0000000000000000e+00 0.0000000000000000e+00 0.0000000000000000e+00  0.0000000000000000e+00 0.0000000000000000e+00 0.0000000000000000e+00  0.0000000000000000e+00 0.0000000000000000e+00 0.0000000000000000e+00  0.0000000000000000e+00 0.0000000000000000e+00 0.0000000000000000e+00  0.0000000000000000e+00 0.0000000000000000e+00 0.0000000000000000e+00  0.0000000000000000e+00 0.0000000000000000e+00 0.0000000000000000e+00  0.0000000000000000e+00 0.0000000000000000e+00 0.0000000000000000e+00  0.0000000000000000e+00 0.0000000000000000e+00 0.0000000000000000e+00  0.0000000000000000e+00 0.0000000000000000e+00 0.0000000000000000e+00  0.0000000000000000e+00 0.0000000000000000e+00 0.0000000000000000e+00  0.0000000000000000e+00 0.0000000000000000e+00 0.0000000000000000e+00  0.0000000000000000e+00 0.0000000000000000e+00 0.0000000000000000e+00  0.0000000000000000e+00 0.0000000000000000e+00 0.0000000000000000e+00  0.0000000000000000e+00 0.0000000000000000e+00 0.0000000000000000e+00  0.0000000000000000e+00 0.0000000000000000e+00 0.0000000000000000e+00  0.0000000000000000e+00 0.0000000000000000e+00 0.0000000000000000e+00  0.0000000000000000e+00 0.0000000000000000e+00 0.0000000000000000e+00  0.0000000000000000e+00 0.0000000000000000e+00 0.0000000000000000e+00  0.0000000000000000e+00 0.0000000000000000e+00 0.0000000000000000e+00  0.0000000000000000e+00 0.0000000000000000e+00 0.0000000000000000e+00  0.0000000000000000e+00 0.0000000000000000e+00 0.0000000000000000e+00  0.0000000000000000e+00 0.0000000000000000e+00 0.0000000000000000e+00  0.0000000000000000e+00 0.0000000000000000e+00 0.0000000000000000e+00  0.0000000000000000e+00 0.0000000000000000e+00 0.0000000000000000e+00  0.0000000000000000e+00 0.0000000000000000e+00 0.0000000000000000e+00  0.0000000000000000e+00 0.0000000000000000e+00 0.0000000000000000e+00  0.0000000000000000e+00 0.0000000000000000e+00 0.0000000000000000e+00  0.0000000000000000e+00 0.0000000000000000e+00 0.0000000000000000e+00  0.0000000000000000e+00 0.0000000000000000e+00 0.0000000000000000e+00  0.0000000000000000e+00 0.0000000000000000e+00 0.0000000000000000e+00  0.0000000000000000e+00 0.0000000000000000e+00 0.0000000000000000e+00  0.0000000000000000e+00 0.0000000000000000e+00 0.0000000000000000e+00  0.0000000000000000e+00 0.0000000000000000e+00 0.0000000000000000e+00  0.0000000000000000e+00 0.0000000000000000e+00 0.0000000000000000e+00  0.0000000000000000e+00 0.0000000000000000e+00 0.0000000000000000e+00  0.0000000000000000e+00 0.0000000000000000e+00 0.0000000000000000e+00  0.0000000000000000e+00 0.0000000000000000e+00 0.0000000000000000e+00  0.0000000000000000e+00 0.0000000000000000e+00 0.0000000000000000e+00  0.0000000000000000e+00 0.0000000000000000e+00 0.0000000000000000e+00  0.0000000000000000e+00 0.0000000000000000e+00 0.0000000000000000e+00  0.0000000000000000e+00 0.0000000000000000e+00 0.0000000000000000e+00  0.0000000000000000e+00 0.0000000000000000e+00 0.0000000000000000e+00  0.0000000000000000e+00 0.0000000000000000e+00 0.0000000000000000e+00  0.0000000000000000e+00 0.0000000000000000e+00 0.0000000000000000e+00  0.0000000000000000e+00 0.0000000000000000e+00 0.0000000000000000e+00  0.0000000000000000e+00 0.0000000000000000e+00 0.0000000000000000e+00  0.0000000000000000e+00 0.0000000000000000e+00 0.0000000000000000e+00  0.0000000000000000e+00 0.0000000000000000e+00 0.0000000000000000e+00  0.0000000000000000e+00 0.0000000000000000e+00 0.0000000000000000e+00  0.0000000000000000e+00 0.0000000000000000e+00 0.0000000000000000e+00  0.0000000000000000e+00 0.0000000000000000e+00 0.0000000000000000e+00  0.0000000000000000e+00 0.0000000000000000e+00 0.0000000000000000e+00  0.0000000000000000e+00 0.0000000000000000e+00 0.0000000000000000e+00  0.0000000000000000e+00 0.0000000000000000e+00 0.0000000000000000e+00  0.0000000000000000e+00 0.0000000000000000e+00 0.0000000000000000e+00  0.0000000000000000e+00 0.0000000000000000e+00 0.0000000000000000e+00  0.0000000000000000e+00 0.0000000000000000e+00 0.0000000000000000e+00  0.0000000000000000e+00 0.0000000000000000e+00 0.0000000000000000e+00  0.0000000000000000e+00 0.0000000000000000e+00 0.0000000000000000e+00  0.0000000000000000e+00 0.0000000000000000e+00 0.0000000000000000e+00  0.0000000000000000e+00 0.0000000000000000e+00 0.0000000000000000e+00  0.0000000000000000e+00 0.0000000000000000e+00 0.0000000000000000e+00  0.0000000000000000e+00 0.0000000000000000e+00 0.0000000000000000e+00  0.0000000000000000e+00 0.0000000000000000e+00 0.0000000000000000e+00  0.0000000000000000e+00 0.0000000000000000e+00 0.0000000000000000e+00  0.0000000000000000e+00 0.0000000000000000e+00 0.0000000000000000e+00  0.0000000000000000e+00 0.0000000000000000e+00 0.0000000000000000e+00  0.0000000000000000e+00 0.0000000000000000e+00 0.0000000000000000e+00  0.0000000000000000e+00 0.0000000000000000e+00 0.0000000000000000e+00  0.0000000000000000e+00 0.0000000000000000e+00 0.0000000000000000e+00  -2.5797912827131295e-06 -3.4304174199662761e-06 0.0000000000000000e+00  -5.1707191464826547e-06 -3.6749812435372021e-06 0.0000000000000000e+00  -7.6236325662218573e-06 -3.7453319714782272e-06 0.0000000000000000e+00  -9.9851021614328491e-06 -3.6858803994543416e-06 0.0000000000000000e+00  -1.2313081431237381e-05 -3.6372003420736930e-06 0.0000000000000000e+00  -1.4654364016609155e-05 -3.6207238765510662e-06 0.0000000000000000e+00  -1.7001261103449986e-05 -3.6072085640331403e-06 0.0000000000000000e+00  -1.9359519548750707e-05 -3.6035738776049222e-06 0.0000000000000000e+00  -2.1719815271868383e-05 -3.6021248475453150e-06 0.0000000000000000e+00  -2.4089359115395769e-05 -3.6041241559176886e-06 0.0000000000000000e+00  -2.6462986810168822e-05 -3.6101911785139247e-06 0.0000000000000000e+00  -2.8840003551543000e-05 -3.6151554887367666e-06 0.0000000000000000e+00  -3.1219992892224209e-05 -3.6176835152297811e-06 0.0000000000000000e+00  -3.3600060581135483e-05 -3.6242150705578900e-06 0.0000000000000000e+00  -3.5981358467520566e-05 -3.6240789044753285e-06 0.0000000000000000e+00  -3.8360901269769535e-05 -3.6278624447246470e-06 0.0000000000000000e+00  -4.0741424134641784e-05 -3.6228631614903797e-06 0.0000000000000000e+00  -4.3121828229392285e-05 -3.6264880720782284e-06 0.0000000000000000e+00  -4.5501727706532237e-05 -3.6219148125552326e-06 0.0000000000000000e+00  -4.7881590700624588e-05 -3.6238457699051943e-06 0.0000000000000000e+00  -5.0261701722704709e-05 -3.6178031373074240e-06 0.0000000000000000e+00  -5.2644415231510410e-05 -3.6108009595252384e-06 0.0000000000000000e+00  -5.5025265512671144e-05 -3.6070032498985704e-06 0.0000000000000000e+00  -5.7410756838174537e-05 -3.5915427186597959e-06 0.0000000000000000e+00  -5.9794758451385427e-05 -3.5828899980383663e-06 0.0000000000000000e+00  -6.2181901894427894e-05 -3.5543981186466435e-06 0.0000000000000000e+00  -6.4573232965118842e-05 -3.5326186325812091e-06 0.0000000000000000e+00  -6.6962571118655556e-05 -3.4935168698682793e-06 0.0000000000000000e+00  -6.9351938341412513e-05 -3.4539237248596581e-06 0.0000000000000000e+00  -7.1737077786569620e-05 -3.4072235474408469e-06 0.0000000000000000e+00  -7.4118920591241243e-05 -3.3568746361120979e-06 0.0000000000000000e+00  -7.6497386406866827e-05 -3.3063041060814311e-06 0.0000000000000000e+00  -7.8867655742410894e-05 -3.2612198207301434e-06 0.0000000000000000e+00  -8.1230691331397856e-05 -3.2174197015957243e-06 0.0000000000000000e+00  -8.3584011966332064e-05 -3.1902361669128310e-06 0.0000000000000000e+00  -8.5928563540464207e-05 -3.1747551748681803e-06 0.0000000000000000e+00  -8.8264638830618390e-05 -3.1778119668969951e-06 0.0000000000000000e+00  -9.0593250397295934e-05 -3.2021026688282434e-06 0.0000000000000000e+00  -9.2912077902129728e-05 -3.2468613872405794e-06 0.0000000000000000e+00  -9.5222934739582046e-05 -3.3141911174725011e-06 0.0000000000000000e+00  -9.7522701308221435e-05 -3.4020124111711430e-06 0.0000000000000000e+00  -9.9817072840696619e-05 -3.5040726453675367e-06 0.0000000000000000e+00  -1.0209993172467506e-04 -3.6241509904224410e-06 0.0000000000000000e+00  -1.0437101938882349e-04 -3.7497680674665817e-06 0.0000000000000000e+00  -1.0663281466973822e-04 -3.8883574465171245e-06 0.0000000000000000e+00  -1.0886900370416842e-04 -4.0441136420913170e-06 0.0000000000000000e+00  -1.1122949270039418e-04 -2.6934475703365057e-06 0.0000000000000000e+00  -1.1142418038440134e-04 4.1315737011942944e-07 0.0000000000000000e+00  -1.0926260661159259e-04 2.0624358799001112e-06 0.0000000000000000e+00  -1.0701512104669513e-04 2.2104068010125133e-06 0.0000000000000000e+00  -1.0473633312492883e-04 2.3580195540975296e-06 0.0000000000000000e+00  -1.0243593118286975e-04 2.4998887556566754e-06 0.0000000000000000e+00  -1.0012185511848207e-04 2.6324785574593339e-06 0.0000000000000000e+00  -9.7790655900232629e-05 2.7492850560906847e-06 0.0000000000000000e+00  -9.5441496855084334e-05 2.8544727981162228e-06 0.0000000000000000e+00  -9.3086524298892763e-05 2.9388919398814162e-06 0.0000000000000000e+00  -9.0716472432829866e-05 3.0055706164510630e-06 0.0000000000000000e+00  -8.8344295918127682e-05 3.0516777527917756e-06 0.0000000000000000e+00  -8.5960350602446879e-05 3.0803057734978610e-06 0.0000000000000000e+00  -8.3578331551115059e-05 3.0925247499206650e-06 0.0000000000000000e+00  -8.1189340831042708e-05 3.0917232922214510e-06 0.0000000000000000e+00  -7.8806261866954625e-05 3.0836750941322060e-06 0.0000000000000000e+00  -7.6424294511440109e-05 3.0680613862802936e-06 0.0000000000000000e+00  -7.4043941793360403e-05 3.0520522016378900e-06 0.0000000000000000e+00  -7.1665290840677712e-05 3.0373373709803741e-06 0.0000000000000000e+00  -6.9288151735309448e-05 3.0279106285258942e-06 0.0000000000000000e+00  -6.6912954654953531e-05 3.0224205673127328e-06 0.0000000000000000e+00  -6.4538554374634317e-05 3.0261401184403633e-06 0.0000000000000000e+00  -6.2168237139850933e-05 3.0355361812152868e-06 0.0000000000000000e+00  -5.9794668169287562e-05 3.0528435520760795e-06 0.0000000000000000e+00  -5.7423626869186092e-05 3.0781759166349083e-06 0.0000000000000000e+00  -5.5048440556839340e-05 3.1019727369775314e-06 0.0000000000000000e+00  -5.2673305659969126e-05 3.1341121418153633e-06 0.0000000000000000e+00  -5.0295660138654588e-05 3.1624703553616648e-06 0.0000000000000000e+00  -4.7920452594963632e-05 3.1985172431649655e-06 0.0000000000000000e+00  -4.5543436832446010e-05 3.2255614022881835e-06 0.0000000000000000e+00  -4.3165725649408479e-05 3.2637714663537904e-06 0.0000000000000000e+00  -4.0787491770278288e-05 3.2917752859490183e-06 0.0000000000000000e+00  -3.8408384785908013e-05 3.3290381424587144e-06 0.0000000000000000e+00  -3.6031740578706339e-05 3.3605054544548693e-06 0.0000000000000000e+00  -3.3653155967909992e-05 3.3982099874847199e-06 0.0000000000000000e+00  -3.1275297248877518e-05 3.4337744916802695e-06 0.0000000000000000e+00  -2.8896597570717368e-05 3.4751222675210044e-06 0.0000000000000000e+00  -2.6519106423968093e-05 3.5149407378090726e-06 0.0000000000000000e+00  -2.4142370993760347e-05 3.5544598029186044e-06 0.0000000000000000e+00  -2.1767917294765895e-05 3.5953395682036132e-06 0.0000000000000000e+00  -1.9398192168256754e-05 3.6338406323882958e-06 0.0000000000000000e+00  -1.7029564014965099e-05 3.6668814264239003e-06 0.0000000000000000e+00  -1.4670768404657942e-05 3.6979470291351937e-06 0.0000000000000000e+00  -1.2314017502325325e-05 3.7211431194002735e-06 0.0000000000000000e+00  -9.9745197239876095e-06 3.7662132123520816e-06 0.0000000000000000e+00  -7.6000274219503273e-06 3.8026376304230287e-06 0.0000000000000000e+00  -5.1507036733305594e-06 3.7078411615054407e-06 0.0000000000000000e+00  -2.5781948826719474e-06 3.4231809121499510e-06 0.0000000000000000e+00  -4.6949896181849939e-06 -1.2666517918450082e-08 0.0000000000000000e+00  -1.0797189440170605e-04 -9.4963167270753169e-07 0.0000000000000000e+00  -1.0361890572426097e-04 -6.9522187822054068e-07 0.0000000000000000e+00  -9.6422367256217048e-05 -2.9589687650875207e-07 0.0000000000000000e+00  -8.8123677524190759e-06 3.5284133344151842e-08 0.0000000000000000e+00  -9.1839295188815909e-05 -1.1253149071516182e-07 0.0000000000000000e+00  -1.3293169373654665e-05 9.2791193814903967e-08 0.0000000000000000e+00  -8.7135791444137574e-05 -4.2416816857698537e-08 0.0000000000000000e+00  -2.0660751985851649e-05 5.5959649882039678e-08 0.0000000000000000e+00  -2.5307831273295905e-05 -3.5379106903661318e-08 0.0000000000000000e+00  -8.2405830724969901e-05 -4.6494899755556173e-08 0.0000000000000000e+00  -3.7302282569051148e-05 -9.5326865398843784e-08 0.0000000000000000e+00  -7.2900282433861844e-05 -1.6947194209366067e-07 0.0000000000000000e+00  -2.9869952292542085e-05 -3.3234176669123823e-08 0.0000000000000000e+00  -4.1962244279917579e-05 -1.7411907547572486e-07 0.0000000000000000e+00  -6.8137538587276301e-05 -2.2808397984683037e-07 0.0000000000000000e+00  -7.7658275853836499e-05 -1.0057519085322621e-07 0.0000000000000000e+00  -4.6720070300552082e-05 -2.0621159520458567e-07 0.0000000000000000e+00  -6.3374424102756514e-05 -2.6168604121868564e-07 0.0000000000000000e+00  -5.1283622015101288e-05 -1.8925129692708978e-07 0.0000000000000000e+00  -5.8710739630236315e-05 -3.0733919616778372e-07 0.0000000000000000e+00  -5.4852101903599067e-05 -2.5120761571844928e-07 0.0000000000000000e+00  -3.3425845186048223e-05 -1.1807275979201703e-07 0.0000000000000000e+00  -1.0018316975897050e-04 -4.3424298690968007e-07 0.0000000000000000e+00  -1.6825678869955370e-05 3.3970177078554827e-08 0.0000000000000000e+00  -1.0584884072652496e-04 2.5122269106998580e-07 0.0000000000000000e+00  -6.5848946804949184e-06 1.4295259001614307e-06 0.0000000000000000e+00  -8.9505804200241737e-05 8.3561853421861326e-07 0.0000000000000000e+00  -9.4205887917590659e-05 7.1853828943161714e-07 0.0000000000000000e+00  -1.1116313523582826e-05 -1.2683089603746703e-06 0.0000000000000000e+00  -2.2926794013052787e-05 -1.0563766676121826e-06 0.0000000000000000e+00  -7.5269812608846329e-05 7.9439780756074476e-07 0.0000000000000000e+00  -8.4775575471660790e-05 8.7377396827650482e-07 0.0000000000000000e+00  -3.9575423728650786e-05 -1.1664154795595230e-06 0.0000000000000000e+00  -7.0509548721759449e-05 7.3863459962751530e-07 0.0000000000000000e+00  -2.7676325941743146e-05 -1.0923481792792630e-06 0.0000000000000000e+00  -4.4335410668975661e-05 -1.1892661792376413e-06 0.0000000000000000e+00  -6.5749912474646864e-05 7.0217855723320687e-07 0.0000000000000000e+00  -8.0026647724344520e-05 8.4980192378873684e-07 0.0000000000000000e+00  -4.9064708512276826e-05 -1.4279288236615522e-06 0.0000000000000000e+00  -6.0992220878660822e-05 6.9539785492891678e-07 0.0000000000000000e+00  -2.6558253922058869e-06 -7.9300273650008343e-07 0.0000000000000000e+00  -2.5767818580491746e-06 7.1724323595071117e-07 0.0000000000000000e+00  -1.0969888473366681e-04 -1.7734426772014765e-06 0.0000000000000000e+0