<?xml version="1.0"?>
<VTKFile type="UnstructuredGrid"  version="0.1"  >
<UnstructuredGrid>
<Piece  NumberOfPoints="1419" NumberOfCells="2698">
<Points>
<DataArray  type="Float64"  NumberOfComponents="3"  format="ascii">0 0 0  0 0.41 0  2.5 0 0  2.5 0.41 0  0.6 0.19 0  0.6 0.21 0  0.25 0.2 0  0.15 0.2 0  0.2489897948556636 0.21 0  0.2489897948556636 0.19 0  0.6 0.2 0  0 0.3807142857143437 0  0 0.3514285714286952 0  0 0.3221428571430699 0  0 0.29285714285744 0  0 0.2635714285718054 0  0 0.2342857142861561 0  0 0.2050000000005308 0  0 0.175714285714732 0  0 0.1464285714289574 0  0 0.1171428571431897 0  0 0.08785714285737878 0  0 0.05857142857161107 0  0 0.02928571428580012 0  0.03015443760436003 0 0  0.06140001986583606 0 0  0.09377624077125973 0 0  0.1273239957535082 0 0  0.1620856860351972 0 0  0.1981052433264291 0 0  0.235428184091502 0 0  0.2741016576309132 0 0  0.3141745521465447 0 0  0.3556974926295285 0 0  0.3987229542472677 0 0  0.4433053055141081 0 0  0.4895008759286886 0 0  0.5373680609405097 0 0  0.5869673343216626 0 0  0.6383613676634521 0 0  0.6916151138468254 0 0  0.7467958595648856 0 0  0.8039733463919316 0 0  0.8632198139502143 0 0  0.9246101326867038 0 0  0.9882218810934433 0 0  1.054135445558498 0 0  1.122434100542598 0 0  1.193204177141305 0 0  1.266535089879536 0 0  1.342519516046404 0 0  1.421253448503939 0 0  1.502836389106271 0 0  1.587371439758838 0 0  1.674965418777374 0 0  1.765729001825544 0 0  1.859776908880082 0 0  1.957227977487062 0 0  2.058205329869943 0 0  2.162836591189951 0 0  2.271253957290865 0 0  2.383594446803425 0 0  2.5 0.1024999999997612 0  2.5 0.2049999999994743 0  2.5 0.3074999999997183 0  2.383594446803656 0.41 0  2.271253957291315 0.41 0  2.162836591190598 0.41 0  2.058205329870775 0.41 0  1.957227977488067 0.41 0  1.859776908881246 0.41 0  1.765729001826854 0.41 0  1.674965418778818 0.41 0  1.58737143976041 0.41 0  1.502836389107956 0.41 0  1.421253448505726 0.41 0  1.342519516048286 0.41 0  1.266535089881505 0.41 0  1.193204177143353 0.41 0  1.122434100544716 0.41 0  1.05413544556068 0.41 0  0.9882218810956305 0.41 0  0.9246101326886647 0.41 0  0.8632198139519631 0.41 0  0.8039733463934788 0.41 0  0.7467958595662458 0.41 0  0.6916151138480078 0.41 0  0.6383613676644679 0.41 0  0.5869673343225223 0.41 0  0.5373680609412221 0.41 0  0.4895008759292634 0.41 0  0.4433053055145528 0.41 0  0.3987229542475914 0.41 0  0.3556974926297398 0.41 0  0.3141745521466497 0.41 0  0.2741016576310038 0.41 0  0.2354281840915826 0.41 0  0.1981052433265003 0.41 0  0.1620856860352591 0.41 0  0.1273239957535623 0.41 0  0.09377624077128965 0.41 0  0.06140001986584975 0.41 0  0.03015443760436654 0.41 0  0.2497468076502589 0.2050254481002335 0  0.2497468076502614 0.1949745518997913 0  0.2469965252529372 0.1829317073451959 0  0.2439893735792749 0.1762316384219906 0  0.2400332147834255 0.1700443375285386 0  0.2352133972704371 0.1645032867342007 0  0.2296339016332438 0.1597280261969788 0  0.2234150974217223 0.1558215752574715 0  0.2166911463437691 0.1528682099456123 0  0.2096071079204251 0.1509316448471593 0  0.2023158100364996 0.1500536585536553 0  0.194974551899914 0.1502531923497262 0  0.1877417105387872 0.1515259415822739 0  0.1807733240461124 0.153844448527136 0  0.1742197252835808 0.15715869474974 0  0.1682222986673531 0.1613971801805478 0  0.162910430003803 0.1664684656256651 0  0.1583987151779087 0.1722631454351573 0  0.1547844879126891 0.178656207771761 0  0.1521457199348551 0.1855097315605723 0  0.1505393388476355 0.1926758619366523 0  0.1505393388476328 0.2073241380633295 0  0.1521457199348437 0.2144902684393899 0  0.1547844879126531 0.221343792228163 0  0.1583987151778488 0.2277368545647528 0  0.1629104300036858 0.2335315343742052 0  0.1682222986671726 0.2386028198193036 0  0.1742197252833576 0.2428413052501257 0  0.1807733240458683 0.2461555514727623 0  0.1877417105384929 0.2484740584176516 0  0.1949745518995776 0.2497468076502398 0  0.202315810036185 0.2499463414463592 0  0.2096071079201568 0.2490683551528932 0  0.2166911463435495 0.2471317900544655 0  0.2234150974215506 0.2441784247426195 0  0.2296339016331197 0.2402719738031125 0  0.2352133972703547 0.2354967132658811 0  0.2400332147833751 0.2299556624715287 0  0.2439893735792577 0.2237683615780412 0  0.246996525252926 0.2170682926548348 0  0.25645809709277 0.21 0  0.2639263993298655 0.21 0  0.271394701566961 0.21 0  0.2788630038040554 0.21 0  0.2863313060411479 0.21 0  0.2937996082782405 0.21 0  0.301267910515333 0.21 0  0.3087362127524279 0.21 0  0.3162045149895234 0.21 0  0.3236728172265972 0.21 0  0.3311411194636928 0.21 0  0.3386094217007701 0.21 0  0.3460777239378666 0.21 0  0.3535460261749672 0.21 0  0.3610143284120516 0.21 0  0.3684826306491596 0.21 0  0.3759509328862226 0.21 0  0.383419235123329 0.21 0  0.3908875373604028 0.21 0  0.3983558395975142 0.21 0  0.4058241418345938 0.21 0  0.4132924440716992 0.21 0  0.4207607463087888 0.21 0  0.4282290485459029 0.21 0  0.4356973507830418 0.21 0  0.4431656530201649 0.21 0  0.4506339552573136 0.21 0  0.4581022574944306 0.21 0  0.4655705597315852 0.21 0  0.4730388619686996 0.21 0  0.480507164205851 0.21 0  0.4879754664429498 0.21 0  0.4954437686800938 0.21 0  0.502912070917267 0.21 0  0.5103803731544119 0.21 0  0.5178486753915261 0.21 0  0.5253169776286404 0.21 0  0.5327852798657868 0.21 0  0.5402535821029386 0.21 0  0.54772188434007 0.21 0  0.5551901865771842 0.21 0  0.5626584888143201 0.21 0  0.5701267910514778 0.21 0  0.5775950932886138 0.21 0  0.5850633955257281 0.21 0  0.5925316977628483 0.21 0  0.6 0.2050000000000054 0  0.6 0.1950000000000217 0  0.5925316977628897 0.19 0  0.5850633955257988 0.19 0  0.5775950932887378 0.19 0  0.5701267910515998 0.19 0  0.5626584888145268 0.19 0  0.5551901865773963 0.19 0  0.547721884340339 0.19 0  0.5402535821032429 0.19 0  0.5327852798661811 0.19 0  0.5253169776290537 0.19 0  0.5178486753919799 0.19 0  0.5103803731549078 0.19 0  0.502912070917822 0.19 0  0.4954437686807294 0.19 0  0.4879754664436223 0.19 0  0.4805071642065402 0.19 0  0.4730388619694271 0.19 0  0.4655705597323621 0.19 0  0.4581022574952563 0.19 0  0.4506339552581777 0.19 0  0.4431656530210671 0.19 0  0.4356973507839815 0.19 0  0.4282290485468779 0.19 0  0.4207607463097617 0.19 0  0.4132924440726327 0.19 0  0.4058241418354857 0.19 0  0.3983558395983636 0.19 0  0.3908875373612097 0.19 0  0.3834192351240934 0.19 0  0.3759509328869369 0.19 0  0.3684826306498175 0.19 0  0.361014328412667 0.19 0  0.3535460261755617 0.19 0  0.3460777239384295 0.19 0  0.3386094217012945 0.19 0  0.3311411194641595 0.19 0  0.3236728172270245 0.19 0  0.3162045149898895 0.19 0  0.3087362127527544 0.19 0  0.3012679105156187 0.19 0  0.2937996082784807 0.19 0  0.2863313060413428 0.19 0  0.2788630038042048 0.19 0  0.2713947015670686 0.19 0  0.2639263993299336 0.19 0  0.2564580970927985 0.19 0  0.2607803159922026 0.2000727136295815 0  0.5887803774232762 0.2001272386983733 0  0.5745072403740523 0.2002044435018727 0  0.5511891430099709 0.2001122610077113 0  0.2751288526855082 0.20000000000002 0  0.5365194309847112 0.1999999999999436 0  0.2894621222999649 0.1998691686390484 0  0.5215828265105155 0.1999999999999228 0  0.3127789816668748 0.1998657885438805 0  0.3274069683451451 0.2000000000000796 0  0.5066462220363641 0.199999999999908 0  0.3650630746574081 0.199866017807523 0  0.476773013087985 0.1999999999998713 0  0.3417402379596385 0.1998691686391011 0  0.3796850840047755 0.200000000000134 0  0.4618364086138087 0.1999999999998546 0  0.4917096175621762 0.1999999999998808 0  0.3946216884789568 0.2000000000001512 0  0.446899804139621 0.1999999999998389 0  0.4089549580935208 0.1998691686391595 0  0.4322718174608562 0.200127451265745 0  0.4201487168029707 0.1999966199048527 0  0.3528922713220932 0.2000185703532356 0  0.5633122436674589 0.1999814296467508 0  0.3006558810093873 0.1999966199048318 0  0.5815926498168407 0.1966545283159175 0  0.2677053789419034 0.1964246479135325 0  0.5290511287476175 0.1970915826863981 0  0.5439877332217911 0.197091582686394 0  0.2825131256993216 0.2035478995978015 0  0.3199386661080599 0.202908417313604 0  0.4842413153250809 0.1970915826863873 0  0.5141145242734466 0.1970915826863843 0  0.3722167817676917 0.2029084173136195 0  0.4693047108508938 0.1970915826863783 0  0.3348752705822316 0.202908417313609 0  0.3871533862418661 0.2029084173136212 0  0.4543681063767183 0.1970915826863795 0  0.4991779197992749 0.1970915826863902 0  0.4020059614928624 0.203547899597858 0  0.4394315019025246 0.1970915826863714 0  0.2550657455369551 0.2034088125358657 0  0.2548908499171161 0.1966940311614271 0  0.5946539510196798 0.2024302972968126 0  0.267698176732111 0.2039977513680092 0  0.4261685417851465 0.196409292431739 0  0.3590076176283495 0.196411355804271 0  0.5571672426447437 0.2036011176410121 0  0.3066757059912147 0.1964092924317024 0  0.594380730180568 0.1966558399668133 0  0.4842413153245942 0.2040749161535287 0  0.4693047108503577 0.2040749161535231 0  0.3871533862424271 0.1959250838464788 0  0.372246743208829 0.1959123236376545 0  0.5141145242731028 0.2040749161535395 0  0.4543681063761134 0.2040749161535186 0  0.4019979587101454 0.1959834479682427 0  0.4394608940728603 0.2040870543693135 0  0.5439623148931173 0.2040856076781014 0  0.5290511287473298 0.2040749161535501 0  0.4991779197988497 0.2040749161535382 0  0.3347912413592433 0.1959225448935183 0  0.3199680582793816 0.1959123018030061 0  0.2825051229162361 0.1959834479681729 0  0.3590471196690275 0.2036304442587945 0  0.5571594006495384 0.1963685282145804 0  0.3067669986803285 0.203627750582736 0  0.4262598344738712 0.2036568242185335 0  0.5814408164431408 0.2041285596160068 0  0.5688286748170428 0.1961819304477386 0  0.4145905603063645 0.2038180695522843 0  0.3473758401724931 0.2038180695522752 0  0.2950977245128307 0.2038180695522663 0  0.5688286748170693 0.203818069552238 0  0.2950977245127906 0.1961819304477774 0  0.3473758401723931 0.1961819304478349 0  0.4145905603061963 0.1961819304479011 0  0.2601812407614425 0.2056861609747042
[...]
<PointData  Vectors="f_40-0"> 
<DataArray  type="Float64"  Name="f_40-0"  NumberOfComponents="3" format="ascii">0.0000000000000000e+00 0.0000000000000000e+00 0.0000000000000000e+00  0.0000000000000000e+00 0.0000000000000000e+00 0.0000000000000000e+00  0.0000000000000000e+00 0.0000000000000000e+00 0.0000000000000000e+00  0.0000000000000000e+00 0.0000000000000000e+00 0.0000000000000000e+00  -1.3652540570645019e-05 -2.9063391773567776e-04 0.0000000000000000e+00  9.7710442750720917e-06 -2.9657947985943251e-04 0.0000000000000000e+00  0.0000000000000000e+00 0.0000000000000000e+00 0.0000000000000000e+00  0.0000000000000000e+00 0.0000000000000000e+00 0.0000000000000000e+00  0.0000000000000000e+00 0.0000000000000000e+00 0.0000000000000000e+00  0.0000000000000000e+00 0.0000000000000000e+00 0.0000000000000000e+00  -2.5159237404236034e-06 -2.9361018386359891e-04 0.0000000000000000e+00  4.3006760339248384e-02 0.0000000000000000e+00 0.0000000000000000e+00  7.9397096010925372e-02 0.0000000000000000e+00 0.0000000000000000e+00  1.0917100701502241e-01 0.0000000000000000e+00 0.0000000000000000e+00  1.3232849335157396e-01 0.0000000000000000e+00 0.0000000000000000e+00  1.4886955502057703e-01 0.0000000000000000e+00 0.0000000000000000e+00  1.5879419202203063e-01 0.0000000000000000e+00 0.0000000000000000e+00  1.6210240435592482e-01 0.0000000000000000e+00 0.0000000000000000e+00  1.5879419202223127e-01 0.0000000000000000e+00 0.0000000000000000e+00  1.4886955502092170e-01 0.0000000000000000e+00 0.0000000000000000e+00  1.3232849335200078e-01 0.0000000000000000e+00 0.0000000000000000e+00  1.0917100701542788e-01 0.0000000000000000e+00 0.0000000000000000e+00  7.9397096011271387e-02 0.0000000000000000e+00 0.0000000000000000e+00  4.3006760339443346e-02 0.0000000000000000e+00 0.0000000000000000e+00  0.0000000000000000e+00 0.0000000000000000e+00 0.0000000000000000e+00  0.0000000000000000e+00 0.0000000000000000e+00 0.0000000000000000e+00  0.0000000000000000e+00 0.0000000000000000e+00 0.0000000000000000e+00  0.0000000000000000e+00 0.0000000000000000e+00 0.0000000000000000e+00  0.0000000000000000e+00 0.0000000000000000e+00 0.0000000000000000e+00  0.0000000000000000e+00 0.0000000000000000e+00 0.0000000000000000e+00  0.0000000000000000e+00 0.0000000000000000e+00 0.0000000000000000e+00  0.0000000000000000e+00 0.0000000000000000e+00 0.0000000000000000e+00  0.0000000000000000e+00 0.0000000000000000e+00 0.0000000000000000e+00  0.0000000000000000e+00 0.0000000000000000e+00 0.0000000000000000e+00  0.0000000000000000e+00 0.0000000000000000e+00 0.0000000000000000e+00  0.0000000000000000e+00 0.0000000000000000e+00 0.0000000000000000e+00  0.0000000000000000e+00 0.0000000000000000e+00 0.0000000000000000e+00  0.0000000000000000e+00 0.0000000000000000e+00 0.0000000000000000e+00  0.0000000000000000e+00 0.0000000000000000e+00 0.0000000000000000e+00  0.0000000000000000e+00 0.0000000000000000e+00 0.0000000000000000e+00  0.0000000000000000e+00 0.0000000000000000e+00 0.0000000000000000e+00  0.0000000000000000e+00 0.0000000000000000e+00 0.0000000000000000e+00  0.0000000000000000e+00 0.0000000000000000e+00 0.0000000000000000e+00  0.0000000000000000e+00 0.0000000000000000e+00 0.0000000000000000e+00  0.0000000000000000e+00 0.0000000000000000e+00 0.0000000000000000e+00  0.0000000000000000e+00 0.0000000000000000e+00 0.0000000000000000e+00  0.0000000000000000e+00 0.0000000000000000e+00 0.0000000000000000e+00  0.0000000000000000e+00 0.0000000000000000e+00 0.0000000000000000e+00  0.0000000000000000e+00 0.0000000000000000e+00 0.0000000000000000e+00  0.0000000000000000e+00 0.0000000000000000e+00 0.0000000000000000e+00  0.0000000000000000e+00 0.0000000000000000e+00 0.0000000000000000e+00  0.0000000000000000e+00 0.0000000000000000e+00 0.0000000000000000e+00  0.0000000000000000e+00 0.0000000000000000e+00 0.0000000000000000e+00  0.0000000000000000e+00 0.0000000000000000e+00 0.0000000000000000e+00  0.0000000000000000e+00 0.0000000000000000e+00 0.0000000000000000e+00  0.0000000000000000e+00 0.0000000000000000e+00 0.0000000000000000e+00  0.0000000000000000e+00 0.0000000000000000e+00 0.0000000000000000e+00  0.0000000000000000e+00 0.0000000000000000e+00 0.0000000000000000e+00  0.0000000000000000e+00 0.0000000000000000e+00 0.0000000000000000e+00  0.0000000000000000e+00 0.0000000000000000e+00 0.0000000000000000e+00  0.0000000000000000e+00 0.0000000000000000e+00 0.0000000000000000e+00  0.0000000000000000e+00 0.0000000000000000e+00 0.0000000000000000e+00  1.5462622770215903e-01 6.5493541731108419e-03 0.0000000000000000e+00  1.0946650286412790e-01 -1.3641012571217307e-03 0.0000000000000000e+00  1.5610995328884272e-01 -6.6689135235440122e-03 0.0000000000000000e+00  0.0000000000000000e+00 0.0000000000000000e+00 0.0000000000000000e+00  0.0000000000000000e+00 0.0000000000000000e+00 0.0000000000000000e+00  0.0000000000000000e+00 0.0000000000000000e+00 0.0000000000000000e+00  0.0000000000000000e+00 0.0000000000000000e+00 0.0000000000000000e+00  0.0000000000000000e+00 0.0000000000000000e+00 0.0000000000000000e+00  0.0000000000000000e+00 0.0000000000000000e+00 0.0000000000000000e+00  0.0000000000000000e+00 0.0000000000000000e+00 0.0000000000000000e+00  0.0000000000000000e+00 0.0000000000000000e+00 0.0000000000000000e+00  0.0000000000000000e+00 0.0000000000000000e+00 0.0000000000000000e+00  0.0000000000000000e+00 0.0000000000000000e+00 0.0000000000000000e+00  0.0000000000000000e+00 0.0000000000000000e+00 0.0000000000000000e+00  0.0000000000000000e+00 0.0000000000000000e+00 0.0000000000000000e+00  0.0000000000000000e+00 0.0000000000000000e+00 0.0000000000000000e+00  0.0000000000000000e+00 0.0000000000000000e+00 0.0000000000000000e+00  0.0000000000000000e+00 0.0000000000000000e+00 0.0000000000000000e+00  0.0000000000000000e+00 0.0000000000000000e+00 0.0000000000000000e+00  0.0000000000000000e+00 0.0000000000000000e+00 0.0000000000000000e+00  0.0000000000000000e+00 0.0000000000000000e+00 0.0000000000000000e+00  0.0000000000000000e+00 0.0000000000000000e+00 0.0000000000000000e+00  0.0000000000000000e+00 0.0000000000000000e+00 0.0000000000000000e+00  0.0000000000000000e+00 0.0000000000000000e+00 0.0000000000000000e+00  0.0000000000000000e+00 0.0000000000000000e+00 0.0000000000000000e+00  0.0000000000000000e+00 0.0000000000000000e+00 0.0000000000000000e+00  0.0000000000000000e+00 0.0000000000000000e+00 0.0000000000000000e+00  0.0000000000000000e+00 0.0000000000000000e+00 0.0000000000000000e+00  0.0000000000000000e+00 0.0000000000000000e+00 0.0000000000000000e+00  0.0000000000000000e+00 0.0000000000000000e+00 0.0000000000000000e+00  0.0000000000000000e+00 0.0000000000000000e+00 0.0000000000000000e+00  0.0000000000000000e+00 0.0000000000000000e+00 0.0000000000000000e+00  0.0000000000000000e+00 0.0000000000000000e+00 0.0000000000000000e+00  0.0000000000000000e+00 0.0000000000000000e+00 0.0000000000000000e+00  0.0000000000000000e+00 0.0000000000000000e+00 0.0000000000000000e+00  0.0000000000000000e+00 0.0000000000000000e+00 0.0000000000000000e+00  0.0000000000000000e+00 0.0000000000000000e+00 0.0000000000000000e+00  0.0000000000000000e+00 0.0000000000000000e+00 0.0000000000000000e+00  0.0000000000000000e+00 0.0000000000000000e+00 0.0000000000000000e+00  0.0000000000000000e+00 0.0000000000000000e+00 0.0000000000000000e+00  0.0000000000000000e+00 0.0000000000000000e+00 0.0000000000000000e+00  0.0000000000000000e+00 0.0000000000000000e+00 0.0000000000000000e+00  0.0000000000000000e+00 0.0000000000000000e+00 0.0000000000000000e+00  0.0000000000000000e+00 0.0000000000000000e+00 0.0000000000000000e+00  0.0000000000000000e+00 0.0000000000000000e+00 0.0000000000000000e+00  0.0000000000000000e+00 0.0000000000000000e+00 0.0000000000000000e+00  0.0000000000000000e+00 0.0000000000000000e+00 0.0000000000000000e+00  0.0000000000000000e+00 0.0000000000000000e+00 0.0000000000000000e+00  0.0000000000000000e+00 0.0000000000000000e+00 0.0000000000000000e+00  0.0000000000000000e+00 0.0000000000000000e+00 0.0000000000000000e+00  0.0000000000000000e+00 0.0000000000000000e+00 0.0000000000000000e+00  0.0000000000000000e+00 0.0000000000000000e+00 0.0000000000000000e+00  0.0000000000000000e+00 0.0000000000000000e+00 0.0000000000000000e+00  0.0000000000000000e+00 0.0000000000000000e+00 0.0000000000000000e+00  0.0000000000000000e+00 0.0000000000000000e+00 0.0000000000000000e+00  0.0000000000000000e+00 0.0000000000000000e+00 0.0000000000000000e+00  0.0000000000000000e+00 0.0000000000000000e+00 0.0000000000000000e+00  0.0000000000000000e+00 0.0000000000000000e+00 0.0000000000000000e+00  0.0000000000000000e+00 0.0000000000000000e+00 0.0000000000000000e+00  0.0000000000000000e+00 0.0000000000000000e+00 0.0000000000000000e+00  0.0000000000000000e+00 0.0000000000000000e+00 0.0000000000000000e+00  0.0000000000000000e+00 0.0000000000000000e+00 0.0000000000000000e+00  0.0000000000000000e+00 0.0000000000000000e+00 0.0000000000000000e+00  0.0000000000000000e+00 0.0000000000000000e+00 0.0000000000000000e+00  0.0000000000000000e+00 0.0000000000000000e+00 0.0000000000000000e+00  0.0000000000000000e+00 0.0000000000000000e+00 0.0000000000000000e+00  0.0000000000000000e+00 0.0000000000000000e+00 0.0000000000000000e+00  0.0000000000000000e+00 0.0000000000000000e+00 0.0000000000000000e+00  0.0000000000000000e+00 0.0000000000000000e+00 0.0000000000000000e+00  0.0000000000000000e+00 0.0000000000000000e+00 0.0000000000000000e+00  0.0000000000000000e+00 0.0000000000000000e+00 0.0000000000000000e+00  0.0000000000000000e+00 0.0000000000000000e+00 0.0000000000000000e+00  0.0000000000000000e+00 0.0000000000000000e+00 0.0000000000000000e+00  0.0000000000000000e+00 0.0000000000000000e+00 0.0000000000000000e+00  0.0000000000000000e+00 0.0000000000000000e+00 0.0000000000000000e+00  0.0000000000000000e+00 0.0000000000000000e+00 0.0000000000000000e+00  0.0000000000000000e+00 0.0000000000000000e+00 0.0000000000000000e+00  0.0000000000000000e+00 0.0000000000000000e+00 0.0000000000000000e+00  0.0000000000000000e+00 0.0000000000000000e+00 0.0000000000000000e+00  0.0000000000000000e+00 0.0000000000000000e+00 0.0000000000000000e+00  0.0000000000000000e+00 0.0000000000000000e+00 0.0000000000000000e+00  1.0721296743216840e-06 -5.9337462839944284e-06 0.0000000000000000e+00  2.4205272274584046e-06 -6.9885662899740475e-06 0.0000000000000000e+00  3.9982770719426018e-06 -8.1504476057573361e-06 0.0000000000000000e+00  5.7534104532888945e-06 -9.5873914142607628e-06 0.0000000000000000e+00  7.4314394834245523e-06 -1.1401570335388002e-05 0.0000000000000000e+00  9.1283324231831826e-06 -1.3694705780392454e-05 0.0000000000000000e+00  1.0668148662806447e-05 -1.6299895744949491e-05 0.0000000000000000e+00  1.2128044894257397e-05 -1.9333432827535375e-05 0.0000000000000000e+00  1.3619941512757998e-05 -2.2699885304233464e-05 0.0000000000000000e+00  1.4910775235362429e-05 -2.6392255645536994e-05 0.0000000000000000e+00  1.6242376817896474e-05 -3.0458297713507044e-05 0.0000000000000000e+00  1.7379270997424131e-05 -3.4808183658919232e-05 0.0000000000000000e+00  1.8521362800182757e-05 -3.9486041705133956e-05 0.0000000000000000e+00  1.9517054455465802e-05 -4.4420996668119649e-05 0.0000000000000000e+00  2.0428015280706582e-05 -4.9659051909241527e-05 0.0000000000000000e+00  2.1342566949504711e-05 -5.5154799708352837e-05 0.0000000000000000e+00  2.2083672898418364e-05 -6.0865350185248191e-05 0.0000000000000000e+00  2.2826168838967541e-05 -6.6863421710902798e-05 0.0000000000000000e+00  2.3407507796405149e-05 -7.3034378379580481e-05 0.0000000000000000e+00  2.3982361291271533e-05 -7.9458036748220742e-05 0.0000000000000000e+00  2.4421238555685269e-05 -8.6041043217950267e-05 0.0000000000000000e+00  2.4816471081580646e-05 -9.2847234548352895e-05 0.0000000000000000e+00  2.5105883359470991e-05 -9.9803497242255352e-05 0.0000000000000000e+00  2.5312725612883717e-05 -1.0693923465918321e-04 0.0000000000000000e+00  2.5494207407240451e-05 -1.1423059045601483e-04 0.0000000000000000e+00  2.5558827655782629e-05 -1.2164357173974358e-04 0.0000000000000000e+00  2.5554517533270663e-05 -1.2924445191820233e-04 0.0000000000000000e+00  2.5465300183342878e-05 -1.3691978352794326e-04 0.0000000000000000e+00  2.5306061977095640e-05 -1.4475940486737417e-04 0.0000000000000000e+00  2.5063060438930486e-05 -1.5266450087727016e-04 0.0000000000000000e+00  2.4752296755550742e-05 -1.6070897654478581e-04 0.0000000000000000e+00  2.4354986062436813e-05 -1.6879954141616632e-04 0.0000000000000000e+00  2.3894176393553107e-05 -1.7701504491903332e-04 0.0000000000000000e+00  2.3345417380383796e-05 -1.8525311759654499e-04 0.0000000000000000e+00  2.2723164823388928e-05 -1.9360880651803729e-04 0.0000000000000000e+00  2.2023637167196082e-05 -2.0197375311454004e-04 0.0000000000000000e+00  2.1254584551907587e-05 -2.1043138944501066e-04 0.0000000000000000e+00  2.0406975700236149e-05 -2.1888839023356810e-04 0.0000000000000000e+00  1.9486434490745655e-05 -2.2742379971315175e-04 0.0000000000000000e+00  1.8484316532627703e-05 -2.3594928932115265e-04 0.0000000000000000e+00  1.7403707277682493e-05 -2.4452653402537287e-04 0.0000000000000000e+00  1.6256903283798719e-05 -2.5310391504741563e-04 0.0000000000000000e+00  1.5025337468511902e-05 -2.6170929508538429e-04 0.0000000000000000e+00  1.3751018663188751e-05 -2.7031704095281455e-04 0.0000000000000000e+00  1.2389396429856884e-05 -2.7890702055059286e-04 0.0000000000000000e+00  1.1013349178329362e-05 -2.8757549644922487e-04 0.0000000000000000e+00  3.4305846030065848e-06 -2.9507729840326036e-04 0.0000000000000000e+00  -8.2490285694943944e-06 -2.9214462093924662e-04 0.0000000000000000e+00  -1.2367177583917654e-05 -2.8217463511561407e-04 0.0000000000000000e+00  -1.0956521863618467e-05 -2.7337793317618497e-04 0.0000000000000000e+00  -9.5593488625477988e-06 -2.6454556295839581e-04 0.0000000000000000e+00  -8.2396535819073655e-06 -2.5575536698961402e-04 0.0000000000000000e+00  -6.9635675437777205e-06 -2.4698009544996813e-04 0.0000000000000000e+00  -5.7686888473706441e-06 -2.3822641756130115e-04 0.0000000000000000e+00  -4.6180407107016153e-06 -2.2950023246469476e-04 0.0000000000000000e+00  -3.5474839573633382e-06 -2.2078123060480402e-04 0.0000000000000000e+00  -2.5245563479742112e-06 -2.1212762218880576e-04 0.0000000000000000e+00  -1.5750638610688871e-06 -2.0347356826809620e-04 0.0000000000000000e+00  -6.6808773410632157e-07 -1.9489875310880662e-04 0.0000000000000000e+00  1.6357454360179469e-07 -1.8633748938359399e-04 0.0000000000000000e+00  9.5931197126437040e-07 -1.7787000263915940e-04 0.0000000000000000e+00  1.6780560432070978e-06 -1.6943215891117785e-04 0.0000000000000000e+00  2.3676571573973357e-06 -1.6110423609265635e-04 0.0000000000000000e+00  2.9755864186870970e-06 -1.5282217816816124e-04 0.0000000000000000e+00  3.5619268958988154e-06 -1.4466327446315927e-04 0.0000000000000000e+00  4.0601507727407069e-06 -1.3656637253932607e-04 0.0000000000000000e+00  4.5430532098094812e-06 -1.2861464326734836e-04 0.0000000000000000e+00  4.9345235885892168e-06 -1.2074636956349160e-04 0.0000000000000000e+00  5.3201892277529592e-06 -1.1304124459926615e-04 0.0000000000000000e+00  5.6072242033765698e-06 -1.0544054849521639e-04 0.0000000000000000e+00  5.8828401375517438e-06 -9.8009332240862158e-05 0.0000000000000000e+00  6.0791594946466664e-06 -9.0714773921820224e-05 0.0000000000000000e+00  6.2101200272251811e-06 -8.3612478242197429e-05 0.0000000000000000e+00  6.3521174328086516e-06 -7.6663818327300733e-05 0.0000000000000000e+00  6.4005689656497871e-06 -6.9898856300965804e-05 0.0000000000000000e+00  6.4248164016092941e-06 -6.3364946321222364e-05 0.0000000000000000e+00  6.3765948796937960e-06 -5.7003241833996638e-05 0.0000000000000000e+00  6.3012269348412625e-06 -5.0903035410135988e-05 0.0000000000000000e+00  6.1544035640430806e-06 -4.4990650695252652e-05 0.0000000000000000e+00  6.0014737631095195e-06 -3.9386600754795200e-05 0.0000000000000000e+00  5.7570857963410079e-06 -3.3984136114079092e-05 0.0000000000000000e+00  5.4536645757234939e-06 -2.8914634098297126e-05 0.0000000000000000e+00  5.1875364356490856e-06 -2.4073700712037962e-05 0.0000000000000000e+00  4.8210957977409931e-06 -1.9560876640754755e-05 0.0000000000000000e+00  4.4409147039539884e-06 -1.5387006609380981e-05 0.0000000000000000e+00  3.9832330174282252e-06 -1.1511372791239934e-05 0.0000000000000000e+00  3.5410105299009060e-06 -8.0376093485113067e-06 0.0000000000000000e+00  2.9878212721741433e-06 -4.8611744561363645e-06 0.0000000000000000e+00  2.3768014315357255e-06 -2.1231934701710791e-06 0.0000000000000000e+00  1.8359830971996803e-06 2.8993175834558550e-07 0.0000000000000000e+00  1.1780926541383216e-06 2.3143017792242475e-06 0.0000000000000000e+00  6.3344118729399196e-07 3.8918737468937005e-06 0.0000000000000000e+00  1.2794907332050978e-07 4.8630991915860750e-06 0.0000000000000000e+00  -1.3836541089489589e-08 5.0666954487327933e-06 0.0000000000000000e+00  -1.0618528367003508e-07 -4.6918410587799945e-07 0.0000000000000000e+00  -2.8166938961838311e-08 -2.8051181594779875e-04 0.0000000000000000e+00  2.8142307844839031e-06 -2.6387961283739141e-04 0.0000000000000000e+00  6.4909308036519282e-06 -2.3675751136177130e-04 0.0000000000000000e+00  2.8226746391140476e-06 -2.5570350839917415e-06 0.0000000000000000e+00  8.3875542996792267e-06 -2.1977751583971314e-04 0.0000000000000000e+00  5.0374569312289524e-06 -6.1467887805581724e-06 0.0000000000000000e+00  1.0192827959462975e-05 -2.0265719042168823e-04 0.0000000000000000e+00  8.2465847785005342e-06 -1.5183496344622487e-05 0.0000000000000000e+00  1.0044667004841774e-05 -2.2698902036375734e-05 0.0000000000000000e+00  1.1732075478875944e-05 -1.8572054747038083e-04 0.0000000000000000e+00  1.3352512851181053e-05 -4.7261778117603479e-05 0.0000000000000000e+00  1.4022980747302043e-05 -1.5264063699977788e-04 0.0000000000000000e+00  1.1453001586093555e-05 -3.1125684903863324e-05 0.0000000000000000e+00  1.4334826988281217e-05 -5.8731193343602261e-05 0.0000000000000000e+00  1.4778983259595648e-05 -1.3662807460491417e-04 0.0000000000000000e+00  1.3008238807820137e-05 -1.6902654861133888e-04 0.0000000000000000e+00  1.4994212127699897e-05 -7.1276955426323940e-05 0.0000000000000000e+00  1.5275925151453891e-05 -1.2106755394905192e-04 0.0000000000000000e+00  1.5272995065083058e-05 -8.4025235023216433e-05 0.0000000000000000e+00  1.5647402500643727e-05 -1.0639543475352543e-04 0.0000000000000000e+00  1.5504173569341950e-05 -9.4593029621634878e-05 0.0000000000000000e+00  1.2515485256415218e-05 -3.8629067903630146e-05 0.0000000000000000e+00  4.4290913015974481e-06 -2.5078763127218680e-04 0.0000000000000000e+00  6.6687611903852844e-06 -1.0163951599860277e-05 0.0000000000000000e+00  -2.6433460246745820e-06 -2.7115488914835570e-04 0.0000000000000000e+00  9.5520990979828581e-07 9.3904010716076351e-07 0.0000000000000000e+00  5.9976449100406115e-06 -2.1020443435025872e-04 0.0000000000000000e+00  4.0326184198236508e-06 -2.2744109100682937e-04 0.0000000000000000e+00  4.8975649286472850e-06 -6.3920168685719393e-06 0.0000000000000000e+00  1.0651331944082239e-05 -2.0379521842770767e-05 0.0000000000000000e+00  1.0367364336273332e-05 -1.5966652143193150e-04 0.0000000000000000e+00  7.7065574833568449e-06 -1.9312458718914825e-04 0.0000000000000000e+00  1.6166685281711277e-05 -5.4275924178713630e-05 0.0000000000000000e+00  1.1327022090857862e-05 -1.4341472963648531e-04 0.0000000000000000e+00  1.2555974605219846e-05 -2.8585156988495495e-05 0.0000000000000000e+00  1.7123971359177475e-05 -6.6337683283665744e-05 0.0000000000000000e+00  1.2040920537235886e-05 -1.2757538631017181e-04 0.0000000000000000e+00  9.1615676230111542e-06 -1.7625686591100678e-04 0.0000000000000000e+00  1.8384179709868930e-05 -7.9491603783897447e-05 0.0000000000000000e+00  1.2511797858918860e-05 -1.1222832992541638e-04 0.0000000000000000e+00  -6.1105559727953457e-07 -1.4201206462903300e-06 0.0000000000000000e+00  -7.8633505302664309e-07 1.1274614693835483e-06 0.0000000000000000e+00  1.4472548380348528e-06 -2.8800455788446135e-04 0.0000000000000000e+00  2.0597420387636152e-06 -3.8124163656816511e-06 0.0000000000000