<?xml version="1.0"?>
<VTKFile type="UnstructuredGrid"  version="0.1"  >
<UnstructuredGrid>
<Piece  NumberOfPoints="1419" NumberOfCells="2698">
<Points>
<DataArray  type="Float64"  NumberOfComponents="3"  format="ascii">0 0 0  0 0.41 0  2.5 0 0  2.5 0.41 0  0.6 0.19 0  0.6 0.21 0  0.25 0.2 0  0.15 0.2 0  0.2489897948556636 0.21 0  0.2489897948556636 0.19 0  0.6 0.2 0  0 0.3807142857143437 0  0 0.3514285714286952 0  0 0.3221428571430699 0  0 0.29285714285744 0  0 0.2635714285718054 0  0 0.2342857142861561 0  0 0.2050000000005308 0  0 0.175714285714732 0  0 0.1464285714289574 0  0 0.1171428571431897 0  0 0.08785714285737878 0  0 0.05857142857161107 0  0 0.02928571428580012 0  0.03015443760436003 0 0  0.06140001986583606 0 0  0.09377624077125973 0 0  0.1273239957535082 0 0  0.1620856860351972 0 0  0.1981052433264291 0 0  0.235428184091502 0 0  0.2741016576309132 0 0  0.3141745521465447 0 0  0.3556974926295285 0 0  0.3987229542472677 0 0  0.4433053055141081 0 0  0.4895008759286886 0 0  0.5373680609405097 0 0  0.5869673343216626 0 0  0.6383613676634521 0 0  0.6916151138468254 0 0  0.7467958595648856 0 0  0.8039733463919316 0 0  0.8632198139502143 0 0  0.9246101326867038 0 0  0.9882218810934433 0 0  1.054135445558498 0 0  1.122434100542598 0 0  1.193204177141305 0 0  1.266535089879536 0 0  1.342519516046404 0 0  1.421253448503939 0 0  1.502836389106271 0 0  1.587371439758838 0 0  1.674965418777374 0 0  1.765729001825544 0 0  1.859776908880082 0 0  1.957227977487062 0 0  2.058205329869943 0 0  2.162836591189951 0 0  2.271253957290865 0 0  2.383594446803425 0 0  2.5 0.1024999999997612 0  2.5 0.2049999999994743 0  2.5 0.3074999999997183 0  2.383594446803656 0.41 0  2.271253957291315 0.41 0  2.162836591190598 0.41 0  2.058205329870775 0.41 0  1.957227977488067 0.41 0  1.859776908881246 0.41 0  1.765729001826854 0.41 0  1.674965418778818 0.41 0  1.58737143976041 0.41 0  1.502836389107956 0.41 0  1.421253448505726 0.41 0  1.342519516048286 0.41 0  1.266535089881505 0.41 0  1.193204177143353 0.41 0  1.122434100544716 0.41 0  1.05413544556068 0.41 0  0.9882218810956305 0.41 0  0.9246101326886647 0.41 0  0.8632198139519631 0.41 0  0.8039733463934788 0.41 0  0.7467958595662458 0.41 0  0.6916151138480078 0.41 0  0.6383613676644679 0.41 0  0.5869673343225223 0.41 0  0.5373680609412221 0.41 0  0.4895008759292634 0.41 0  0.4433053055145528 0.41 0  0.3987229542475914 0.41 0  0.3556974926297398 0.41 0  0.3141745521466497 0.41 0  0.2741016576310038 0.41 0  0.2354281840915826 0.41 0  0.1981052433265003 0.41 0  0.1620856860352591 0.41 0  0.1273239957535623 0.41 0  0.09377624077128965 0.41 0  0.06140001986584975 0.41 0  0.03015443760436654 0.41 0  0.2497468076502589 0.2050254481002335 0  0.2497468076502614 0.1949745518997913 0  0.2469965252529372 0.1829317073451959 0  0.2439893735792749 0.1762316384219906 0  0.2400332147834255 0.1700443375285386 0  0.2352133972704371 0.1645032867342007 0  0.2296339016332438 0.1597280261969788 0  0.2234150974217223 0.1558215752574715 0  0.2166911463437691 0.1528682099456123 0  0.2096071079204251 0.1509316448471593 0  0.2023158100364996 0.1500536585536553 0  0.194974551899914 0.1502531923497262 0  0.1877417105387872 0.1515259415822739 0  0.1807733240461124 0.153844448527136 0  0.1742197252835808 0.15715869474974 0  0.1682222986673531 0.1613971801805478 0  0.162910430003803 0.1664684656256651 0  0.1583987151779087 0.1722631454351573 0  0.1547844879126891 0.178656207771761 0  0.1521457199348551 0.1855097315605723 0  0.1505393388476355 0.1926758619366523 0  0.1505393388476328 0.2073241380633295 0  0.1521457199348437 0.2144902684393899 0  0.1547844879126531 0.221343792228163 0  0.1583987151778488 0.2277368545647528 0  0.1629104300036858 0.2335315343742052 0  0.1682222986671726 0.2386028198193036 0  0.1742197252833576 0.2428413052501257 0  0.1807733240458683 0.2461555514727623 0  0.1877417105384929 0.2484740584176516 0  0.1949745518995776 0.2497468076502398 0  0.202315810036185 0.2499463414463592 0  0.2096071079201568 0.2490683551528932 0  0.2166911463435495 0.2471317900544655 0  0.2234150974215506 0.2441784247426195 0  0.2296339016331197 0.2402719738031125 0  0.2352133972703547 0.2354967132658811 0  0.2400332147833751 0.2299556624715287 0  0.2439893735792577 0.2237683615780412 0  0.246996525252926 0.2170682926548348 0  0.25645809709277 0.21 0  0.2639263993298655 0.21 0  0.271394701566961 0.21 0  0.2788630038040554 0.21 0  0.2863313060411479 0.21 0  0.2937996082782405 0.21 0  0.301267910515333 0.21 0  0.3087362127524279 0.21 0  0.3162045149895234 0.21 0  0.3236728172265972 0.21 0  0.3311411194636928 0.21 0  0.3386094217007701 0.21 0  0.3460777239378666 0.21 0  0.3535460261749672 0.21 0  0.3610143284120516 0.21 0  0.3684826306491596 0.21 0  0.3759509328862226 0.21 0  0.383419235123329 0.21 0  0.3908875373604028 0.21 0  0.3983558395975142 0.21 0  0.4058241418345938 0.21 0  0.4132924440716992 0.21 0  0.4207607463087888 0.21 0  0.4282290485459029 0.21 0  0.4356973507830418 0.21 0  0.4431656530201649 0.21 0  0.4506339552573136 0.21 0  0.4581022574944306 0.21 0  0.4655705597315852 0.21 0  0.4730388619686996 0.21 0  0.480507164205851 0.21 0  0.4879754664429498 0.21 0  0.4954437686800938 0.21 0  0.502912070917267 0.21 0  0.5103803731544119 0.21 0  0.5178486753915261 0.21 0  0.5253169776286404 0.21 0  0.5327852798657868 0.21 0  0.5402535821029386 0.21 0  0.54772188434007 0.21 0  0.5551901865771842 0.21 0  0.5626584888143201 0.21 0  0.5701267910514778 0.21 0  0.5775950932886138 0.21 0  0.5850633955257281 0.21 0  0.5925316977628483 0.21 0  0.6 0.2050000000000054 0  0.6 0.1950000000000217 0  0.5925316977628897 0.19 0  0.5850633955257988 0.19 0  0.5775950932887378 0.19 0  0.5701267910515998 0.19 0  0.5626584888145268 0.19 0  0.5551901865773963 0.19 0  0.547721884340339 0.19 0  0.5402535821032429 0.19 0  0.5327852798661811 0.19 0  0.5253169776290537 0.19 0  0.5178486753919799 0.19 0  0.5103803731549078 0.19 0  0.502912070917822 0.19 0  0.4954437686807294 0.19 0  0.4879754664436223 0.19 0  0.4805071642065402 0.19 0  0.4730388619694271 0.19 0  0.4655705597323621 0.19 0  0.4581022574952563 0.19 0  0.4506339552581777 0.19 0  0.4431656530210671 0.19 0  0.4356973507839815 0.19 0  0.4282290485468779 0.19 0  0.4207607463097617 0.19 0  0.4132924440726327 0.19 0  0.4058241418354857 0.19 0  0.3983558395983636 0.19 0  0.3908875373612097 0.19 0  0.3834192351240934 0.19 0  0.3759509328869369 0.19 0  0.3684826306498175 0.19 0  0.361014328412667 0.19 0  0.3535460261755617 0.19 0  0.3460777239384295 0.19 0  0.3386094217012945 0.19 0  0.3311411194641595 0.19 0  0.3236728172270245 0.19 0  0.3162045149898895 0.19 0  0.3087362127527544 0.19 0  0.3012679105156187 0.19 0  0.2937996082784807 0.19 0  0.2863313060413428 0.19 0  0.2788630038042048 0.19 0  0.2713947015670686 0.19 0  0.2639263993299336 0.19 0  0.2564580970927985 0.19 0  0.2607803159922026 0.2000727136295815 0  0.5887803774232762 0.2001272386983733 0  0.5745072403740523 0.2002044435018727 0  0.5511891430099709 0.2001122610077113 0  0.2751288526855082 0.20000000000002 0  0.5365194309847112 0.1999999999999436 0  0.2894621222999649 0.1998691686390484 0  0.5215828265105155 0.1999999999999228 0  0.3127789816668748 0.1998657885438805 0  0.3274069683451451 0.2000000000000796 0  0.5066462220363641 0.199999999999908 0  0.3650630746574081 0.199866017807523 0  0.476773013087985 0.1999999999998713 0  0.3417402379596385 0.1998691686391011 0  0.3796850840047755 0.200000000000134 0  0.4618364086138087 0.1999999999998546 0  0.4917096175621762 0.1999999999998808 0  0.3946216884789568 0.2000000000001512 0  0.446899804139621 0.1999999999998389 0  0.4089549580935208 0.1998691686391595 0  0.4322718174608562 0.200127451265745 0  0.4201487168029707 0.1999966199048527 0  0.3528922713220932 0.2000185703532356 0  0.5633122436674589 0.1999814296467508 0  0.3006558810093873 0.1999966199048318 0  0.5815926498168407 0.1966545283159175 0  0.2677053789419034 0.1964246479135325 0  0.5290511287476175 0.1970915826863981 0  0.5439877332217911 0.197091582686394 0  0.2825131256993216 0.2035478995978015 0  0.3199386661080599 0.202908417313604 0  0.4842413153250809 0.1970915826863873 0  0.5141145242734466 0.1970915826863843 0  0.3722167817676917 0.2029084173136195 0  0.4693047108508938 0.1970915826863783 0  0.3348752705822316 0.202908417313609 0  0.3871533862418661 0.2029084173136212 0  0.4543681063767183 0.1970915826863795 0  0.4991779197992749 0.1970915826863902 0  0.4020059614928624 0.203547899597858 0  0.4394315019025246 0.1970915826863714 0  0.2550657455369551 0.2034088125358657 0  0.2548908499171161 0.1966940311614271 0  0.5946539510196798 0.2024302972968126 0  0.267698176732111 0.2039977513680092 0  0.4261685417851465 0.196409292431739 0  0.3590076176283495 0.196411355804271 0  0.5571672426447437 0.2036011176410121 0  0.3066757059912147 0.1964092924317024 0  0.594380730180568 0.1966558399668133 0  0.4842413153245942 0.2040749161535287 0  0.4693047108503577 0.2040749161535231 0  0.3871533862424271 0.1959250838464788 0  0.372246743208829 0.1959123236376545 0  0.5141145242731028 0.2040749161535395 0  0.4543681063761134 0.2040749161535186 0  0.4019979587101454 0.1959834479682427 0  0.4394608940728603 0.2040870543693135 0  0.5439623148931173 0.2040856076781014 0  0.5290511287473298 0.2040749161535501 0  0.4991779197988497 0.2040749161535382 0  0.3347912413592433 0.1959225448935183 0  0.3199680582793816 0.1959123018030061 0  0.2825051229162361 0.1959834479681729 0  0.3590471196690275 0.2036304442587945 0  0.5571594006495384 0.1963685282145804 0  0.3067669986803285 0.203627750582736 0  0.4262598344738712 0.2036568242185335 0  0.5814408164431408 0.2041285596160068 0  0.5688286748170428 0.1961819304477386 0  0.4145905603063645 0.2038180695522843 0  0.3473758401724931 0.2038180695522752 0  0.2950977245128307 0.2038180695522663 0  0.5688286748170693 0.203818069552238 0  0.2950977245127906 0.1961819304477774 0  0.3473758401723931 0.1961819304478349 0  0.4145905603061963 0.1961819304479011 0  0.2601812407614425 0.2056861609747042
[...]
<PointData  Vectors="f_40-0"> 
<DataArray  type="Float64"  Name="f_40-0"  NumberOfComponents="3" format="ascii">0.0000000000000000e+00 0.0000000000000000e+00 0.0000000000000000e+00  0.0000000000000000e+00 0.0000000000000000e+00 0.0000000000000000e+00  0.0000000000000000e+00 0.0000000000000000e+00 0.0000000000000000e+00  0.0000000000000000e+00 0.0000000000000000e+00 0.0000000000000000e+00  -1.3907403494486666e-05 -2.3761248332036274e-04 0.0000000000000000e+00  5.0348598770059054e-06 -2.4365163199525393e-04 0.0000000000000000e+00  0.0000000000000000e+00 0.0000000000000000e+00 0.0000000000000000e+00  0.0000000000000000e+00 0.0000000000000000e+00 0.0000000000000000e+00  0.0000000000000000e+00 0.0000000000000000e+00 0.0000000000000000e+00  0.0000000000000000e+00 0.0000000000000000e+00 0.0000000000000000e+00  -4.9943992030724812e-06 -2.4063632749071840e-04 0.0000000000000000e+00  3.5670613426682880e-02 0.0000000000000000e+00 0.0000000000000000e+00  6.5853440172342001e-02 0.0000000000000000e+00 0.0000000000000000e+00  9.0548480236970250e-02 0.0000000000000000e+00 0.0000000000000000e+00  1.0975573362059626e-01 0.0000000000000000e+00 0.0000000000000000e+00  1.2347520032321753e-01 0.0000000000000000e+00 0.0000000000000000e+00  1.3170688034483319e-01 0.0000000000000000e+00 0.0000000000000000e+00  1.3445077368543507e-01 0.0000000000000000e+00 0.0000000000000000e+00  1.3170688034499961e-01 0.0000000000000000e+00 0.0000000000000000e+00  1.2347520032350338e-01 0.0000000000000000e+00 0.0000000000000000e+00  1.0975573362095030e-01 0.0000000000000000e+00 0.0000000000000000e+00  9.0548480237306578e-02 0.0000000000000000e+00 0.0000000000000000e+00  6.5853440172628994e-02 0.0000000000000000e+00 0.0000000000000000e+00  3.5670613426844584e-02 0.0000000000000000e+00 0.0000000000000000e+00  0.0000000000000000e+00 0.0000000000000000e+00 0.0000000000000000e+00  0.0000000000000000e+00 0.0000000000000000e+00 0.0000000000000000e+00  0.0000000000000000e+00 0.0000000000000000e+00 0.0000000000000000e+00  0.0000000000000000e+00 0.0000000000000000e+00 0.0000000000000000e+00  0.0000000000000000e+00 0.0000000000000000e+00 0.0000000000000000e+00  0.0000000000000000e+00 0.0000000000000000e+00 0.0000000000000000e+00  0.0000000000000000e+00 0.0000000000000000e+00 0.0000000000000000e+00  0.0000000000000000e+00 0.0000000000000000e+00 0.0000000000000000e+00  0.0000000000000000e+00 0.0000000000000000e+00 0.0000000000000000e+00  0.0000000000000000e+00 0.0000000000000000e+00 0.0000000000000000e+00  0.0000000000000000e+00 0.0000000000000000e+00 0.0000000000000000e+00  0.0000000000000000e+00 0.0000000000000000e+00 0.0000000000000000e+00  0.0000000000000000e+00 0.0000000000000000e+00 0.0000000000000000e+00  0.0000000000000000e+00 0.0000000000000000e+00 0.0000000000000000e+00  0.0000000000000000e+00 0.0000000000000000e+00 0.0000000000000000e+00  0.0000000000000000e+00 0.0000000000000000e+00 0.0000000000000000e+00  0.0000000000000000e+00 0.0000000000000000e+00 0.0000000000000000e+00  0.0000000000000000e+00 0.0000000000000000e+00 0.0000000000000000e+00  0.0000000000000000e+00 0.0000000000000000e+00 0.0000000000000000e+00  0.0000000000000000e+00 0.0000000000000000e+00 0.0000000000000000e+00  0.0000000000000000e+00 0.0000000000000000e+00 0.0000000000000000e+00  0.0000000000000000e+00 0.0000000000000000e+00 0.0000000000000000e+00  0.0000000000000000e+00 0.0000000000000000e+00 0.0000000000000000e+00  0.0000000000000000e+00 0.0000000000000000e+00 0.0000000000000000e+00  0.0000000000000000e+00 0.0000000000000000e+00 0.0000000000000000e+00  0.0000000000000000e+00 0.0000000000000000e+00 0.0000000000000000e+00  0.0000000000000000e+00 0.0000000000000000e+00 0.0000000000000000e+00  0.0000000000000000e+00 0.0000000000000000e+00 0.0000000000000000e+00  0.0000000000000000e+00 0.0000000000000000e+00 0.0000000000000000e+00  0.0000000000000000e+00 0.0000000000000000e+00 0.0000000000000000e+00  0.0000000000000000e+00 0.0000000000000000e+00 0.0000000000000000e+00  0.0000000000000000e+00 0.0000000000000000e+00 0.0000000000000000e+00  0.0000000000000000e+00 0.0000000000000000e+00 0.0000000000000000e+00  0.0000000000000000e+00 0.0000000000000000e+00 0.0000000000000000e+00  0.0000000000000000e+00 0.0000000000000000e+00 0.0000000000000000e+00  0.0000000000000000e+00 0.0000000000000000e+00 0.0000000000000000e+00  0.0000000000000000e+00 0.0000000000000000e+00 0.0000000000000000e+00  0.0000000000000000e+00 0.0000000000000000e+00 0.0000000000000000e+00  1.2822899240722802e-01 5.5093398274569209e-03 0.0000000000000000e+00  9.0818516054432571e-02 -1.1289566386858301e-03 0.0000000000000000e+00  1.2946683231325978e-01 -5.8280109483664728e-03 0.0000000000000000e+00  0.0000000000000000e+00 0.0000000000000000e+00 0.0000000000000000e+00  0.0000000000000000e+00 0.0000000000000000e+00 0.0000000000000000e+00  0.0000000000000000e+00 0.0000000000000000e+00 0.0000000000000000e+00  0.0000000000000000e+00 0.0000000000000000e+00 0.0000000000000000e+00  0.0000000000000000e+00 0.0000000000000000e+00 0.0000000000000000e+00  0.0000000000000000e+00 0.0000000000000000e+00 0.0000000000000000e+00  0.0000000000000000e+00 0.0000000000000000e+00 0.0000000000000000e+00  0.0000000000000000e+00 0.0000000000000000e+00 0.0000000000000000e+00  0.0000000000000000e+00 0.0000000000000000e+00 0.0000000000000000e+00  0.0000000000000000e+00 0.0000000000000000e+00 0.0000000000000000e+00  0.0000000000000000e+00 0.0000000000000000e+00 0.0000000000000000e+00  0.0000000000000000e+00 0.0000000000000000e+00 0.0000000000000000e+00  0.0000000000000000e+00 0.0000000000000000e+00 0.0000000000000000e+00  0.0000000000000000e+00 0.0000000000000000e+00 0.0000000000000000e+00  0.0000000000000000e+00 0.0000000000000000e+00 0.0000000000000000e+00  0.0000000000000000e+00 0.0000000000000000e+00 0.0000000000000000e+00  0.0000000000000000e+00 0.0000000000000000e+00 0.0000000000000000e+00  0.0000000000000000e+00 0.0000000000000000e+00 0.0000000000000000e+00  0.0000000000000000e+00 0.0000000000000000e+00 0.0000000000000000e+00  0.0000000000000000e+00 0.0000000000000000e+00 0.0000000000000000e+00  0.0000000000000000e+00 0.0000000000000000e+00 0.0000000000000000e+00  0.0000000000000000e+00 0.0000000000000000e+00 0.0000000000000000e+00  0.0000000000000000e+00 0.0000000000000000e+00 0.0000000000000000e+00  0.0000000000000000e+00 0.0000000000000000e+00 0.0000000000000000e+00  0.0000000000000000e+00 0.0000000000000000e+00 0.0000000000000000e+00  0.0000000000000000e+00 0.0000000000000000e+00 0.0000000000000000e+00  0.0000000000000000e+00 0.0000000000000000e+00 0.0000000000000000e+00  0.0000000000000000e+00 0.0000000000000000e+00 0.0000000000000000e+00  0.0000000000000000e+00 0.0000000000000000e+00 0.0000000000000000e+00  0.0000000000000000e+00 0.0000000000000000e+00 0.0000000000000000e+00  0.0000000000000000e+00 0.0000000000000000e+00 0.0000000000000000e+00  0.0000000000000000e+00 0.0000000000000000e+00 0.0000000000000000e+00  0.0000000000000000e+00 0.0000000000000000e+00 0.0000000000000000e+00  0.0000000000000000e+00 0.0000000000000000e+00 0.0000000000000000e+00  0.0000000000000000e+00 0.0000000000000000e+00 0.0000000000000000e+00  0.0000000000000000e+00 0.0000000000000000e+00 0.0000000000000000e+00  0.0000000000000000e+00 0.0000000000000000e+00 0.0000000000000000e+00  0.0000000000000000e+00 0.0000000000000000e+00 0.0000000000000000e+00  0.0000000000000000e+00 0.0000000000000000e+00 0.0000000000000000e+00  0.0000000000000000e+00 0.0000000000000000e+00 0.0000000000000000e+00  0.0000000000000000e+00 0.0000000000000000e+00 0.0000000000000000e+00  0.0000000000000000e+00 0.0000000000000000e+00 0.0000000000000000e+00  0.0000000000000000e+00 0.0000000000000000e+00 0.0000000000000000e+00  0.0000000000000000e+00 0.0000000000000000e+00 0.0000000000000000e+00  0.0000000000000000e+00 0.0000000000000000e+00 0.0000000000000000e+00  0.0000000000000000e+00 0.0000000000000000e+00 0.0000000000000000e+00  0.0000000000000000e+00 0.0000000000000000e+00 0.0000000000000000e+00  0.0000000000000000e+00 0.0000000000000000e+00 0.0000000000000000e+00  0.0000000000000000e+00 0.0000000000000000e+00 0.0000000000000000e+00  0.0000000000000000e+00 0.0000000000000000e+00 0.0000000000000000e+00  0.0000000000000000e+00 0.0000000000000000e+00 0.0000000000000000e+00  0.0000000000000000e+00 0.0000000000000000e+00 0.0000000000000000e+00  0.0000000000000000e+00 0.0000000000000000e+00 0.0000000000000000e+00  0.0000000000000000e+00 0.0000000000000000e+00 0.0000000000000000e+00  0.0000000000000000e+00 0.0000000000000000e+00 0.0000000000000000e+00  0.0000000000000000e+00 0.0000000000000000e+00 0.0000000000000000e+00  0.0000000000000000e+00 0.0000000000000000e+00 0.0000000000000000e+00  0.0000000000000000e+00 0.0000000000000000e+00 0.0000000000000000e+00  0.0000000000000000e+00 0.0000000000000000e+00 0.0000000000000000e+00  0.0000000000000000e+00 0.0000000000000000e+00 0.0000000000000000e+00  0.0000000000000000e+00 0.0000000000000000e+00 0.0000000000000000e+00  0.0000000000000000e+00 0.0000000000000000e+00 0.0000000000000000e+00  0.0000000000000000e+00 0.0000000000000000e+00 0.0000000000000000e+00  0.0000000000000000e+00 0.0000000000000000e+00 0.0000000000000000e+00  0.0000000000000000e+00 0.0000000000000000e+00 0.0000000000000000e+00  0.0000000000000000e+00 0.0000000000000000e+00 0.0000000000000000e+00  0.0000000000000000e+00 0.0000000000000000e+00 0.0000000000000000e+00  0.0000000000000000e+00 0.0000000000000000e+00 0.0000000000000000e+00  0.0000000000000000e+00 0.0000000000000000e+00 0.0000000000000000e+00  0.0000000000000000e+00 0.0000000000000000e+00 0.0000000000000000e+00  0.0000000000000000e+00 0.0000000000000000e+00 0.0000000000000000e+00  0.0000000000000000e+00 0.0000000000000000e+00 0.0000000000000000e+00  0.0000000000000000e+00 0.0000000000000000e+00 0.0000000000000000e+00  0.0000000000000000e+00 0.0000000000000000e+00 0.0000000000000000e+00  0.0000000000000000e+00 0.0000000000000000e+00 0.0000000000000000e+00  0.0000000000000000e+00 0.0000000000000000e+00 0.0000000000000000e+00  0.0000000000000000e+00 0.0000000000000000e+00 0.0000000000000000e+00  0.0000000000000000e+00 0.0000000000000000e+00 0.0000000000000000e+00  9.3412147302453828e-07 -5.8894514129265452e-06 0.0000000000000000e+00  2.1266531926394001e-06 -6.8626818365890150e-06 0.0000000000000000e+00  3.5509269459810170e-06 -7.8805618526869400e-06 0.0000000000000000e+00  5.1396236922620244e-06 -9.1096551216815519e-06 0.0000000000000000e+00  6.6635573017158513e-06 -1.0656973093161712e-05 0.0000000000000000e+00  8.1906823395198451e-06 -1.2617491783489601e-05 0.0000000000000000e+00  9.5780883154355095e-06 -1.4838546540421218e-05 0.0000000000000000e+00  1.0886635200180791e-05 -1.7417003337873177e-05 0.0000000000000000e+00  1.2213080521871095e-05 -2.0271864624823547e-05 0.0000000000000000e+00  1.3361364158233929e-05 -2.3392164336470758e-05 0.0000000000000000e+00  1.4532016053572880e-05 -2.6823058319662126e-05 0.0000000000000000e+00  1.5532171121876482e-05 -3.0479170803825166e-05 0.0000000000000000e+00  1.6523043169331720e-05 -3.4402906937164441e-05 0.0000000000000000e+00  1.7386149120988031e-05 -3.8533877910834055e-05 0.0000000000000000e+00  1.8166643940539480e-05 -4.2904788341692864e-05 0.0000000000000000e+00  1.8939911007970748e-05 -4.7483754434880635e-05 0.0000000000000000e+00  1.9560771898570126e-05 -5.2225667707262597e-05 0.0000000000000000e+00  2.0168990354012727e-05 -5.7201760839968112e-05 0.0000000000000000e+00  2.0637224357029265e-05 -6.2303105023473672e-05 0.0000000000000000e+00  2.1086968906985189e-05 -6.7609645450891840e-05 0.0000000000000000e+00  2.1416555245858483e-05 -7.3029413829767486e-05 0.0000000000000000e+00  2.1695445703247758e-05 -7.8625150592785326e-05 0.0000000000000000e+00  2.1882714518046829e-05 -8.4335597475810985e-05 0.0000000000000000e+00  2.1989640573802903e-05 -9.0178468686815571e-05 0.0000000000000000e+00  2.2065449864092948e-05 -9.6144192876127036e-05 0.0000000000000000e+00  2.2035389986487949e-05 -1.0219167540563494e-04 0.0000000000000000e+00  2.1936409662408869e-05 -1.0839118154580785e-04 0.0000000000000000e+00  2.1759401922001641e-05 -1.1463418824576559e-04 0.0000000000000000e+00  2.1513035966783787e-05 -1.2100847165587972e-04 0.0000000000000000e+00  2.1189469112454174e-05 -1.2742188617327095e-04 0.0000000000000000e+00  2.0799437732371290e-05 -1.3394590135964332e-04 0.0000000000000000e+00  2.0328799971704964e-05 -1.4049438241861090e-04 0.0000000000000000e+00  1.9796597126337286e-05 -1.4714389065776585e-04 0.0000000000000000e+00  1.9182115468630328e-05 -1.5379821801803621e-04 0.0000000000000000e+00  1.8495996675467325e-05 -1.6055061488903362e-04 0.0000000000000000e+00  1.7737834563823291e-05 -1.6729967831106396e-04 0.0000000000000000e+00  1.6912507505140651e-05 -1.7412655393535045e-04 0.0000000000000000e+00  1.6013200872898522e-05 -1.8094412368838264e-04 0.0000000000000000e+00  1.5043190960935703e-05 -1.8782903345389591e-04 0.0000000000000000e+00  1.3995579749097969e-05 -1.9469904156731098e-04 0.0000000000000000e+00  1.2871965479035745e-05 -2.0161358701733029e-04 0.0000000000000000e+00  1.1685731614412272e-05 -2.0852583305883758e-04 0.0000000000000000e+00  1.0417109819416585e-05 -2.1546239892646720e-04 0.0000000000000000e+00  9.1071225623820008e-06 -2.2240024470133397e-04 0.0000000000000000e+00  7.7136709313808151e-06 -2.2932109981710206e-04 0.0000000000000000e+00  6.3080386948591891e-06 -2.3632003156362979e-04 0.0000000000000000e+00  -1.7169413378439217e-07 -2.4212723479200590e-04 0.0000000000000000e+00  -9.6109118480932036e-06 -2.3914667680136889e-04 0.0000000000000000e+00  -1.2592506780517828e-05 -2.3082947125627261e-04 0.0000000000000000e+00  -1.1154258995156947e-05 -2.2370893030086931e-04 0.0000000000000000e+00  -9.7281741674461825e-06 -2.1655283390141863e-04 0.0000000000000000e+00  -8.3785347054757635e-06 -2.0943580330729918e-04 0.0000000000000000e+00  -7.0722545018304024e-06 -2.0233199127019094e-04 0.0000000000000000e+00  -5.8474598178954245e-06 -1.9524621998781325e-04 0.0000000000000000e+00  -4.6688059396605719e-06 -1.8818381801730347e-04 0.0000000000000000e+00  -3.5691134363521428e-06 -1.8112347581316742e-04 0.0000000000000000e+00  -2.5208816024156160e-06 -1.7412031698473048e-04 0.0000000000000000e+00  -1.5443737202346221e-06 -1.6710829523414129e-04 0.0000000000000000e+00  -6.1624910511669188e-07 -1.6016421104503038e-04 0.0000000000000000e+00  2.3929747123971833e-07 -1.5322164782887127e-04 0.0000000000000000e+00  1.0516047095720721e-06 -1.4635723348090500e-04 0.0000000000000000e+00  1.7907647970744779e-06 -1.3950557154247253e-04 0.0000000000000000e+00  2.4918265099988241e-06 -1.3274365809976991e-04 0.0000000000000000e+00  3.1165826362162531e-06 -1.2600612899734236e-04 0.0000000000000000e+00  3.7089695991358217e-06 -1.1936726946523150e-04 0.0000000000000000e+00  4.2203296575522125e-06 -1.1276489850158887e-04 0.0000000000000000e+00  4.7045167664927179e-06 -1.0627848392491872e-04 0.0000000000000000e+00  5.1059500750616574e-06 -9.9845193100987271e-05 0.0000000000000000e+00  5.4880038268036233e-06 -9.3541320511139443e-05 0.0000000000000000e+00  5.7817743493627379e-06 -8.7307325583105557e-05 0.0000000000000000e+00  6.0505964410423688e-06 -8.1204992072923083e-05 0.0000000000000000e+00  6.2488701971043170e-06 -7.5204612973168311e-05 0.0000000000000000e+00  6.3810379939967761e-06 -6.9349388561266187e-05 0.0000000000000000e+00  6.5129898747637625e-06 -6.3613708041981574e-05 0.0000000000000000e+00  6.5582027867604830e-06 -5.8013341918359899e-05 0.0000000000000000e+00  6.5727894553302975e-06 -5.2599393660361418e-05 0.0000000000000000e+00  6.5191333379095644e-06 -4.7309811425828280e-05 0.0000000000000000e+00  6.4328101690323257e-06 -4.2232725836891721e-05 0.0000000000000000e+00  6.2794986565751904e-06 -3.7294770471944375e-05 0.0000000000000000e+00  6.1097832754162971e-06 -3.2606147793585366e-05 0.0000000000000000e+00  5.8607212121223674e-06 -2.8074558740875906e-05 0.0000000000000000e+00  5.5531639913136969e-06 -2.3810899488533838e-05 0.0000000000000000e+00  5.2693910890273804e-06 -1.9730429895615643e-05 0.0000000000000000e+00  4.8949909014565919e-06 -1.5913978291911854e-05 0.0000000000000000e+00  4.5015196503367303e-06 -1.2377387441459856e-05 0.0000000000000000e+00  4.0376119015885134e-06 -9.0810436545203757e-06 0.0000000000000000e+00  3.5792585253246131e-06 -6.1179401500267498e-06 0.0000000000000000e+00  3.0250157842266634e-06 -3.4008419629178717e-06 0.0000000000000000e+00  2.4153466433456647e-06 -1.0491421013819917e-06 0.0000000000000000e+00  1.8618029855343658e-06 1.0293457431654785e-06 0.0000000000000000e+00  1.2027721397501764e-06 2.7878293296048931e-06 0.0000000000000000e+00  6.4738131794962656e-07 4.1644998322120682e-06 0.0000000000000000e+00  1.4208766314567306e-07 4.9970781986885216e-06 0.0000000000000000e+00  -1.1919658230304783e-08 5.1220409122577297e-06 0.0000000000000000e+00  -2.1697952655975961e-07 -4.2227932344005487e-07 0.0000000000000000e+00  -2.5004400430360513e-06 -2.3005281845000331e-04 0.0000000000000000e+00  3.8060592375121870e-07 -2.1661833753711538e-04 0.0000000000000000e+00  4.1845844653184247e-06 -1.9470658540331193e-04 0.0000000000000000e+00  2.5691664854801048e-06 -2.2319159392542705e-06 0.0000000000000000e+00  6.1790050027200676e-06 -1.8098298329805669e-04 0.0000000000000000e+00  4.6407091190008793e-06 -5.3149512036576000e-06 0.0000000000000000e+00  8.0616252331152045e-06 -1.6714696669245949e-04 0.0000000000000000e+00  7.6180497464053548e-06 -1.3036991769192706e-05 0.0000000000000000e+00  9.2674389058185104e-06 -1.9421827605818321e-05 0.0000000000000000e+00  9.6815209236602471e-06 -1.5344781530848416e-04 0.0000000000000000e+00  1.2263337708235258e-05 -4.0039498691805841e-05 0.0000000000000000e+00  1.2143300589660320e-05 -1.2663084898191558e-04 0.0000000000000000e+00  1.0558394559733789e-05 -2.6518168346086839e-05 0.0000000000000000e+00  1.3112641821840920e-05 -4.9603530503533490e-05 0.0000000000000000e+00  1.2989557998541352e-05 -1.1360752949516307e-04 0.0000000000000000e+00  1.1041544606162245e-05 -1.3992675135544692e-04 0.0000000000000000e+00  1.3658282459778185e-05 -6.0005710577861301e-05 0.0000000000000000e+00  1.3580443823999813e-05 -1.0091708384656102e-04 0.0000000000000000e+00  1.3853698340445786e-05 -7.0521067212136326e-05 0.0000000000000000e+00  1.4024234223589605e-05 -8.8924417750871403e-05 0.0000000000000000e+00  1.3987005910501413e-05 -7.9227387745368466e-05 0.0000000000000000e+00  1.1510274684772466e-05 -3.2830132700416460e-05 0.0000000000000000e+00  2.0961409622300036e-06 -2.0602997846133901e-04 0.0000000000000000e+00  6.1530924100966175e-06 -8.7668696849695990e-06 0.0000000000000000e+00  -4.3115258864597723e-06 -2.2229198919128387e-04 0.0000000000000000e+00  8.4669414846685960e-07 1.1002394940176176e-06 0.0000000000000000e+00  4.4645698162392116e-06 -1.7304696884486758e-04 0.0000000000000000e+00  2.4302695234676909e-06 -1.8698155315571643e-04 0.0000000000000000e+00  4.4416154333545243e-06 -5.8269080286456288e-06 0.0000000000000000e+00  9.7200502581077749e-06 -1.7704643398788764e-05 0.0000000000000000e+00  9.0427037631172955e-06 -1.3211320115330164e-04 0.0000000000000000e+00  6.2429796104808976e-06 -1.5923007242722931e-04 0.0000000000000000e+00  1.4625771048858562e-05 -4.6145909370349923e-05 0.0000000000000000e+00  1.0071277224216153e-05 -1.1890326388828950e-04 0.0000000000000000e+00  1.1441350422396457e-05 -2.4638594766250353e-05 0.0000000000000000e+00  1.5428791926197357e-05 -5.6162644543843369e-05 0.0000000000000000e+00  1.0854204258469865e-05 -1.0599591098393366e-04 0.0000000000000000e+00  7.7675599838319576e-06 -1.4556994945575131e-04 0.0000000000000000e+00  1.6443510534954053e-05 -6.7092514682908516e-05 0.0000000000000000e+00  1.1394960611073660e-05 -9.3452883418825261e-05 0.0000000000000000e+00  -6.7708419498133742e-07 -1.4141508091802483e-06 0.0000000000000000e+00  -8.2661276112128895e-07 1.1333647438777156e-06 0.0000000000000000e+00  -1.5605857565846513e-06 -2.3624058417299161e-04 0.0000000000000000e+00  1.8034663890064391e-06 -3.6533063742171308e-06 0.00000000000