<?xml version="1.0"?>
<VTKFile type="UnstructuredGrid"  version="0.1"  >
<UnstructuredGrid>
<Piece  NumberOfPoints="1419" NumberOfCells="2698">
<Points>
<DataArray  type="Float64"  NumberOfComponents="3"  format="ascii">0 0 0  0 0.41 0  2.5 0 0  2.5 0.41 0  0.6 0.19 0  0.6 0.21 0  0.25 0.2 0  0.15 0.2 0  0.2489897948556636 0.21 0  0.2489897948556636 0.19 0  0.6 0.2 0  0 0.3807142857143437 0  0 0.3514285714286952 0  0 0.3221428571430699 0  0 0.29285714285744 0  0 0.2635714285718054 0  0 0.2342857142861561 0  0 0.2050000000005308 0  0 0.175714285714732 0  0 0.1464285714289574 0  0 0.1171428571431897 0  0 0.08785714285737878 0  0 0.05857142857161107 0  0 0.02928571428580012 0  0.03015443760436003 0 0  0.06140001986583606 0 0  0.09377624077125973 0 0  0.1273239957535082 0 0  0.1620856860351972 0 0  0.1981052433264291 0 0  0.235428184091502 0 0  0.2741016576309132 0 0  0.3141745521465447 0 0  0.3556974926295285 0 0  0.3987229542472677 0 0  0.4433053055141081 0 0  0.4895008759286886 0 0  0.5373680609405097 0 0  0.5869673343216626 0 0  0.6383613676634521 0 0  0.6916151138468254 0 0  0.7467958595648856 0 0  0.8039733463919316 0 0  0.8632198139502143 0 0  0.9246101326867038 0 0  0.9882218810934433 0 0  1.054135445558498 0 0  1.122434100542598 0 0  1.193204177141305 0 0  1.266535089879536 0 0  1.342519516046404 0 0  1.421253448503939 0 0  1.502836389106271 0 0  1.587371439758838 0 0  1.674965418777374 0 0  1.765729001825544 0 0  1.859776908880082 0 0  1.957227977487062 0 0  2.058205329869943 0 0  2.162836591189951 0 0  2.271253957290865 0 0  2.383594446803425 0 0  2.5 0.1024999999997612 0  2.5 0.2049999999994743 0  2.5 0.3074999999997183 0  2.383594446803656 0.41 0  2.271253957291315 0.41 0  2.162836591190598 0.41 0  2.058205329870775 0.41 0  1.957227977488067 0.41 0  1.859776908881246 0.41 0  1.765729001826854 0.41 0  1.674965418778818 0.41 0  1.58737143976041 0.41 0  1.502836389107956 0.41 0  1.421253448505726 0.41 0  1.342519516048286 0.41 0  1.266535089881505 0.41 0  1.193204177143353 0.41 0  1.122434100544716 0.41 0  1.05413544556068 0.41 0  0.9882218810956305 0.41 0  0.9246101326886647 0.41 0  0.8632198139519631 0.41 0  0.8039733463934788 0.41 0  0.7467958595662458 0.41 0  0.6916151138480078 0.41 0  0.6383613676644679 0.41 0  0.5869673343225223 0.41 0  0.5373680609412221 0.41 0  0.4895008759292634 0.41 0  0.4433053055145528 0.41 0  0.3987229542475914 0.41 0  0.3556974926297398 0.41 0  0.3141745521466497 0.41 0  0.2741016576310038 0.41 0  0.2354281840915826 0.41 0  0.1981052433265003 0.41 0  0.1620856860352591 0.41 0  0.1273239957535623 0.41 0  0.09377624077128965 0.41 0  0.06140001986584975 0.41 0  0.03015443760436654 0.41 0  0.2497468076502589 0.2050254481002335 0  0.2497468076502614 0.1949745518997913 0  0.2469965252529372 0.1829317073451959 0  0.2439893735792749 0.1762316384219906 0  0.2400332147834255 0.1700443375285386 0  0.2352133972704371 0.1645032867342007 0  0.2296339016332438 0.1597280261969788 0  0.2234150974217223 0.1558215752574715 0  0.2166911463437691 0.1528682099456123 0  0.2096071079204251 0.1509316448471593 0  0.2023158100364996 0.1500536585536553 0  0.194974551899914 0.1502531923497262 0  0.1877417105387872 0.1515259415822739 0  0.1807733240461124 0.153844448527136 0  0.1742197252835808 0.15715869474974 0  0.1682222986673531 0.1613971801805478 0  0.162910430003803 0.1664684656256651 0  0.1583987151779087 0.1722631454351573 0  0.1547844879126891 0.178656207771761 0  0.1521457199348551 0.1855097315605723 0  0.1505393388476355 0.1926758619366523 0  0.1505393388476328 0.2073241380633295 0  0.1521457199348437 0.2144902684393899 0  0.1547844879126531 0.221343792228163 0  0.1583987151778488 0.2277368545647528 0  0.1629104300036858 0.2335315343742052 0  0.1682222986671726 0.2386028198193036 0  0.1742197252833576 0.2428413052501257 0  0.1807733240458683 0.2461555514727623 0  0.1877417105384929 0.2484740584176516 0  0.1949745518995776 0.2497468076502398 0  0.202315810036185 0.2499463414463592 0  0.2096071079201568 0.2490683551528932 0  0.2166911463435495 0.2471317900544655 0  0.2234150974215506 0.2441784247426195 0  0.2296339016331197 0.2402719738031125 0  0.2352133972703547 0.2354967132658811 0  0.2400332147833751 0.2299556624715287 0  0.2439893735792577 0.2237683615780412 0  0.246996525252926 0.2170682926548348 0  0.25645809709277 0.21 0  0.2639263993298655 0.21 0  0.271394701566961 0.21 0  0.2788630038040554 0.21 0  0.2863313060411479 0.21 0  0.2937996082782405 0.21 0  0.301267910515333 0.21 0  0.3087362127524279 0.21 0  0.3162045149895234 0.21 0  0.3236728172265972 0.21 0  0.3311411194636928 0.21 0  0.3386094217007701 0.21 0  0.3460777239378666 0.21 0  0.3535460261749672 0.21 0  0.3610143284120516 0.21 0  0.3684826306491596 0.21 0  0.3759509328862226 0.21 0  0.383419235123329 0.21 0  0.3908875373604028 0.21 0  0.3983558395975142 0.21 0  0.4058241418345938 0.21 0  0.4132924440716992 0.21 0  0.4207607463087888 0.21 0  0.4282290485459029 0.21 0  0.4356973507830418 0.21 0  0.4431656530201649 0.21 0  0.4506339552573136 0.21 0  0.4581022574944306 0.21 0  0.4655705597315852 0.21 0  0.4730388619686996 0.21 0  0.480507164205851 0.21 0  0.4879754664429498 0.21 0  0.4954437686800938 0.21 0  0.502912070917267 0.21 0  0.5103803731544119 0.21 0  0.5178486753915261 0.21 0  0.5253169776286404 0.21 0  0.5327852798657868 0.21 0  0.5402535821029386 0.21 0  0.54772188434007 0.21 0  0.5551901865771842 0.21 0  0.5626584888143201 0.21 0  0.5701267910514778 0.21 0  0.5775950932886138 0.21 0  0.5850633955257281 0.21 0  0.5925316977628483 0.21 0  0.6 0.2050000000000054 0  0.6 0.1950000000000217 0  0.5925316977628897 0.19 0  0.5850633955257988 0.19 0  0.5775950932887378 0.19 0  0.5701267910515998 0.19 0  0.5626584888145268 0.19 0  0.5551901865773963 0.19 0  0.547721884340339 0.19 0  0.5402535821032429 0.19 0  0.5327852798661811 0.19 0  0.5253169776290537 0.19 0  0.5178486753919799 0.19 0  0.5103803731549078 0.19 0  0.502912070917822 0.19 0  0.4954437686807294 0.19 0  0.4879754664436223 0.19 0  0.4805071642065402 0.19 0  0.4730388619694271 0.19 0  0.4655705597323621 0.19 0  0.4581022574952563 0.19 0  0.4506339552581777 0.19 0  0.4431656530210671 0.19 0  0.4356973507839815 0.19 0  0.4282290485468779 0.19 0  0.4207607463097617 0.19 0  0.4132924440726327 0.19 0  0.4058241418354857 0.19 0  0.3983558395983636 0.19 0  0.3908875373612097 0.19 0  0.3834192351240934 0.19 0  0.3759509328869369 0.19 0  0.3684826306498175 0.19 0  0.361014328412667 0.19 0  0.3535460261755617 0.19 0  0.3460777239384295 0.19 0  0.3386094217012945 0.19 0  0.3311411194641595 0.19 0  0.3236728172270245 0.19 0  0.3162045149898895 0.19 0  0.3087362127527544 0.19 0  0.3012679105156187 0.19 0  0.2937996082784807 0.19 0  0.2863313060413428 0.19 0  0.2788630038042048 0.19 0  0.2713947015670686 0.19 0  0.2639263993299336 0.19 0  0.2564580970927985 0.19 0  0.2607803159922026 0.2000727136295815 0  0.5887803774232762 0.2001272386983733 0  0.5745072403740523 0.2002044435018727 0  0.5511891430099709 0.2001122610077113 0  0.2751288526855082 0.20000000000002 0  0.5365194309847112 0.1999999999999436 0  0.2894621222999649 0.1998691686390484 0  0.5215828265105155 0.1999999999999228 0  0.3127789816668748 0.1998657885438805 0  0.3274069683451451 0.2000000000000796 0  0.5066462220363641 0.199999999999908 0  0.3650630746574081 0.199866017807523 0  0.476773013087985 0.1999999999998713 0  0.3417402379596385 0.1998691686391011 0  0.3796850840047755 0.200000000000134 0  0.4618364086138087 0.1999999999998546 0  0.4917096175621762 0.1999999999998808 0  0.3946216884789568 0.2000000000001512 0  0.446899804139621 0.1999999999998389 0  0.4089549580935208 0.1998691686391595 0  0.4322718174608562 0.200127451265745 0  0.4201487168029707 0.1999966199048527 0  0.3528922713220932 0.2000185703532356 0  0.5633122436674589 0.1999814296467508 0  0.3006558810093873 0.1999966199048318 0  0.5815926498168407 0.1966545283159175 0  0.2677053789419034 0.1964246479135325 0  0.5290511287476175 0.1970915826863981 0  0.5439877332217911 0.197091582686394 0  0.2825131256993216 0.2035478995978015 0  0.3199386661080599 0.202908417313604 0  0.4842413153250809 0.1970915826863873 0  0.5141145242734466 0.1970915826863843 0  0.3722167817676917 0.2029084173136195 0  0.4693047108508938 0.1970915826863783 0  0.3348752705822316 0.202908417313609 0  0.3871533862418661 0.2029084173136212 0  0.4543681063767183 0.1970915826863795 0  0.4991779197992749 0.1970915826863902 0  0.4020059614928624 0.203547899597858 0  0.4394315019025246 0.1970915826863714 0  0.2550657455369551 0.2034088125358657 0  0.2548908499171161 0.1966940311614271 0  0.5946539510196798 0.2024302972968126 0  0.267698176732111 0.2039977513680092 0  0.4261685417851465 0.196409292431739 0  0.3590076176283495 0.196411355804271 0  0.5571672426447437 0.2036011176410121 0  0.3066757059912147 0.1964092924317024 0  0.594380730180568 0.1966558399668133 0  0.4842413153245942 0.2040749161535287 0  0.4693047108503577 0.2040749161535231 0  0.3871533862424271 0.1959250838464788 0  0.372246743208829 0.1959123236376545 0  0.5141145242731028 0.2040749161535395 0  0.4543681063761134 0.2040749161535186 0  0.4019979587101454 0.1959834479682427 0  0.4394608940728603 0.2040870543693135 0  0.5439623148931173 0.2040856076781014 0  0.5290511287473298 0.2040749161535501 0  0.4991779197988497 0.2040749161535382 0  0.3347912413592433 0.1959225448935183 0  0.3199680582793816 0.1959123018030061 0  0.2825051229162361 0.1959834479681729 0  0.3590471196690275 0.2036304442587945 0  0.5571594006495384 0.1963685282145804 0  0.3067669986803285 0.203627750582736 0  0.4262598344738712 0.2036568242185335 0  0.5814408164431408 0.2041285596160068 0  0.5688286748170428 0.1961819304477386 0  0.4145905603063645 0.2038180695522843 0  0.3473758401724931 0.2038180695522752 0  0.2950977245128307 0.2038180695522663 0  0.5688286748170693 0.203818069552238 0  0.2950977245127906 0.1961819304477774 0  0.3473758401723931 0.1961819304478349 0  0.4145905603061963 0.1961819304479011 0  0.2601812407614425 0.2056861609747042
[...]
<PointData  Vectors="f_40-0"> 
<DataArray  type="Float64"  Name="f_40-0"  NumberOfComponents="3" format="ascii">0.0000000000000000e+00 0.0000000000000000e+00 0.0000000000000000e+00  0.0000000000000000e+00 0.0000000000000000e+00 0.0000000000000000e+00  0.0000000000000000e+00 0.0000000000000000e+00 0.0000000000000000e+00  0.0000000000000000e+00 0.0000000000000000e+00 0.0000000000000000e+00  -4.7704020790501330e-06 -7.4253436990325418e-04 0.0000000000000000e+00  5.4301679887106088e-05 -7.4742164300602859e-04 0.0000000000000000e+00  0.0000000000000000e+00 0.0000000000000000e+00 0.0000000000000000e+00  0.0000000000000000e+00 0.0000000000000000e+00 0.0000000000000000e+00  0.0000000000000000e+00 0.0000000000000000e+00 0.0000000000000000e+00  0.0000000000000000e+00 0.0000000000000000e+00 0.0000000000000000e+00  2.4155973348914081e-05 -7.4496712076016611e-04 0.0000000000000000e+00  1.1091562829923080e-01 0.0000000000000000e+00 0.0000000000000000e+00  2.0476731378320892e-01 0.0000000000000000e+00 0.0000000000000000e+00  2.8155505645191231e-01 0.0000000000000000e+00 0.0000000000000000e+00  3.4127885630542987e-01 0.0000000000000000e+00 0.0000000000000000e+00  3.8393871334375385e-01 0.0000000000000000e+00 0.0000000000000000e+00  4.0953462756688180e-01 0.0000000000000000e+00 0.0000000000000000e+00  4.1806659897478798e-01 0.0000000000000000e+00 0.0000000000000000e+00  4.0953462756739928e-01 0.0000000000000000e+00 0.0000000000000000e+00  3.8393871334464275e-01 0.0000000000000000e+00 0.0000000000000000e+00  3.4127885630653065e-01 0.0000000000000000e+00 0.0000000000000000e+00  2.8155505645295809e-01 0.0000000000000000e+00 0.0000000000000000e+00  2.0476731378410129e-01 0.0000000000000000e+00 0.0000000000000000e+00  1.1091562829973363e-01 0.0000000000000000e+00 0.0000000000000000e+00  0.0000000000000000e+00 0.0000000000000000e+00 0.0000000000000000e+00  0.0000000000000000e+00 0.0000000000000000e+00 0.0000000000000000e+00  0.0000000000000000e+00 0.0000000000000000e+00 0.0000000000000000e+00  0.0000000000000000e+00 0.0000000000000000e+00 0.0000000000000000e+00  0.0000000000000000e+00 0.0000000000000000e+00 0.0000000000000000e+00  0.0000000000000000e+00 0.0000000000000000e+00 0.0000000000000000e+00  0.0000000000000000e+00 0.0000000000000000e+00 0.0000000000000000e+00  0.0000000000000000e+00 0.0000000000000000e+00 0.0000000000000000e+00  0.0000000000000000e+00 0.0000000000000000e+00 0.0000000000000000e+00  0.0000000000000000e+00 0.0000000000000000e+00 0.0000000000000000e+00  0.0000000000000000e+00 0.0000000000000000e+00 0.0000000000000000e+00  0.0000000000000000e+00 0.0000000000000000e+00 0.0000000000000000e+00  0.0000000000000000e+00 0.0000000000000000e+00 0.0000000000000000e+00  0.0000000000000000e+00 0.0000000000000000e+00 0.0000000000000000e+00  0.0000000000000000e+00 0.0000000000000000e+00 0.0000000000000000e+00  0.0000000000000000e+00 0.0000000000000000e+00 0.0000000000000000e+00  0.0000000000000000e+00 0.0000000000000000e+00 0.0000000000000000e+00  0.0000000000000000e+00 0.0000000000000000e+00 0.0000000000000000e+00  0.0000000000000000e+00 0.0000000000000000e+00 0.0000000000000000e+00  0.0000000000000000e+00 0.0000000000000000e+00 0.0000000000000000e+00  0.0000000000000000e+00 0.0000000000000000e+00 0.0000000000000000e+00  0.0000000000000000e+00 0.0000000000000000e+00 0.0000000000000000e+00  0.0000000000000000e+00 0.0000000000000000e+00 0.0000000000000000e+00  0.0000000000000000e+00 0.0000000000000000e+00 0.0000000000000000e+00  0.0000000000000000e+00 0.0000000000000000e+00 0.0000000000000000e+00  0.0000000000000000e+00 0.0000000000000000e+00 0.0000000000000000e+00  0.0000000000000000e+00 0.0000000000000000e+00 0.0000000000000000e+00  0.0000000000000000e+00 0.0000000000000000e+00 0.0000000000000000e+00  0.0000000000000000e+00 0.0000000000000000e+00 0.0000000000000000e+00  0.0000000000000000e+00 0.0000000000000000e+00 0.0000000000000000e+00  0.0000000000000000e+00 0.0000000000000000e+00 0.0000000000000000e+00  0.0000000000000000e+00 0.0000000000000000e+00 0.0000000000000000e+00  0.0000000000000000e+00 0.0000000000000000e+00 0.0000000000000000e+00  0.0000000000000000e+00 0.0000000000000000e+00 0.0000000000000000e+00  0.0000000000000000e+00 0.0000000000000000e+00 0.0000000000000000e+00  0.0000000000000000e+00 0.0000000000000000e+00 0.0000000000000000e+00  0.0000000000000000e+00 0.0000000000000000e+00 0.0000000000000000e+00  0.0000000000000000e+00 0.0000000000000000e+00 0.0000000000000000e+00  4.0099376606239900e-01 1.2813952499884833e-02 0.0000000000000000e+00  2.8057457830666283e-01 -2.6789648518961832e-03 0.0000000000000000e+00  4.0197929345555494e-01 -9.4116779770984007e-03 0.0000000000000000e+00  0.0000000000000000e+00 0.0000000000000000e+00 0.0000000000000000e+00  0.0000000000000000e+00 0.0000000000000000e+00 0.0000000000000000e+00  0.0000000000000000e+00 0.0000000000000000e+00 0.0000000000000000e+00  0.0000000000000000e+00 0.0000000000000000e+00 0.0000000000000000e+00  0.0000000000000000e+00 0.0000000000000000e+00 0.0000000000000000e+00  0.0000000000000000e+00 0.0000000000000000e+00 0.0000000000000000e+00  0.0000000000000000e+00 0.0000000000000000e+00 0.0000000000000000e+00  0.0000000000000000e+00 0.0000000000000000e+00 0.0000000000000000e+00  0.0000000000000000e+00 0.0000000000000000e+00 0.0000000000000000e+00  0.0000000000000000e+00 0.0000000000000000e+00 0.0000000000000000e+00  0.0000000000000000e+00 0.0000000000000000e+00 0.0000000000000000e+00  0.0000000000000000e+00 0.0000000000000000e+00 0.0000000000000000e+00  0.0000000000000000e+00 0.0000000000000000e+00 0.0000000000000000e+00  0.0000000000000000e+00 0.0000000000000000e+00 0.0000000000000000e+00  0.0000000000000000e+00 0.0000000000000000e+00 0.0000000000000000e+00  0.0000000000000000e+00 0.0000000000000000e+00 0.0000000000000000e+00  0.0000000000000000e+00 0.0000000000000000e+00 0.0000000000000000e+00  0.0000000000000000e+00 0.0000000000000000e+00 0.0000000000000000e+00  0.0000000000000000e+00 0.0000000000000000e+00 0.0000000000000000e+00  0.0000000000000000e+00 0.0000000000000000e+00 0.0000000000000000e+00  0.0000000000000000e+00 0.0000000000000000e+00 0.0000000000000000e+00  0.0000000000000000e+00 0.0000000000000000e+00 0.0000000000000000e+00  0.0000000000000000e+00 0.0000000000000000e+00 0.0000000000000000e+00  0.0000000000000000e+00 0.0000000000000000e+00 0.0000000000000000e+00  0.0000000000000000e+00 0.0000000000000000e+00 0.0000000000000000e+00  0.0000000000000000e+00 0.0000000000000000e+00 0.0000000000000000e+00  0.0000000000000000e+00 0.0000000000000000e+00 0.0000000000000000e+00  0.0000000000000000e+00 0.0000000000000000e+00 0.0000000000000000e+00  0.0000000000000000e+00 0.0000000000000000e+00 0.0000000000000000e+00  0.0000000000000000e+00 0.0000000000000000e+00 0.0000000000000000e+00  0.0000000000000000e+00 0.0000000000000000e+00 0.0000000000000000e+00  0.0000000000000000e+00 0.0000000000000000e+00 0.0000000000000000e+00  0.0000000000000000e+00 0.0000000000000000e+00 0.0000000000000000e+00  0.0000000000000000e+00 0.0000000000000000e+00 0.0000000000000000e+00  0.0000000000000000e+00 0.0000000000000000e+00 0.0000000000000000e+00  0.0000000000000000e+00 0.0000000000000000e+00 0.0000000000000000e+00  0.0000000000000000e+00 0.0000000000000000e+00 0.0000000000000000e+00  0.0000000000000000e+00 0.0000000000000000e+00 0.0000000000000000e+00  0.0000000000000000e+00 0.0000000000000000e+00 0.0000000000000000e+00  0.0000000000000000e+00 0.0000000000000000e+00 0.0000000000000000e+00  0.0000000000000000e+00 0.0000000000000000e+00 0.0000000000000000e+00  0.0000000000000000e+00 0.0000000000000000e+00 0.0000000000000000e+00  0.0000000000000000e+00 0.0000000000000000e+00 0.0000000000000000e+00  0.0000000000000000e+00 0.0000000000000000e+00 0.0000000000000000e+00  0.0000000000000000e+00 0.0000000000000000e+00 0.0000000000000000e+00  0.0000000000000000e+00 0.0000000000000000e+00 0.0000000000000000e+00  0.0000000000000000e+00 0.0000000000000000e+00 0.0000000000000000e+00  0.0000000000000000e+00 0.0000000000000000e+00 0.0000000000000000e+00  0.0000000000000000e+00 0.0000000000000000e+00 0.0000000000000000e+00  0.0000000000000000e+00 0.0000000000000000e+00 0.0000000000000000e+00  0.0000000000000000e+00 0.0000000000000000e+00 0.0000000000000000e+00  0.0000000000000000e+00 0.0000000000000000e+00 0.0000000000000000e+00  0.0000000000000000e+00 0.0000000000000000e+00 0.0000000000000000e+00  0.0000000000000000e+00 0.0000000000000000e+00 0.0000000000000000e+00  0.0000000000000000e+00 0.0000000000000000e+00 0.0000000000000000e+00  0.0000000000000000e+00 0.0000000000000000e+00 0.0000000000000000e+00  0.0000000000000000e+00 0.0000000000000000e+00 0.0000000000000000e+00  0.0000000000000000e+00 0.0000000000000000e+00 0.0000000000000000e+00  0.0000000000000000e+00 0.0000000000000000e+00 0.0000000000000000e+00  0.0000000000000000e+00 0.0000000000000000e+00 0.0000000000000000e+00  0.0000000000000000e+00 0.0000000000000000e+00 0.0000000000000000e+00  0.0000000000000000e+00 0.0000000000000000e+00 0.0000000000000000e+00  0.0000000000000000e+00 0.0000000000000000e+00 0.0000000000000000e+00  0.0000000000000000e+00 0.0000000000000000e+00 0.0000000000000000e+00  0.0000000000000000e+00 0.0000000000000000e+00 0.0000000000000000e+00  0.0000000000000000e+00 0.0000000000000000e+00 0.0000000000000000e+00  0.0000000000000000e+00 0.0000000000000000e+00 0.0000000000000000e+00  0.0000000000000000e+00 0.0000000000000000e+00 0.0000000000000000e+00  0.0000000000000000e+00 0.0000000000000000e+00 0.0000000000000000e+00  0.0000000000000000e+00 0.0000000000000000e+00 0.0000000000000000e+00  0.0000000000000000e+00 0.0000000000000000e+00 0.0000000000000000e+00  0.0000000000000000e+00 0.0000000000000000e+00 0.0000000000000000e+00  0.0000000000000000e+00 0.0000000000000000e+00 0.0000000000000000e+00  0.0000000000000000e+00 0.0000000000000000e+00 0.0000000000000000e+00  0.0000000000000000e+00 0.0000000000000000e+00 0.0000000000000000e+00  0.0000000000000000e+00 0.0000000000000000e+00 0.0000000000000000e+00  0.0000000000000000e+00 0.0000000000000000e+00 0.0000000000000000e+00  0.0000000000000000e+00 0.0000000000000000e+00 0.0000000000000000e+00  2.4076688499094438e-06 -6.2151483108199323e-06 0.0000000000000000e+00  5.2356392445914992e-06 -8.2470689375348823e-06 0.0000000000000000e+00  8.2326140796375749e-06 -1.1105873001796050e-05 0.0000000000000000e+00  1.1535637104884271e-05 -1.4935036407743094e-05 0.0000000000000000e+00  1.4651440354508582e-05 -1.9763383233426883e-05 0.0000000000000000e+00  1.7964206484829997e-05 -2.5710109214163096e-05 0.0000000000000000e+00  2.0964637617813289e-05 -3.2456535414418282e-05 0.0000000000000000e+00  2.3892719451474457e-05 -4.0286925165237267e-05 0.0000000000000000e+00  2.6985852641399467e-05 -4.8953784157673755e-05 0.0000000000000000e+00  2.9669817296186786e-05 -5.8476942854167293e-05 0.0000000000000000e+00  3.2551241839654233e-05 -6.8908192698193134e-05 0.0000000000000000e+00  3.5021089829674632e-05 -8.0112583368617174e-05 0.0000000000000000e+00  3.7603155094439244e-05 -9.2132289839236424e-05 0.0000000000000000e+00  3.9874115532009894e-05 -1.0480416346396061e-04 0.0000000000000000e+00  4.2028455458074818e-05 -1.1826900437498271e-04 0.0000000000000000e+00  4.4253314153469594e-05 -1.3236558504424017e-04 0.0000000000000000e+00  4.6131926730533441e-05 -1.4705695225420660e-04 0.0000000000000000e+00  4.8097128789649366e-05 -1.6242083438744131e-04 0.0000000000000000e+00  4.9736750426274119e-05 -1.7828569257277425e-04 0.0000000000000000e+00  5.1436920633738447e-05 -1.9472927776827294e-04 0.0000000000000000e+00  5.2880526164357528e-05 -2.1163363126708366e-04 0.0000000000000000e+00  5.4310378107907519e-05 -2.2906749115790038e-04 0.0000000000000000e+00  5.5533536551599041e-05 -2.4687326797849350e-04 0.0000000000000000e+00  5.6646043019766642e-05 -2.6514805137721584e-04 0.0000000000000000e+00  5.7757793003101332e-05 -2.8377568753065171e-04 0.0000000000000000e+00  5.8672501435583014e-05 -3.0275820590210041e-04 0.0000000000000000e+00  5.9507626224597356e-05 -3.2214089663885762e-04 0.0000000000000000e+00  6.0207799313364677e-05 -3.4176935480638389e-04 0.0000000000000000e+00  6.0823717990984853e-05 -3.6175159464446328e-04 0.0000000000000000e+00  6.1309910012577912e-05 -3.8194133635304926e-04 0.0000000000000000e+00  6.1711538895238579e-05 -4.0243160146391515e-04 0.0000000000000000e+00  6.1985818620628543e-05 -4.2308212263397798e-04 0.0000000000000000e+00  6.2178772114825743e-05 -4.4398868312350929e-04 0.0000000000000000e+00  6.2244032821329160e-05 -4.6500934103171806e-04 0.0000000000000000e+00  6.2217256311599526e-05 -4.8625775890482362e-04 0.0000000000000000e+00  6.2077731793206878e-05 -5.0758134305183369e-04 0.0000000000000000e+00  6.1848105397139714e-05 -5.2908182652788404e-04 0.0000000000000000e+00  6.1507318487856021e-05 -5.5062615034397091e-04 0.0000000000000000e+00  6.1073149444814138e-05 -5.7231307699061871e-04 0.0000000000000000e+00  6.0527407006673046e-05 -5.9401713390827852e-04 0.0000000000000000e+00  5.9881506004567346e-05 -6.1581674906802271e-04 0.0000000000000000e+00  5.9141537345581708e-05 -6.3763115153294802e-04 0.0000000000000000e+00  5.8291500476936018e-05 -6.5949930066051159e-04 0.0000000000000000e+00  5.7384336860570083e-05 -6.8138041009090241e-04 0.0000000000000000e+00  5.6355754883340202e-05 -7.0324071806229164e-04 0.0000000000000000e+00  5.5276827847336219e-05 -7.2517446431240740e-04 0.0000000000000000e+00  3.9019021433114100e-05 -7.4617419489350666e-04 0.0000000000000000e+00  9.5189474271608446e-06 -7.4376461517160414e-04 0.0000000000000000e+00  -3.7320906061976579e-06 -7.2066627560544614e-04 0.0000000000000000e+00  -2.6018049117256480e-06 -6.9853150553344937e-04 0.0000000000000000e+00  -1.5131884829895555e-06 -6.7636817939650275e-04 0.0000000000000000e+00  -5.1824673313577926e-07 -6.5427044408714356e-04 0.0000000000000000e+00  4.2280003950089641e-07 -6.3220043914007714e-04 0.0000000000000000e+00  1.2717756960899640e-06 -6.1017608678690766e-04 0.0000000000000000e+00  2.0793800312008290e-06 -5.8820570819524156e-04 0.0000000000000000e+00  2.7892566852770493e-06 -5.6627315773470036e-04 0.0000000000000000e+00  3.4642985570608548e-06 -5.4445576170361783e-04 0.0000000000000000e+00  4.0459218018710170e-06 -5.2268182499223240e-04 0.0000000000000000e+00  4.6078956543344849e-06 -5.0105168795887300e-04 0.0000000000000000e+00  5.0692145770255706e-06 -4.7949879867176958e-04 0.0000000000000000e+00  5.5253974635113727e-06 -4.5812963126283762e-04 0.0000000000000000e+00  5.8762252312498378e-06 -4.3687967809998484e-04 0.0000000000000000e+00  6.2393110124488015e-06 -4.1585078291129905e-04 0.0000000000000000e+00  6.4843032851243926e-06 -3.9498127168967448e-04 0.0000000000000000e+00  6.7607757255878142e-06 -3.7436907366877794e-04 0.0000000000000000e+00  6.9037845584275670e-06 -3.5395691140811098e-04 0.0000000000000000e+00  7.0929577903303726e-06 -3.3385420532163016e-04 0.0000000000000000e+00  7.1385506744691997e-06 -3.1400482227452879e-04 0.0000000000000000e+00  7.2546310086232305e-06 -2.9451123802617008e-04 0.0000000000000000e+00  7.2093269574524477e-06 -2.7532113216039301e-04 0.0000000000000000e+00  7.2320377859991301e-06 -2.5652383029097539e-04 0.0000000000000000e+00  7.1233017573796287e-06 -2.3807240467105999e-04 0.0000000000000000e+00  6.9534432604528857e-06 -2.2010454619263519e-04 0.0000000000000000e+00  6.8692445391144241e-06 -2.0250449565344111e-04 0.0000000000000000e+00  6.6530116320055078e-06 -1.8540127969610004e-04 0.0000000000000000e+00  6.4609959213308591e-06 -1.6882162121071228e-04 0.0000000000000000e+00  6.1745462131539226e-06 -1.5274155189835860e-04 0.0000000000000000e+00  5.9073607434415481e-06 -1.3726126591167214e-04 0.0000000000000000e+00  5.5465326280073772e-06 -1.2232205189428288e-04 0.0000000000000000e+00  5.2700194230292482e-06 -1.0812369483781903e-04 0.0000000000000000e+00  4.8209891386084910e-06 -9.4465429450169488e-05 0.0000000000000000e+00  4.3208011857532704e-06 -8.1645784739241479e-05 0.0000000000000000e+00  3.9774004920973265e-06 -6.9416224671688332e-05 0.0000000000000000e+00  3.4802589179081844e-06 -5.8047602017544887e-05 0.0000000000000000e+00  3.0364874381968848e-06 -4.7507375084210169e-05 0.0000000000000000e+00  2.4890770796423868e-06 -3.7784634721108229e-05 0.0000000000000000e+00  2.0849577286924709e-06 -2.9070968200561240e-05 0.0000000000000000e+00  1.4730784768039647e-06 -2.1136395683301393e-05 0.0000000000000000e+00  8.3873632722487017e-07 -1.4333434671415116e-05 0.0000000000000000e+00  4.6162009256657953e-07 -8.3554293097525379e-06 0.0000000000000000e+00  -6.6112969476730721e-08 -3.4635195610388209e-06 0.0000000000000000e+00  -3.0842856478966938e-07 3.5137074351182855e-07 0.0000000000000000e+00  -5.7763146279579622e-07 2.9029190652428729e-06 0.0000000000000000e+00  -3.1303909745686269e-07 4.0859473123361711e-06 0.0000000000000000e+00  8.0648409626648952e-07 -1.1127615119180816e-06 0.0000000000000000e+00  2.6481818617370704e-05 -7.1186642889581417e-04 0.0000000000000000e+00  2.8852349426681757e-05 -6.6980806308580376e-04 0.0000000000000000e+00  3.1217679170095024e-05 -6.0125861796882490e-04 0.0000000000000000e+00  4.7863723363318997e-06 -6.4567162456784631e-06 0.0000000000000000e+00  3.2115380626450788e-05 -5.5835200069924765e-04 0.0000000000000000e+00  8.2116519191446472e-06 -1.5675164312149849e-05 0.0000000000000000e+00  3.3053799416245959e-05 -5.1500953628092871e-04 0.0000000000000000e+00  1.3709784759564739e-05 -3.8596100127117244e-05 0.0000000000000000e+00  1.7109484895086843e-05 -5.7592567501801642e-05 0.0000000000000000e+00  3.3673413105662167e-05 -4.7210832790295354e-04 0.0000000000000000e+00  2.3996836167402800e-05 -1.2028351392621738e-04 0.0000000000000000e+00  3.3977085956063620e-05 -3.8824847490132210e-04 0.0000000000000000e+00  1.9848904148592032e-05 -7.9162509583669043e-05 0.0000000000000000e+00  2.6494405128363278e-05 -1.4941829634509537e-04 0.0000000000000000e+00  3.3668171507415329e-05 -3.4761681832885848e-04 0.0000000000000000e+00  3.3979861148360392e-05 -4.2980118373650062e-04 0.0000000000000000e+00  2.8492418820426573e-05 -1.8140109951452158e-04 0.0000000000000000e+00  3.3051494491793479e-05 -3.0810094493616329e-04 0.0000000000000000e+00  2.9822163169597154e-05 -2.1397904159800102e-04 0.0000000000000000e+00  3.2483402745612482e-05 -2.7072101203656665e-04 0.0000000000000000e+00  3.1159090521819462e-05 -2.4078434664920510e-04 0.0000000000000000e+00  2.2155068437387776e-05 -9.8156708746663558e-05 0.0000000000000000e+00  2.9532224567627756e-05 -6.3681329064795163e-04 0.0000000000000000e+00  1.0993554264423637e-05 -2.5739616450830746e-05 0.0000000000000000e+00  1.7388165015267083e-05 -6.8984353131161351e-04 0.0000000000000000e+00  1.5570246792986434e-06 -1.1738418434400600e-06 0.0000000000000000e+00  2.4204858414423939e-05 -5.3572995236817898e-04 0.0000000000000000e+00  2.3043289670543170e-05 -5.7929263288651286e-04 0.0000000000000000e+00  8.8675054350330061e-06 -1.2907290725893341e-05 0.0000000000000000e+00  1.9211052263645634e-05 -4.9197442596863466e-05 0.0000000000000000e+00  2.5951712194080226e-05 -4.0787329942055986e-04 0.0000000000000000e+00  2.5072978818190112e-05 -4.9254102644417084e-04 0.0000000000000000e+00  3.1128505636494342e-05 -1.3577180525266197e-04 0.0000000000000000e+00  2.5978832189487982e-05 -3.6671155143247692e-04 0.0000000000000000e+00  2.3025446170979601e-05 -7.0141055059163098e-05 0.0000000000000000e+00  3.3719550356339109e-05 -1.6658105700944562e-04 0.0000000000000000e+00  2.5732909376397373e-05 -3.2656702136613867e-04 0.0000000000000000e+00  2.5651734774113365e-05 -4.4986820722774437e-04 0.0000000000000000e+00  3.7406587324613478e-05 -1.9968678637043394e-04 0.0000000000000000e+00  2.5216822573601068e-05 -2.8763778656195813e-04 0.0000000000000000e+00  8.3646843728192217e-09 -1.4655095591290563e-06 0.0000000000000000e+00  -4.5575456656797337e-07 9.4806166622503976e-07 0.0000000000000000e+00  3.2277637619531768e-05 -7.2971670329748323e-04 0.0000000000000000e+00  4.3208695011989323e-06 -5.6714999472930816e-06 0.0000000000000000e+00