<?xml version="1.0"?>
<VTKFile type="UnstructuredGrid"  version="0.1"  >
<UnstructuredGrid>
<Piece  NumberOfPoints="1419" NumberOfCells="2698">
<Points>
<DataArray  type="Float64"  NumberOfComponents="3"  format="ascii">0 0 0  0 0.41 0  2.5 0 0  2.5 0.41 0  0.6 0.19 0  0.6 0.21 0  0.25 0.2 0  0.15 0.2 0  0.2489897948556636 0.21 0  0.2489897948556636 0.19 0  0.6 0.2 0  0 0.3807142857143437 0  0 0.3514285714286952 0  0 0.3221428571430699 0  0 0.29285714285744 0  0 0.2635714285718054 0  0 0.2342857142861561 0  0 0.2050000000005308 0  0 0.175714285714732 0  0 0.1464285714289574 0  0 0.1171428571431897 0  0 0.08785714285737878 0  0 0.05857142857161107 0  0 0.02928571428580012 0  0.03015443760436003 0 0  0.06140001986583606 0 0  0.09377624077125973 0 0  0.1273239957535082 0 0  0.1620856860351972 0 0  0.1981052433264291 0 0  0.235428184091502 0 0  0.2741016576309132 0 0  0.3141745521465447 0 0  0.3556974926295285 0 0  0.3987229542472677 0 0  0.4433053055141081 0 0  0.4895008759286886 0 0  0.5373680609405097 0 0  0.5869673343216626 0 0  0.6383613676634521 0 0  0.6916151138468254 0 0  0.7467958595648856 0 0  0.8039733463919316 0 0  0.8632198139502143 0 0  0.9246101326867038 0 0  0.9882218810934433 0 0  1.054135445558498 0 0  1.122434100542598 0 0  1.193204177141305 0 0  1.266535089879536 0 0  1.342519516046404 0 0  1.421253448503939 0 0  1.502836389106271 0 0  1.587371439758838 0 0  1.674965418777374 0 0  1.765729001825544 0 0  1.859776908880082 0 0  1.957227977487062 0 0  2.058205329869943 0 0  2.162836591189951 0 0  2.271253957290865 0 0  2.383594446803425 0 0  2.5 0.1024999999997612 0  2.5 0.2049999999994743 0  2.5 0.3074999999997183 0  2.383594446803656 0.41 0  2.271253957291315 0.41 0  2.162836591190598 0.41 0  2.058205329870775 0.41 0  1.957227977488067 0.41 0  1.859776908881246 0.41 0  1.765729001826854 0.41 0  1.674965418778818 0.41 0  1.58737143976041 0.41 0  1.502836389107956 0.41 0  1.421253448505726 0.41 0  1.342519516048286 0.41 0  1.266535089881505 0.41 0  1.193204177143353 0.41 0  1.122434100544716 0.41 0  1.05413544556068 0.41 0  0.9882218810956305 0.41 0  0.9246101326886647 0.41 0  0.8632198139519631 0.41 0  0.8039733463934788 0.41 0  0.7467958595662458 0.41 0  0.6916151138480078 0.41 0  0.6383613676644679 0.41 0  0.5869673343225223 0.41 0  0.5373680609412221 0.41 0  0.4895008759292634 0.41 0  0.4433053055145528 0.41 0  0.3987229542475914 0.41 0  0.3556974926297398 0.41 0  0.3141745521466497 0.41 0  0.2741016576310038 0.41 0  0.2354281840915826 0.41 0  0.1981052433265003 0.41 0  0.1620856860352591 0.41 0  0.1273239957535623 0.41 0  0.09377624077128965 0.41 0  0.06140001986584975 0.41 0  0.03015443760436654 0.41 0  0.2497468076502589 0.2050254481002335 0  0.2497468076502614 0.1949745518997913 0  0.2469965252529372 0.1829317073451959 0  0.2439893735792749 0.1762316384219906 0  0.2400332147834255 0.1700443375285386 0  0.2352133972704371 0.1645032867342007 0  0.2296339016332438 0.1597280261969788 0  0.2234150974217223 0.1558215752574715 0  0.2166911463437691 0.1528682099456123 0  0.2096071079204251 0.1509316448471593 0  0.2023158100364996 0.1500536585536553 0  0.194974551899914 0.1502531923497262 0  0.1877417105387872 0.1515259415822739 0  0.1807733240461124 0.153844448527136 0  0.1742197252835808 0.15715869474974 0  0.1682222986673531 0.1613971801805478 0  0.162910430003803 0.1664684656256651 0  0.1583987151779087 0.1722631454351573 0  0.1547844879126891 0.178656207771761 0  0.1521457199348551 0.1855097315605723 0  0.1505393388476355 0.1926758619366523 0  0.1505393388476328 0.2073241380633295 0  0.1521457199348437 0.2144902684393899 0  0.1547844879126531 0.221343792228163 0  0.1583987151778488 0.2277368545647528 0  0.1629104300036858 0.2335315343742052 0  0.1682222986671726 0.2386028198193036 0  0.1742197252833576 0.2428413052501257 0  0.1807733240458683 0.2461555514727623 0  0.1877417105384929 0.2484740584176516 0  0.1949745518995776 0.2497468076502398 0  0.202315810036185 0.2499463414463592 0  0.2096071079201568 0.2490683551528932 0  0.2166911463435495 0.2471317900544655 0  0.2234150974215506 0.2441784247426195 0  0.2296339016331197 0.2402719738031125 0  0.2352133972703547 0.2354967132658811 0  0.2400332147833751 0.2299556624715287 0  0.2439893735792577 0.2237683615780412 0  0.246996525252926 0.2170682926548348 0  0.25645809709277 0.21 0  0.2639263993298655 0.21 0  0.271394701566961 0.21 0  0.2788630038040554 0.21 0  0.2863313060411479 0.21 0  0.2937996082782405 0.21 0  0.301267910515333 0.21 0  0.3087362127524279 0.21 0  0.3162045149895234 0.21 0  0.3236728172265972 0.21 0  0.3311411194636928 0.21 0  0.3386094217007701 0.21 0  0.3460777239378666 0.21 0  0.3535460261749672 0.21 0  0.3610143284120516 0.21 0  0.3684826306491596 0.21 0  0.3759509328862226 0.21 0  0.383419235123329 0.21 0  0.3908875373604028 0.21 0  0.3983558395975142 0.21 0  0.4058241418345938 0.21 0  0.4132924440716992 0.21 0  0.4207607463087888 0.21 0  0.4282290485459029 0.21 0  0.4356973507830418 0.21 0  0.4431656530201649 0.21 0  0.4506339552573136 0.21 0  0.4581022574944306 0.21 0  0.4655705597315852 0.21 0  0.4730388619686996 0.21 0  0.480507164205851 0.21 0  0.4879754664429498 0.21 0  0.4954437686800938 0.21 0  0.502912070917267 0.21 0  0.5103803731544119 0.21 0  0.5178486753915261 0.21 0  0.5253169776286404 0.21 0  0.5327852798657868 0.21 0  0.5402535821029386 0.21 0  0.54772188434007 0.21 0  0.5551901865771842 0.21 0  0.5626584888143201 0.21 0  0.5701267910514778 0.21 0  0.5775950932886138 0.21 0  0.5850633955257281 0.21 0  0.5925316977628483 0.21 0  0.6 0.2050000000000054 0  0.6 0.1950000000000217 0  0.5925316977628897 0.19 0  0.5850633955257988 0.19 0  0.5775950932887378 0.19 0  0.5701267910515998 0.19 0  0.5626584888145268 0.19 0  0.5551901865773963 0.19 0  0.547721884340339 0.19 0  0.5402535821032429 0.19 0  0.5327852798661811 0.19 0  0.5253169776290537 0.19 0  0.5178486753919799 0.19 0  0.5103803731549078 0.19 0  0.502912070917822 0.19 0  0.4954437686807294 0.19 0  0.4879754664436223 0.19 0  0.4805071642065402 0.19 0  0.4730388619694271 0.19 0  0.4655705597323621 0.19 0  0.4581022574952563 0.19 0  0.4506339552581777 0.19 0  0.4431656530210671 0.19 0  0.4356973507839815 0.19 0  0.4282290485468779 0.19 0  0.4207607463097617 0.19 0  0.4132924440726327 0.19 0  0.4058241418354857 0.19 0  0.3983558395983636 0.19 0  0.3908875373612097 0.19 0  0.3834192351240934 0.19 0  0.3759509328869369 0.19 0  0.3684826306498175 0.19 0  0.361014328412667 0.19 0  0.3535460261755617 0.19 0  0.3460777239384295 0.19 0  0.3386094217012945 0.19 0  0.3311411194641595 0.19 0  0.3236728172270245 0.19 0  0.3162045149898895 0.19 0  0.3087362127527544 0.19 0  0.3012679105156187 0.19 0  0.2937996082784807 0.19 0  0.2863313060413428 0.19 0  0.2788630038042048 0.19 0  0.2713947015670686 0.19 0  0.2639263993299336 0.19 0  0.2564580970927985 0.19 0  0.2607803159922026 0.2000727136295815 0  0.5887803774232762 0.2001272386983733 0  0.5745072403740523 0.2002044435018727 0  0.5511891430099709 0.2001122610077113 0  0.2751288526855082 0.20000000000002 0  0.5365194309847112 0.1999999999999436 0  0.2894621222999649 0.1998691686390484 0  0.5215828265105155 0.1999999999999228 0  0.3127789816668748 0.1998657885438805 0  0.3274069683451451 0.2000000000000796 0  0.5066462220363641 0.199999999999908 0  0.3650630746574081 0.199866017807523 0  0.476773013087985 0.1999999999998713 0  0.3417402379596385 0.1998691686391011 0  0.3796850840047755 0.200000000000134 0  0.4618364086138087 0.1999999999998546 0  0.4917096175621762 0.1999999999998808 0  0.3946216884789568 0.2000000000001512 0  0.446899804139621 0.1999999999998389 0  0.4089549580935208 0.1998691686391595 0  0.4322718174608562 0.200127451265745 0  0.4201487168029707 0.1999966199048527 0  0.3528922713220932 0.2000185703532356 0  0.5633122436674589 0.1999814296467508 0  0.3006558810093873 0.1999966199048318 0  0.5815926498168407 0.1966545283159175 0  0.2677053789419034 0.1964246479135325 0  0.5290511287476175 0.1970915826863981 0  0.5439877332217911 0.197091582686394 0  0.2825131256993216 0.2035478995978015 0  0.3199386661080599 0.202908417313604 0  0.4842413153250809 0.1970915826863873 0  0.5141145242734466 0.1970915826863843 0  0.3722167817676917 0.2029084173136195 0  0.4693047108508938 0.1970915826863783 0  0.3348752705822316 0.202908417313609 0  0.3871533862418661 0.2029084173136212 0  0.4543681063767183 0.1970915826863795 0  0.4991779197992749 0.1970915826863902 0  0.4020059614928624 0.203547899597858 0  0.4394315019025246 0.1970915826863714 0  0.2550657455369551 0.2034088125358657 0  0.2548908499171161 0.1966940311614271 0  0.5946539510196798 0.2024302972968126 0  0.267698176732111 0.2039977513680092 0  0.4261685417851465 0.196409292431739 0  0.3590076176283495 0.196411355804271 0  0.5571672426447437 0.2036011176410121 0  0.3066757059912147 0.1964092924317024 0  0.594380730180568 0.1966558399668133 0  0.4842413153245942 0.2040749161535287 0  0.4693047108503577 0.2040749161535231 0  0.3871533862424271 0.1959250838464788 0  0.372246743208829 0.1959123236376545 0  0.5141145242731028 0.2040749161535395 0  0.4543681063761134 0.2040749161535186 0  0.4019979587101454 0.1959834479682427 0  0.4394608940728603 0.2040870543693135 0  0.5439623148931173 0.2040856076781014 0  0.5290511287473298 0.2040749161535501 0  0.4991779197988497 0.2040749161535382 0  0.3347912413592433 0.1959225448935183 0  0.3199680582793816 0.1959123018030061 0  0.2825051229162361 0.1959834479681729 0  0.3590471196690275 0.2036304442587945 0  0.5571594006495384 0.1963685282145804 0  0.3067669986803285 0.203627750582736 0  0.4262598344738712 0.2036568242185335 0  0.5814408164431408 0.2041285596160068 0  0.5688286748170428 0.1961819304477386 0  0.4145905603063645 0.2038180695522843 0  0.3473758401724931 0.2038180695522752 0  0.2950977245128307 0.2038180695522663 0  0.5688286748170693 0.203818069552238 0  0.2950977245127906 0.1961819304477774 0  0.3473758401723931 0.1961819304478349 0  0.4145905603061963 0.1961819304479011 0  0.2601812407614425 0.2056861609747042
[...]
<PointData  Vectors="f_40-0"> 
<DataArray  type="Float64"  Name="f_40-0"  NumberOfComponents="3" format="ascii">0.0000000000000000e+00 0.0000000000000000e+00 0.0000000000000000e+00  0.0000000000000000e+00 0.0000000000000000e+00 0.0000000000000000e+00  0.0000000000000000e+00 0.0000000000000000e+00 0.0000000000000000e+00  0.0000000000000000e+00 0.0000000000000000e+00 0.0000000000000000e+00  -1.9638891527736357e-05 -1.3719441492680383e-05 0.0000000000000000e+00  -1.7457230635301383e-05 -1.9634787296853479e-05 0.0000000000000000e+00  0.0000000000000000e+00 0.0000000000000000e+00 0.0000000000000000e+00  0.0000000000000000e+00 0.0000000000000000e+00 0.0000000000000000e+00  0.0000000000000000e+00 0.0000000000000000e+00 0.0000000000000000e+00  0.0000000000000000e+00 0.0000000000000000e+00 0.0000000000000000e+00  -1.8757743164318909e-05 -1.6672019368915433e-05 0.0000000000000000e+00  1.8314594842666814e-03 0.0000000000000000e+00 0.0000000000000000e+00  3.3811559709540982e-03 0.0000000000000000e+00 0.0000000000000000e+00  4.6490894600618856e-03 0.0000000000000000e+00 0.0000000000000000e+00  5.6352599515915123e-03 0.0000000000000000e+00 0.0000000000000000e+00  6.3396674455428494e-03 0.0000000000000000e+00 0.0000000000000000e+00  6.7623119419158561e-03 0.0000000000000000e+00 0.0000000000000000e+00  6.9031934407101101e-03 0.0000000000000000e+00 0.0000000000000000e+00  6.7623119419244022e-03 0.0000000000000000e+00 0.0000000000000000e+00  6.3396674455575260e-03 0.0000000000000000e+00 0.0000000000000000e+00  5.6352599516096896e-03 0.0000000000000000e+00 0.0000000000000000e+00  4.6490894600791539e-03 0.0000000000000000e+00 0.0000000000000000e+00  3.3811559709688334e-03 0.0000000000000000e+00 0.0000000000000000e+00  1.8314594842749842e-03 0.0000000000000000e+00 0.0000000000000000e+00  0.0000000000000000e+00 0.0000000000000000e+00 0.0000000000000000e+00  0.0000000000000000e+00 0.0000000000000000e+00 0.0000000000000000e+00  0.0000000000000000e+00 0.0000000000000000e+00 0.0000000000000000e+00  0.0000000000000000e+00 0.0000000000000000e+00 0.0000000000000000e+00  0.0000000000000000e+00 0.0000000000000000e+00 0.0000000000000000e+00  0.0000000000000000e+00 0.0000000000000000e+00 0.0000000000000000e+00  0.0000000000000000e+00 0.0000000000000000e+00 0.0000000000000000e+00  0.0000000000000000e+00 0.0000000000000000e+00 0.0000000000000000e+00  0.0000000000000000e+00 0.0000000000000000e+00 0.0000000000000000e+00  0.0000000000000000e+00 0.0000000000000000e+00 0.0000000000000000e+00  0.0000000000000000e+00 0.0000000000000000e+00 0.0000000000000000e+00  0.0000000000000000e+00 0.0000000000000000e+00 0.0000000000000000e+00  0.0000000000000000e+00 0.0000000000000000e+00 0.0000000000000000e+00  0.0000000000000000e+00 0.0000000000000000e+00 0.0000000000000000e+00  0.0000000000000000e+00 0.0000000000000000e+00 0.0000000000000000e+00  0.0000000000000000e+00 0.0000000000000000e+00 0.0000000000000000e+00  0.0000000000000000e+00 0.0000000000000000e+00 0.0000000000000000e+00  0.0000000000000000e+00 0.0000000000000000e+00 0.0000000000000000e+00  0.0000000000000000e+00 0.0000000000000000e+00 0.0000000000000000e+00  0.0000000000000000e+00 0.0000000000000000e+00 0.0000000000000000e+00  0.0000000000000000e+00 0.0000000000000000e+00 0.0000000000000000e+00  0.0000000000000000e+00 0.0000000000000000e+00 0.0000000000000000e+00  0.0000000000000000e+00 0.0000000000000000e+00 0.0000000000000000e+00  0.0000000000000000e+00 0.0000000000000000e+00 0.0000000000000000e+00  0.0000000000000000e+00 0.0000000000000000e+00 0.0000000000000000e+00  0.0000000000000000e+00 0.0000000000000000e+00 0.0000000000000000e+00  0.0000000000000000e+00 0.0000000000000000e+00 0.0000000000000000e+00  0.0000000000000000e+00 0.0000000000000000e+00 0.0000000000000000e+00  0.0000000000000000e+00 0.0000000000000000e+00 0.0000000000000000e+00  0.0000000000000000e+00 0.0000000000000000e+00 0.0000000000000000e+00  0.0000000000000000e+00 0.0000000000000000e+00 0.0000000000000000e+00  0.0000000000000000e+00 0.0000000000000000e+00 0.0000000000000000e+00  0.0000000000000000e+00 0.0000000000000000e+00 0.0000000000000000e+00  0.0000000000000000e+00 0.0000000000000000e+00 0.0000000000000000e+00  0.0000000000000000e+00 0.0000000000000000e+00 0.0000000000000000e+00  0.0000000000000000e+00 0.0000000000000000e+00 0.0000000000000000e+00  0.0000000000000000e+00 0.0000000000000000e+00 0.0000000000000000e+00  0.0000000000000000e+00 0.0000000000000000e+00 0.0000000000000000e+00  6.5776282027749725e-03 2.4253143107650981e-04 0.0000000000000000e+00  4.6122545313112386e-03 -6.1437223310120439e-06 0.0000000000000000e+00  6.4960900783937710e-03 -4.0812444038299222e-04 0.0000000000000000e+00  0.0000000000000000e+00 0.0000000000000000e+00 0.0000000000000000e+00  0.0000000000000000e+00 0.0000000000000000e+00 0.0000000000000000e+00  0.0000000000000000e+00 0.0000000000000000e+00 0.0000000000000000e+00  0.0000000000000000e+00 0.0000000000000000e+00 0.0000000000000000e+00  0.0000000000000000e+00 0.0000000000000000e+00 0.0000000000000000e+00  0.0000000000000000e+00 0.0000000000000000e+00 0.0000000000000000e+00  0.0000000000000000e+00 0.0000000000000000e+00 0.0000000000000000e+00  0.0000000000000000e+00 0.0000000000000000e+00 0.0000000000000000e+00  0.0000000000000000e+00 0.0000000000000000e+00 0.0000000000000000e+00  0.0000000000000000e+00 0.0000000000000000e+00 0.0000000000000000e+00  0.0000000000000000e+00 0.0000000000000000e+00 0.0000000000000000e+00  0.0000000000000000e+00 0.0000000000000000e+00 0.0000000000000000e+00  0.0000000000000000e+00 0.0000000000000000e+00 0.0000000000000000e+00  0.0000000000000000e+00 0.0000000000000000e+00 0.0000000000000000e+00  0.0000000000000000e+00 0.0000000000000000e+00 0.0000000000000000e+00  0.0000000000000000e+00 0.0000000000000000e+00 0.0000000000000000e+00  0.0000000000000000e+00 0.0000000000000000e+00 0.0000000000000000e+00  0.0000000000000000e+00 0.0000000000000000e+00 0.0000000000000000e+00  0.0000000000000000e+00 0.0000000000000000e+00 0.0000000000000000e+00  0.0000000000000000e+00 0.0000000000000000e+00 0.0000000000000000e+00  0.0000000000000000e+00 0.0000000000000000e+00 0.0000000000000000e+00  0.0000000000000000e+00 0.0000000000000000e+00 0.0000000000000000e+00  0.0000000000000000e+00 0.0000000000000000e+00 0.0000000000000000e+00  0.0000000000000000e+00 0.0000000000000000e+00 0.0000000000000000e+00  0.0000000000000000e+00 0.0000000000000000e+00 0.0000000000000000e+00  0.0000000000000000e+00 0.0000000000000000e+00 0.0000000000000000e+00  0.0000000000000000e+00 0.0000000000000000e+00 0.0000000000000000e+00  0.0000000000000000e+00 0.0000000000000000e+00 0.0000000000000000e+00  0.0000000000000000e+00 0.0000000000000000e+00 0.0000000000000000e+00  0.0000000000000000e+00 0.0000000000000000e+00 0.0000000000000000e+00  0.0000000000000000e+00 0.0000000000000000e+00 0.0000000000000000e+00  0.0000000000000000e+00 0.0000000000000000e+00 0.0000000000000000e+00  0.0000000000000000e+00 0.0000000000000000e+00 0.0000000000000000e+00  0.0000000000000000e+00 0.0000000000000000e+00 0.0000000000000000e+00  0.0000000000000000e+00 0.0000000000000000e+00 0.0000000000000000e+00  0.0000000000000000e+00 0.0000000000000000e+00 0.0000000000000000e+00  0.0000000000000000e+00 0.0000000000000000e+00 0.0000000000000000e+00  0.0000000000000000e+00 0.0000000000000000e+00 0.0000000000000000e+00  0.0000000000000000e+00 0.0000000000000000e+00 0.0000000000000000e+00  0.0000000000000000e+00 0.0000000000000000e+00 0.0000000000000000e+00  0.0000000000000000e+00 0.0000000000000000e+00 0.0000000000000000e+00  0.0000000000000000e+00 0.0000000000000000e+00 0.0000000000000000e+00  0.0000000000000000e+00 0.0000000000000000e+00 0.0000000000000000e+00  0.0000000000000000e+00 0.0000000000000000e+00 0.0000000000000000e+00  0.0000000000000000e+00 0.0000000000000000e+00 0.0000000000000000e+00  0.0000000000000000e+00 0.0000000000000000e+00 0.0000000000000000e+00  0.0000000000000000e+00 0.0000000000000000e+00 0.0000000000000000e+00  0.0000000000000000e+00 0.0000000000000000e+00 0.0000000000000000e+00  0.0000000000000000e+00 0.0000000000000000e+00 0.0000000000000000e+00  0.0000000000000000e+00 0.0000000000000000e+00 0.0000000000000000e+00  0.0000000000000000e+00 0.0000000000000000e+00 0.0000000000000000e+00  0.0000000000000000e+00 0.0000000000000000e+00 0.0000000000000000e+00  0.0000000000000000e+00 0.0000000000000000e+00 0.0000000000000000e+00  0.0000000000000000e+00 0.0000000000000000e+00 0.0000000000000000e+00  0.0000000000000000e+00 0.0000000000000000e+00 0.0000000000000000e+00  0.0000000000000000e+00 0.0000000000000000e+00 0.0000000000000000e+00  0.0000000000000000e+00 0.0000000000000000e+00 0.0000000000000000e+00  0.0000000000000000e+00 0.0000000000000000e+00 0.0000000000000000e+00  0.0000000000000000e+00 0.0000000000000000e+00 0.0000000000000000e+00  0.0000000000000000e+00 0.0000000000000000e+00 0.0000000000000000e+00  0.0000000000000000e+00 0.0000000000000000e+00 0.0000000000000000e+00  0.0000000000000000e+00 0.0000000000000000e+00 0.0000000000000000e+00  0.0000000000000000e+00 0.0000000000000000e+00 0.0000000000000000e+00  0.0000000000000000e+00 0.0000000000000000e+00 0.0000000000000000e+00  0.0000000000000000e+00 0.0000000000000000e+00 0.0000000000000000e+00  0.0000000000000000e+00 0.0000000000000000e+00 0.0000000000000000e+00  0.0000000000000000e+00 0.0000000000000000e+00 0.0000000000000000e+00  0.0000000000000000e+00 0.0000000000000000e+00 0.0000000000000000e+00  0.0000000000000000e+00 0.0000000000000000e+00 0.0000000000000000e+00  0.0000000000000000e+00 0.0000000000000000e+00 0.0000000000000000e+00  0.0000000000000000e+00 0.0000000000000000e+00 0.0000000000000000e+00  0.0000000000000000e+00 0.0000000000000000e+00 0.0000000000000000e+00  0.0000000000000000e+00 0.0000000000000000e+00 0.0000000000000000e+00  0.0000000000000000e+00 0.0000000000000000e+00 0.0000000000000000e+00  0.0000000000000000e+00 0.0000000000000000e+00 0.0000000000000000e+00  0.0000000000000000e+00 0.0000000000000000e+00 0.0000000000000000e+00  0.0000000000000000e+00 0.0000000000000000e+00 0.0000000000000000e+00  0.0000000000000000e+00 0.0000000000000000e+00 0.0000000000000000e+00  1.9708002492883192e-08 -5.3873861435508337e-06 0.0000000000000000e+00  2.0007897067915853e-07 -5.7711596883941035e-06 0.0000000000000000e+00  6.6096751540926219e-07 -5.8367189513760447e-06 0.0000000000000000e+00  1.2445618770035472e-06 -5.7199958515271100e-06 0.0000000000000000e+00  1.8684327538410784e-06 -5.5982831921074904e-06 0.0000000000000000e+00  2.4491443179742396e-06 -5.5164189748122714e-06 0.0000000000000000e+00  3.0064540631860697e-06 -5.4261062367123172e-06 0.0000000000000000e+00  3.5166123279817026e-06 -5.3372120545470861e-06 0.0000000000000000e+00  4.0016946887771573e-06 -5.2527983777313099e-06 0.0000000000000000e+00  4.4418526680364339e-06 -5.1669406178830114e-06 0.0000000000000000e+00  4.8497191151532591e-06 -5.1080874382534575e-06 0.0000000000000000e+00  5.2115316780511251e-06 -5.0477238744807233e-06 0.0000000000000000e+00  5.5324859148155279e-06 -5.0137483324699834e-06 0.0000000000000000e+00  5.8136333244015816e-06 -5.0064816996206719e-06 0.0000000000000000e+00  6.0366607205892020e-06 -5.0228830622294489e-06 0.0000000000000000e+00  6.2338015280938859e-06 -5.0815607483827658e-06 0.0000000000000000e+00  6.3655107385784855e-06 -5.1519428491495027e-06 0.0000000000000000e+00  6.4573862585729603e-06 -5.2877568884154992e-06 0.0000000000000000e+00  6.4844599552261129e-06 -5.4296412511118180e-06 0.0000000000000000e+00  6.4701730287567794e-06 -5.6367332188093838e-06 0.0000000000000000e+00  6.3893826679951689e-06 -5.8499805866130430e-06 0.0000000000000000e+00  6.2493232898493518e-06 -6.1117742223429987e-06 0.0000000000000000e+00  6.0591050985249713e-06 -6.4030733369936056e-06 0.0000000000000000e+00  5.7943396421342320e-06 -6.7155891946633963e-06 0.0000000000000000e+00  5.4899784028519180e-06 -7.0686011355423568e-06 0.0000000000000000e+00  5.1101468258102610e-06 -7.4167712695431689e-06 0.0000000000000000e+00  4.6666560493496279e-06 -7.8266909990454239e-06 0.0000000000000000e+00  4.1631700666058461e-06 -8.2174509039311187e-06 0.0000000000000000e+00  3.5942831947249762e-06 -8.6599977515599643e-06 0.0000000000000000e+00  2.9657345959555036e-06 -9.0923475511022796e-06 0.0000000000000000e+00  2.2755343232390227e-06 -9.5684786258332625e-06 0.0000000000000000e+00  1.5189287594575073e-06 -1.0035505217855350e-05 0.0000000000000000e+00  7.0930949101196227e-07 -1.0551103749982067e-05 0.0000000000000000e+00  -1.7095414562291224e-07 -1.1044899127421920e-05 0.0000000000000000e+00  -1.1198289808347293e-06 -1.1599236120198426e-05 0.0000000000000000e+00  -2.1285612930540821e-06 -1.2143677482609936e-05 0.0000000000000000e+00  -3.1982729296867628e-06 -1.2740611616471810e-05 0.0000000000000000e+00  -4.3327130507411917e-06 -1.3326210571555614e-05 0.0000000000000000e+00  -5.5342030509095382e-06 -1.3959356794709735e-05 0.0000000000000000e+00  -6.8076071427688193e-06 -1.4584486399276475e-05 0.0000000000000000e+00  -8.1503046670309089e-06 -1.5247601919073488e-05 0.0000000000000000e+00  -9.5514341591879817e-06 -1.5912952618787367e-05 0.0000000000000000e+00  -1.1038574267340400e-05 -1.6602368738472707e-05 0.0000000000000000e+00  -1.2567340035841816e-05 -1.7299782761846590e-05 0.0000000000000000e+00  -1.4172938322153613e-05 -1.7991884532106124e-05 0.0000000000000000e+00  -1.5823861650878293e-05 -1.8727445150632364e-05 0.0000000000000000e+00  -1.8190663753087955e-05 -1.8149664705272881e-05 0.0000000000000000e+00  -1.9261904861099363e-05 -1.5196140690917288e-05 0.0000000000000000e+00  -1.7973736435737725e-05 -1.3003205389693150e-05 0.0000000000000000e+00  -1.6297450165638453e-05 -1.2131725503724945e-05 0.0000000000000000e+00  -1.4663081535255186e-05 -1.1243992268172966e-05 0.0000000000000000e+00  -1.3096470582725508e-05 -1.0381402345798440e-05 0.0000000000000000e+00  -1.1574942557483337e-05 -9.5311206338779910e-06 0.0000000000000000e+00  -1.0136668440465986e-05 -8.6990233881759031e-06 0.0000000000000000e+00  -8.7448336890376839e-06 -7.8864660896000499e-06 0.0000000000000000e+00  -7.4292173649783407e-06 -7.0827252759620679e-06 0.0000000000000000e+00  -6.1685316153596980e-06 -6.3200909184942735e-06 0.0000000000000000e+00  -4.9802254772854232e-06 -5.5501221793592442e-06 0.0000000000000000e+00  -3.8509176047118530e-06 -4.8263670299488444e-06 0.0000000000000000e+00  -2.7943505413595578e-06 -4.1004139339963117e-06 0.0000000000000000e+00  -1.7952309127009796e-06 -3.4235852522363438e-06 0.0000000000000000e+00  -8.6626448912543754e-07 -2.7416556735061415e-06 0.0000000000000000e+00  6.3363248752282268e-09 -2.1056105121740248e-06 0.0000000000000000e+00  8.0884539092505770e-07 -1.4611859003446861e-06 0.0000000000000000e+00  1.5538718125129596e-06 -8.5891811732334510e-07 0.0000000000000000e+00  2.2286441101702370e-06 -2.5106184120981348e-07 0.0000000000000000e+00  2.8492845817979400e-06 3.1029163861039451e-07 0.0000000000000000e+00  3.4050880467020322e-06 8.7621214522972728e-07 0.0000000000000000e+00  3.9111317543322770e-06 1.3970598334960287e-06 0.0000000000000000e+00  4.3518978683467356e-06 1.9186759681504996e-06 0.0000000000000000e+00  4.7369291430703730e-06 2.4030156041377639e-06 0.0000000000000000e+00  5.0709287956753847e-06 2.8636874506872743e-06 0.0000000000000000e+00  5.3337205523489872e-06 3.2914279027202522e-06 0.0000000000000000e+00  5.5680035227217362e-06 3.6835239006696184e-06 0.0000000000000000e+00  5.7346154746311447e-06 4.0567981964181129e-06 0.0000000000000000e+00  5.8539021104520227e-06 4.3653437219409359e-06 0.0000000000000000e+00  5.9135642336940518e-06 4.6715802939034274e-06 0.0000000000000000e+00  5.9208309680232915e-06 4.9046585497849100e-06 0.0000000000000000e+00  5.8715523269649602e-06 5.1332286187711198e-06 0.0000000000000000e+00  5.7682146659420373e-06 5.2984686955236864e-06 0.0000000000000000e+00  5.6186969345196286e-06 5.4494495185330024e-06 0.0000000000000000e+00  5.4028617538364391e-06 5.5586604043462753e-06 0.0000000000000000e+00  5.1531533559022878e-06 5.6483462359557275e-06 0.0000000000000000e+00  4.8394512973143371e-06 5.7188287750709086e-06 0.0000000000000000e+00  4.4762000771473776e-06 5.7501526779022864e-06 0.0000000000000000e+00  4.0627913581109305e-06 5.7884791847382295e-06 0.0000000000000000e+00  3.5977228271716417e-06 5.8038655722889057e-06 0.0000000000000000e+00  3.0978608430256879e-06 5.8171655598759101e-06 0.0000000000000000e+00  2.5442990892148532e-06 5.8274605843715542e-06 0.0000000000000000e+00  1.9633118199313844e-06 5.8304934647327770e-06 0.0000000000000000e+00  1.3322009960445037e-06 5.8820419504235729e-06 0.0000000000000000e+00  7.4088747691868226e-07 5.9243076169074432e-06 0.0000000000000000e+00  2.5443779401343075e-07 5.8027640658700792e-06 0.0000000000000000e+00  2.6267874376738451e-08 5.3683993665144935e-06 0.0000000000000000e+00  -8.9235675858127982e-07 -3.2519746840529866e-08 0.0000000000000000e+00  -1.6112006713284013e-05 -1.5490022452875292e-05 0.0000000000000000e+00  -1.2945445219487090e-05 -1.4000494244052757e-05 0.0000000000000000e+00  -8.3920075151917570e-06 -1.1601724327805710e-05 0.0000000000000000e+00  9.6036822217859613e-07 5.5939010253093688e-08 0.0000000000000000e+00  -5.8667227142135558e-06 -1.0156078518424131e-05 0.0000000000000000e+00  2.1625180112972635e-06 2.0727870380040783e-07 0.0000000000000000e+00  -3.5391973301367122e-06 -8.7992294576509541e-06 0.0000000000000000e+00  3.8120619334605083e-06 3.3239878219967136e-07 0.0000000000000000e+00  4.6436511890034830e-06 3.1016020145782793e-07 0.0000000000000000e+00  -1.4706171436409970e-06 -7.5284493381415771e-06 0.0000000000000000e+00  5.9826846150654359e-06 1.7108446865863358e-07 0.0000000000000000e+00  1.8992100134649863e-06 -5.2305166142196209e-06 0.0000000000000000e+00  5.3008451899565709e-06 3.7720457149210552e-07 0.0000000000000000e+00  6.1591778903141716e-06 -1.8951500397939214e-07 0.0000000000000000e+00  3.2073586492077325e-06 -4.1903888897970745e-06 0.0000000000000000e+00  3.4133705239465754e-07 -6.3417993181598761e-06 0.0000000000000000e+00  6.1330247595385936e-06 -6.3275120293258022e-07 0.0000000000000000e+00  4.2703959493120413e-06 -3.2258272877253678e-06 0.0000000000000000e+00  5.8995971542478324e-06 -1.1317588293271688e-06 0.0000000000000000e+00  5.0897411126158148e-06 -2.4198486326920610e-06 0.0000000000000000e+00  5.5657138187493648e-06 -1.7232783804542235e-06 0.0000000000000000e+00  5.6752268945863406e-06 2.3047437099080143e-07 0.0000000000000000e+00  -1.0712723607830912e-05 -1.2776535988659622e-05 0.0000000000000000e+00  2.9884769717699824e-06 1.9532067111196336e-07 0.0000000000000000e+00  -1.4853497700585277e-05 -1.3699249610156448e-05 0.0000000000000000e+00  1.7097649832390232e-07 2.2235273352468374e-06 0.0000000000000000e+00  -4.9363080977972881e-06 -8.4372596809903890e-06 0.0000000000000000e+00  -7.4094650024208761e-06 -9.8786211267671132e-06 0.0000000000000000e+00  1.5789967334014705e-06 -1.9447896612167575e-06 0.0000000000000000e+00  4.2303044268968052e-06 -1.3090206151517036e-06 0.0000000000000000e+00  9.3196186061869188e-07 -4.6132105616921409e-06 0.0000000000000000e+00  -2.7230337245755504e-06 -7.0769076342097858e-06 0.0000000000000000e+00  6.1508956669926193e-06 -1.4995630908524545e-06 0.0000000000000000e+00  2.3794649193294185e-06 -3.4928193691231506e-06 0.0000000000000000e+00  5.0097056235153487e-06 -1.2496428154219211e-06 0.0000000000000000e+00  6.2551399997330532e-06 -1.8326596020251082e-06 0.0000000000000000e+00  3.5790462721238520e-06 -2.4471328467500390e-06 0.0000000000000000e+00  -7.6850892348917286e-07 -5.8047793035379039e-06 0.0000000000000000e+00  6.1742935333358999e-06 -2.6171299638231346e-06 0.0000000000000000e+00  4.5397945910274986e-06 -1.4817212169243281e-06 0.0000000000000000e+00  -1.0677421082034592e-06 -1.3014022774407240e-06 0.0000000000000000e+00  -1.0471781383387880e-06 1.1708563360578455e-06 0.0000000000000000e+00  -1.7236710675916908e-05 -1.6787403205304394e-05 0.0000000000000000e+00  1.6812014377416507e-07 -2.4170687072306676e-06 0.0000000000000000