<?xml version="1.0"?>
<VTKFile type="UnstructuredGrid"  version="0.1"  >
<UnstructuredGrid>
<Piece  NumberOfPoints="1419" NumberOfCells="2698">
<Points>
<DataArray  type="Float64"  NumberOfComponents="3"  format="ascii">0 0 0  0 0.41 0  2.5 0 0  2.5 0.41 0  0.6 0.19 0  0.6 0.21 0  0.25 0.2 0  0.15 0.2 0  0.2489897948556636 0.21 0  0.2489897948556636 0.19 0  0.6 0.2 0  0 0.3807142857143437 0  0 0.3514285714286952 0  0 0.3221428571430699 0  0 0.29285714285744 0  0 0.2635714285718054 0  0 0.2342857142861561 0  0 0.2050000000005308 0  0 0.175714285714732 0  0 0.1464285714289574 0  0 0.1171428571431897 0  0 0.08785714285737878 0  0 0.05857142857161107 0  0 0.02928571428580012 0  0.03015443760436003 0 0  0.06140001986583606 0 0  0.09377624077125973 0 0  0.1273239957535082 0 0  0.1620856860351972 0 0  0.1981052433264291 0 0  0.235428184091502 0 0  0.2741016576309132 0 0  0.3141745521465447 0 0  0.3556974926295285 0 0  0.3987229542472677 0 0  0.4433053055141081 0 0  0.4895008759286886 0 0  0.5373680609405097 0 0  0.5869673343216626 0 0  0.6383613676634521 0 0  0.6916151138468254 0 0  0.7467958595648856 0 0  0.8039733463919316 0 0  0.8632198139502143 0 0  0.9246101326867038 0 0  0.9882218810934433 0 0  1.054135445558498 0 0  1.122434100542598 0 0  1.193204177141305 0 0  1.266535089879536 0 0  1.342519516046404 0 0  1.421253448503939 0 0  1.502836389106271 0 0  1.587371439758838 0 0  1.674965418777374 0 0  1.765729001825544 0 0  1.859776908880082 0 0  1.957227977487062 0 0  2.058205329869943 0 0  2.162836591189951 0 0  2.271253957290865 0 0  2.383594446803425 0 0  2.5 0.1024999999997612 0  2.5 0.2049999999994743 0  2.5 0.3074999999997183 0  2.383594446803656 0.41 0  2.271253957291315 0.41 0  2.162836591190598 0.41 0  2.058205329870775 0.41 0  1.957227977488067 0.41 0  1.859776908881246 0.41 0  1.765729001826854 0.41 0  1.674965418778818 0.41 0  1.58737143976041 0.41 0  1.502836389107956 0.41 0  1.421253448505726 0.41 0  1.342519516048286 0.41 0  1.266535089881505 0.41 0  1.193204177143353 0.41 0  1.122434100544716 0.41 0  1.05413544556068 0.41 0  0.9882218810956305 0.41 0  0.9246101326886647 0.41 0  0.8632198139519631 0.41 0  0.8039733463934788 0.41 0  0.7467958595662458 0.41 0  0.6916151138480078 0.41 0  0.6383613676644679 0.41 0  0.5869673343225223 0.41 0  0.5373680609412221 0.41 0  0.4895008759292634 0.41 0  0.4433053055145528 0.41 0  0.3987229542475914 0.41 0  0.3556974926297398 0.41 0  0.3141745521466497 0.41 0  0.2741016576310038 0.41 0  0.2354281840915826 0.41 0  0.1981052433265003 0.41 0  0.1620856860352591 0.41 0  0.1273239957535623 0.41 0  0.09377624077128965 0.41 0  0.06140001986584975 0.41 0  0.03015443760436654 0.41 0  0.2497468076502589 0.2050254481002335 0  0.2497468076502614 0.1949745518997913 0  0.2469965252529372 0.1829317073451959 0  0.2439893735792749 0.1762316384219906 0  0.2400332147834255 0.1700443375285386 0  0.2352133972704371 0.1645032867342007 0  0.2296339016332438 0.1597280261969788 0  0.2234150974217223 0.1558215752574715 0  0.2166911463437691 0.1528682099456123 0  0.2096071079204251 0.1509316448471593 0  0.2023158100364996 0.1500536585536553 0  0.194974551899914 0.1502531923497262 0  0.1877417105387872 0.1515259415822739 0  0.1807733240461124 0.153844448527136 0  0.1742197252835808 0.15715869474974 0  0.1682222986673531 0.1613971801805478 0  0.162910430003803 0.1664684656256651 0  0.1583987151779087 0.1722631454351573 0  0.1547844879126891 0.178656207771761 0  0.1521457199348551 0.1855097315605723 0  0.1505393388476355 0.1926758619366523 0  0.1505393388476328 0.2073241380633295 0  0.1521457199348437 0.2144902684393899 0  0.1547844879126531 0.221343792228163 0  0.1583987151778488 0.2277368545647528 0  0.1629104300036858 0.2335315343742052 0  0.1682222986671726 0.2386028198193036 0  0.1742197252833576 0.2428413052501257 0  0.1807733240458683 0.2461555514727623 0  0.1877417105384929 0.2484740584176516 0  0.1949745518995776 0.2497468076502398 0  0.202315810036185 0.2499463414463592 0  0.2096071079201568 0.2490683551528932 0  0.2166911463435495 0.2471317900544655 0  0.2234150974215506 0.2441784247426195 0  0.2296339016331197 0.2402719738031125 0  0.2352133972703547 0.2354967132658811 0  0.2400332147833751 0.2299556624715287 0  0.2439893735792577 0.2237683615780412 0  0.246996525252926 0.2170682926548348 0  0.25645809709277 0.21 0  0.2639263993298655 0.21 0  0.271394701566961 0.21 0  0.2788630038040554 0.21 0  0.2863313060411479 0.21 0  0.2937996082782405 0.21 0  0.301267910515333 0.21 0  0.3087362127524279 0.21 0  0.3162045149895234 0.21 0  0.3236728172265972 0.21 0  0.3311411194636928 0.21 0  0.3386094217007701 0.21 0  0.3460777239378666 0.21 0  0.3535460261749672 0.21 0  0.3610143284120516 0.21 0  0.3684826306491596 0.21 0  0.3759509328862226 0.21 0  0.383419235123329 0.21 0  0.3908875373604028 0.21 0  0.3983558395975142 0.21 0  0.4058241418345938 0.21 0  0.4132924440716992 0.21 0  0.4207607463087888 0.21 0  0.4282290485459029 0.21 0  0.4356973507830418 0.21 0  0.4431656530201649 0.21 0  0.4506339552573136 0.21 0  0.4581022574944306 0.21 0  0.4655705597315852 0.21 0  0.4730388619686996 0.21 0  0.480507164205851 0.21 0  0.4879754664429498 0.21 0  0.4954437686800938 0.21 0  0.502912070917267 0.21 0  0.5103803731544119 0.21 0  0.5178486753915261 0.21 0  0.5253169776286404 0.21 0  0.5327852798657868 0.21 0  0.5402535821029386 0.21 0  0.54772188434007 0.21 0  0.5551901865771842 0.21 0  0.5626584888143201 0.21 0  0.5701267910514778 0.21 0  0.5775950932886138 0.21 0  0.5850633955257281 0.21 0  0.5925316977628483 0.21 0  0.6 0.2050000000000054 0  0.6 0.1950000000000217 0  0.5925316977628897 0.19 0  0.5850633955257988 0.19 0  0.5775950932887378 0.19 0  0.5701267910515998 0.19 0  0.5626584888145268 0.19 0  0.5551901865773963 0.19 0  0.547721884340339 0.19 0  0.5402535821032429 0.19 0  0.5327852798661811 0.19 0  0.5253169776290537 0.19 0  0.5178486753919799 0.19 0  0.5103803731549078 0.19 0  0.502912070917822 0.19 0  0.4954437686807294 0.19 0  0.4879754664436223 0.19 0  0.4805071642065402 0.19 0  0.4730388619694271 0.19 0  0.4655705597323621 0.19 0  0.4581022574952563 0.19 0  0.4506339552581777 0.19 0  0.4431656530210671 0.19 0  0.4356973507839815 0.19 0  0.4282290485468779 0.19 0  0.4207607463097617 0.19 0  0.4132924440726327 0.19 0  0.4058241418354857 0.19 0  0.3983558395983636 0.19 0  0.3908875373612097 0.19 0  0.3834192351240934 0.19 0  0.3759509328869369 0.19 0  0.3684826306498175 0.19 0  0.361014328412667 0.19 0  0.3535460261755617 0.19 0  0.3460777239384295 0.19 0  0.3386094217012945 0.19 0  0.3311411194641595 0.19 0  0.3236728172270245 0.19 0  0.3162045149898895 0.19 0  0.3087362127527544 0.19 0  0.3012679105156187 0.19 0  0.2937996082784807 0.19 0  0.2863313060413428 0.19 0  0.2788630038042048 0.19 0  0.2713947015670686 0.19 0  0.2639263993299336 0.19 0  0.2564580970927985 0.19 0  0.2607803159922026 0.2000727136295815 0  0.5887803774232762 0.2001272386983733 0  0.5745072403740523 0.2002044435018727 0  0.5511891430099709 0.2001122610077113 0  0.2751288526855082 0.20000000000002 0  0.5365194309847112 0.1999999999999436 0  0.2894621222999649 0.1998691686390484 0  0.5215828265105155 0.1999999999999228 0  0.3127789816668748 0.1998657885438805 0  0.3274069683451451 0.2000000000000796 0  0.5066462220363641 0.199999999999908 0  0.3650630746574081 0.199866017807523 0  0.476773013087985 0.1999999999998713 0  0.3417402379596385 0.1998691686391011 0  0.3796850840047755 0.200000000000134 0  0.4618364086138087 0.1999999999998546 0  0.4917096175621762 0.1999999999998808 0  0.3946216884789568 0.2000000000001512 0  0.446899804139621 0.1999999999998389 0  0.4089549580935208 0.1998691686391595 0  0.4322718174608562 0.200127451265745 0  0.4201487168029707 0.1999966199048527 0  0.3528922713220932 0.2000185703532356 0  0.5633122436674589 0.1999814296467508 0  0.3006558810093873 0.1999966199048318 0  0.5815926498168407 0.1966545283159175 0  0.2677053789419034 0.1964246479135325 0  0.5290511287476175 0.1970915826863981 0  0.5439877332217911 0.197091582686394 0  0.2825131256993216 0.2035478995978015 0  0.3199386661080599 0.202908417313604 0  0.4842413153250809 0.1970915826863873 0  0.5141145242734466 0.1970915826863843 0  0.3722167817676917 0.2029084173136195 0  0.4693047108508938 0.1970915826863783 0  0.3348752705822316 0.202908417313609 0  0.3871533862418661 0.2029084173136212 0  0.4543681063767183 0.1970915826863795 0  0.4991779197992749 0.1970915826863902 0  0.4020059614928624 0.203547899597858 0  0.4394315019025246 0.1970915826863714 0  0.2550657455369551 0.2034088125358657 0  0.2548908499171161 0.1966940311614271 0  0.5946539510196798 0.2024302972968126 0  0.267698176732111 0.2039977513680092 0  0.4261685417851465 0.196409292431739 0  0.3590076176283495 0.196411355804271 0  0.5571672426447437 0.2036011176410121 0  0.3066757059912147 0.1964092924317024 0  0.594380730180568 0.1966558399668133 0  0.4842413153245942 0.2040749161535287 0  0.4693047108503577 0.2040749161535231 0  0.3871533862424271 0.1959250838464788 0  0.372246743208829 0.1959123236376545 0  0.5141145242731028 0.2040749161535395 0  0.4543681063761134 0.2040749161535186 0  0.4019979587101454 0.1959834479682427 0  0.4394608940728603 0.2040870543693135 0  0.5439623148931173 0.2040856076781014 0  0.5290511287473298 0.2040749161535501 0  0.4991779197988497 0.2040749161535382 0  0.3347912413592433 0.1959225448935183 0  0.3199680582793816 0.1959123018030061 0  0.2825051229162361 0.1959834479681729 0  0.3590471196690275 0.2036304442587945 0  0.5571594006495384 0.1963685282145804 0  0.3067669986803285 0.203627750582736 0  0.4262598344738712 0.2036568242185335 0  0.5814408164431408 0.2041285596160068 0  0.5688286748170428 0.1961819304477386 0  0.4145905603063645 0.2038180695522843 0  0.3473758401724931 0.2038180695522752 0  0.2950977245128307 0.2038180695522663 0  0.5688286748170693 0.203818069552238 0  0.2950977245127906 0.1961819304477774 0  0.3473758401723931 0.1961819304478349 0  0.4145905603061963 0.1961819304479011 0  0.2601812407614425 0.2056861609747042
[...]
<PointData  Vectors="f_40-0"> 
<DataArray  type="Float64"  Name="f_40-0"  NumberOfComponents="3" format="ascii">0.0000000000000000e+00 0.0000000000000000e+00 0.0000000000000000e+00  0.0000000000000000e+00 0.0000000000000000e+00 0.0000000000000000e+00  0.0000000000000000e+00 0.0000000000000000e+00 0.0000000000000000e+00  0.0000000000000000e+00 0.0000000000000000e+00 0.0000000000000000e+00  -3.7138672513389354e-05 -2.8359786255112901e-05 0.0000000000000000e+00  -3.3521566693384608e-05 -3.4338833316738986e-05 0.0000000000000000e+00  0.0000000000000000e+00 0.0000000000000000e+00 0.0000000000000000e+00  0.0000000000000000e+00 0.0000000000000000e+00 0.0000000000000000e+00  0.0000000000000000e+00 0.0000000000000000e+00 0.0000000000000000e+00  0.0000000000000000e+00 0.0000000000000000e+00 0.0000000000000000e+00  -3.5634425998119434e-05 -3.1349754570449561e-05 0.0000000000000000e+00  3.7873546582198755e-03 0.0000000000000000e+00 0.0000000000000000e+00  6.9920393690217717e-03 0.0000000000000000e+00 0.0000000000000000e+00  9.6140541324049381e-03 0.0000000000000000e+00 0.0000000000000000e+00  1.1653398948372407e-02 0.0000000000000000e+00 0.0000000000000000e+00  1.3110073816923921e-02 0.0000000000000000e+00 0.0000000000000000e+00  1.3984078738059385e-02 0.0000000000000000e+00 0.0000000000000000e+00  1.4275413711777932e-02 0.0000000000000000e+00 0.0000000000000000e+00  1.3984078738077055e-02 0.0000000000000000e+00 0.0000000000000000e+00  1.3110073816954270e-02 0.0000000000000000e+00 0.0000000000000000e+00  1.1653398948409999e-02 0.0000000000000000e+00 0.0000000000000000e+00  9.6140541324406456e-03 0.0000000000000000e+00 0.0000000000000000e+00  6.9920393690522439e-03 0.0000000000000000e+00 0.0000000000000000e+00  3.7873546582370440e-03 0.0000000000000000e+00 0.0000000000000000e+00  0.0000000000000000e+00 0.0000000000000000e+00 0.0000000000000000e+00  0.0000000000000000e+00 0.0000000000000000e+00 0.0000000000000000e+00  0.0000000000000000e+00 0.0000000000000000e+00 0.0000000000000000e+00  0.0000000000000000e+00 0.0000000000000000e+00 0.0000000000000000e+00  0.0000000000000000e+00 0.0000000000000000e+00 0.0000000000000000e+00  0.0000000000000000e+00 0.0000000000000000e+00 0.0000000000000000e+00  0.0000000000000000e+00 0.0000000000000000e+00 0.0000000000000000e+00  0.0000000000000000e+00 0.0000000000000000e+00 0.0000000000000000e+00  0.0000000000000000e+00 0.0000000000000000e+00 0.0000000000000000e+00  0.0000000000000000e+00 0.0000000000000000e+00 0.0000000000000000e+00  0.0000000000000000e+00 0.0000000000000000e+00 0.0000000000000000e+00  0.0000000000000000e+00 0.0000000000000000e+00 0.0000000000000000e+00  0.0000000000000000e+00 0.0000000000000000e+00 0.0000000000000000e+00  0.0000000000000000e+00 0.0000000000000000e+00 0.0000000000000000e+00  0.0000000000000000e+00 0.0000000000000000e+00 0.0000000000000000e+00  0.0000000000000000e+00 0.0000000000000000e+00 0.0000000000000000e+00  0.0000000000000000e+00 0.0000000000000000e+00 0.0000000000000000e+00  0.0000000000000000e+00 0.0000000000000000e+00 0.0000000000000000e+00  0.0000000000000000e+00 0.0000000000000000e+00 0.0000000000000000e+00  0.0000000000000000e+00 0.0000000000000000e+00 0.0000000000000000e+00  0.0000000000000000e+00 0.0000000000000000e+00 0.0000000000000000e+00  0.0000000000000000e+00 0.0000000000000000e+00 0.0000000000000000e+00  0.0000000000000000e+00 0.0000000000000000e+00 0.0000000000000000e+00  0.0000000000000000e+00 0.0000000000000000e+00 0.0000000000000000e+00  0.0000000000000000e+00 0.0000000000000000e+00 0.0000000000000000e+00  0.0000000000000000e+00 0.0000000000000000e+00 0.0000000000000000e+00  0.0000000000000000e+00 0.0000000000000000e+00 0.0000000000000000e+00  0.0000000000000000e+00 0.0000000000000000e+00 0.0000000000000000e+00  0.0000000000000000e+00 0.0000000000000000e+00 0.0000000000000000e+00  0.0000000000000000e+00 0.0000000000000000e+00 0.0000000000000000e+00  0.0000000000000000e+00 0.0000000000000000e+00 0.0000000000000000e+00  0.0000000000000000e+00 0.0000000000000000e+00 0.0000000000000000e+00  0.0000000000000000e+00 0.0000000000000000e+00 0.0000000000000000e+00  0.0000000000000000e+00 0.0000000000000000e+00 0.0000000000000000e+00  0.0000000000000000e+00 0.0000000000000000e+00 0.0000000000000000e+00  0.0000000000000000e+00 0.0000000000000000e+00 0.0000000000000000e+00  0.0000000000000000e+00 0.0000000000000000e+00 0.0000000000000000e+00  0.0000000000000000e+00 0.0000000000000000e+00 0.0000000000000000e+00  1.3652775590021867e-02 5.3917128963582083e-04 0.0000000000000000e+00  9.5743746623135600e-03 -4.8186069808821391e-05 0.0000000000000000e+00  1.3579335096650876e-02 -8.1778585856035944e-04 0.0000000000000000e+00  0.0000000000000000e+00 0.0000000000000000e+00 0.0000000000000000e+00  0.0000000000000000e+00 0.0000000000000000e+00 0.0000000000000000e+00  0.0000000000000000e+00 0.0000000000000000e+00 0.0000000000000000e+00  0.0000000000000000e+00 0.0000000000000000e+00 0.0000000000000000e+00  0.0000000000000000e+00 0.0000000000000000e+00 0.0000000000000000e+00  0.0000000000000000e+00 0.0000000000000000e+00 0.0000000000000000e+00  0.0000000000000000e+00 0.0000000000000000e+00 0.0000000000000000e+00  0.0000000000000000e+00 0.0000000000000000e+00 0.0000000000000000e+00  0.0000000000000000e+00 0.0000000000000000e+00 0.0000000000000000e+00  0.0000000000000000e+00 0.0000000000000000e+00 0.0000000000000000e+00  0.0000000000000000e+00 0.0000000000000000e+00 0.0000000000000000e+00  0.0000000000000000e+00 0.0000000000000000e+00 0.0000000000000000e+00  0.0000000000000000e+00 0.0000000000000000e+00 0.0000000000000000e+00  0.0000000000000000e+00 0.0000000000000000e+00 0.0000000000000000e+00  0.0000000000000000e+00 0.0000000000000000e+00 0.0000000000000000e+00  0.0000000000000000e+00 0.0000000000000000e+00 0.0000000000000000e+00  0.0000000000000000e+00 0.0000000000000000e+00 0.0000000000000000e+00  0.0000000000000000e+00 0.0000000000000000e+00 0.0000000000000000e+00  0.0000000000000000e+00 0.0000000000000000e+00 0.0000000000000000e+00  0.0000000000000000e+00 0.0000000000000000e+00 0.0000000000000000e+00  0.0000000000000000e+00 0.0000000000000000e+00 0.0000000000000000e+00  0.0000000000000000e+00 0.0000000000000000e+00 0.0000000000000000e+00  0.0000000000000000e+00 0.0000000000000000e+00 0.0000000000000000e+00  0.0000000000000000e+00 0.0000000000000000e+00 0.0000000000000000e+00  0.0000000000000000e+00 0.0000000000000000e+00 0.0000000000000000e+00  0.0000000000000000e+00 0.0000000000000000e+00 0.0000000000000000e+00  0.0000000000000000e+00 0.0000000000000000e+00 0.0000000000000000e+00  0.0000000000000000e+00 0.0000000000000000e+00 0.0000000000000000e+00  0.0000000000000000e+00 0.0000000000000000e+00 0.0000000000000000e+00  0.0000000000000000e+00 0.0000000000000000e+00 0.0000000000000000e+00  0.0000000000000000e+00 0.0000000000000000e+00 0.0000000000000000e+00  0.0000000000000000e+00 0.0000000000000000e+00 0.0000000000000000e+00  0.0000000000000000e+00 0.0000000000000000e+00 0.0000000000000000e+00  0.0000000000000000e+00 0.0000000000000000e+00 0.0000000000000000e+00  0.0000000000000000e+00 0.0000000000000000e+00 0.0000000000000000e+00  0.0000000000000000e+00 0.0000000000000000e+00 0.0000000000000000e+00  0.0000000000000000e+00 0.0000000000000000e+00 0.0000000000000000e+00  0.0000000000000000e+00 0.0000000000000000e+00 0.0000000000000000e+00  0.0000000000000000e+00 0.0000000000000000e+00 0.0000000000000000e+00  0.0000000000000000e+00 0.0000000000000000e+00 0.0000000000000000e+00  0.0000000000000000e+00 0.0000000000000000e+00 0.0000000000000000e+00  0.0000000000000000e+00 0.0000000000000000e+00 0.0000000000000000e+00  0.0000000000000000e+00 0.0000000000000000e+00 0.0000000000000000e+00  0.0000000000000000e+00 0.0000000000000000e+00 0.0000000000000000e+00  0.0000000000000000e+00 0.0000000000000000e+00 0.0000000000000000e+00  0.0000000000000000e+00 0.0000000000000000e+00 0.0000000000000000e+00  0.0000000000000000e+00 0.0000000000000000e+00 0.0000000000000000e+00  0.0000000000000000e+00 0.0000000000000000e+00 0.0000000000000000e+00  0.0000000000000000e+00 0.0000000000000000e+00 0.0000000000000000e+00  0.0000000000000000e+00 0.0000000000000000e+00 0.0000000000000000e+00  0.0000000000000000e+00 0.0000000000000000e+00 0.0000000000000000e+00  0.0000000000000000e+00 0.0000000000000000e+00 0.0000000000000000e+00  0.0000000000000000e+00 0.0000000000000000e+00 0.0000000000000000e+00  0.0000000000000000e+00 0.0000000000000000e+00 0.0000000000000000e+00  0.0000000000000000e+00 0.0000000000000000e+00 0.0000000000000000e+00  0.0000000000000000e+00 0.0000000000000000e+00 0.0000000000000000e+00  0.0000000000000000e+00 0.0000000000000000e+00 0.0000000000000000e+00  0.0000000000000000e+00 0.0000000000000000e+00 0.0000000000000000e+00  0.0000000000000000e+00 0.0000000000000000e+00 0.0000000000000000e+00  0.0000000000000000e+00 0.0000000000000000e+00 0.0000000000000000e+00  0.0000000000000000e+00 0.0000000000000000e+00 0.0000000000000000e+00  0.0000000000000000e+00 0.0000000000000000e+00 0.0000000000000000e+00  0.0000000000000000e+00 0.0000000000000000e+00 0.0000000000000000e+00  0.0000000000000000e+00 0.0000000000000000e+00 0.0000000000000000e+00  0.0000000000000000e+00 0.0000000000000000e+00 0.0000000000000000e+00  0.0000000000000000e+00 0.0000000000000000e+00 0.0000000000000000e+00  0.0000000000000000e+00 0.0000000000000000e+00 0.0000000000000000e+00  0.0000000000000000e+00 0.0000000000000000e+00 0.0000000000000000e+00  0.0000000000000000e+00 0.0000000000000000e+00 0.0000000000000000e+00  0.0000000000000000e+00 0.0000000000000000e+00 0.0000000000000000e+00  0.0000000000000000e+00 0.0000000000000000e+00 0.0000000000000000e+00  0.0000000000000000e+00 0.0000000000000000e+00 0.0000000000000000e+00  0.0000000000000000e+00 0.0000000000000000e+00 0.0000000000000000e+00  0.0000000000000000e+00 0.0000000000000000e+00 0.0000000000000000e+00  0.0000000000000000e+00 0.0000000000000000e+00 0.0000000000000000e+00  0.0000000000000000e+00 0.0000000000000000e+00 0.0000000000000000e+00  0.0000000000000000e+00 0.0000000000000000e+00 0.0000000000000000e+00  0.0000000000000000e+00 0.0000000000000000e+00 0.0000000000000000e+00  -4.4949471917419429e-07 -4.8422867559011259e-06 0.0000000000000000e+00  -7.6709041546166842e-07 -5.1726213453243519e-06 0.0000000000000000e+00  -8.3648231813076280e-07 -5.2220835784858537e-06 0.0000000000000000e+00  -7.9004921160240439e-07 -5.1117538732594680e-06 0.0000000000000000e+00  -7.0895185817097315e-07 -5.0080987118125109e-06 0.0000000000000000e+00  -6.6216130810217391e-07 -4.9593356763666428e-06 0.0000000000000000e+00  -6.3994378071153563e-07 -4.9192270403820569e-06 0.0000000000000000e+00  -6.5929994733475049e-07 -4.9047898256990663e-06 0.0000000000000000e+00  -6.9538860838305076e-07 -4.9145710391885174e-06 0.0000000000000000e+00  -7.8002227781032854e-07 -4.9440258234786437e-06 0.0000000000000000e+00  -8.8691840764891649e-07 -5.0224553177989590e-06 0.0000000000000000e+00  -1.0427284646988957e-06 -5.1187641645319698e-06 0.0000000000000000e+00  -1.2288781269986335e-06 -5.2604701956996622e-06 0.0000000000000000e+00  -1.4552878008064527e-06 -5.4422649487329019e-06 0.0000000000000000e+00  -1.7295548962729022e-06 -5.6632061586678719e-06 0.0000000000000000e+00  -2.0210945486164462e-06 -5.9371335611731958e-06 0.0000000000000000e+00  -2.3736377767345909e-06 -6.2348004192132125e-06 0.0000000000000000e+00  -2.7513317760866115e-06 -6.6078700907729841e-06 0.0000000000000000e+00  -3.1875372025582210e-06 -6.9994988048215279e-06 0.0000000000000000e+00  -3.6481233771822030e-06 -7.4660595341542645e-06 0.0000000000000000e+00  -4.1658308371268584e-06 -7.9551421927694820e-06 0.0000000000000000e+00  -4.7220071560239566e-06 -8.5085458403747005e-06 0.0000000000000000e+00  -5.3213650503816422e-06 -9.1056920225400208e-06 0.0000000000000000e+00  -5.9736986008653256e-06 -9.7456191626680398e-06 0.0000000000000000e+00  -6.6486579472104009e-06 -1.0443558490525905e-05 0.0000000000000000e+00  -7.3837584849605634e-06 -1.1162876606374430e-05 0.0000000000000000e+00  -8.1646435888525436e-06 -1.1960926813549197e-05 0.0000000000000000e+00  -8.9914896679596232e-06 -1.2768446387964760e-05 0.0000000000000000e+00  -9.8643362354008338e-06 -1.3644675803111678e-05 0.0000000000000000e+00  -1.0784031918123086e-05 -1.4537094846814894e-05 0.0000000000000000e+00  -1.1747172752874825e-05 -1.5489424085057033e-05 0.0000000000000000e+00  -1.2762733529905310e-05 -1.6454313440376087e-05 0.0000000000000000e+00  -1.3816971336402492e-05 -1.7480505349382175e-05 0.0000000000000000e+00  -1.4924964599487790e-05 -1.8505626838499560e-05 0.0000000000000000e+00  -1.6081627219192417e-05 -1.9595257474219315e-05 0.0000000000000000e+00  -1.7285045251482887e-05 -2.0684978916921330e-05 0.0000000000000000e+00  -1.8533540626833191e-05 -2.1828088710819942e-05 0.0000000000000000e+00  -1.9831579850309326e-05 -2.2970610230140658e-05 0.0000000000000000e+00  -2.1177979410222358e-05 -2.4160018020985589e-05 0.0000000000000000e+00  -2.2577613925371675e-05 -2.5346557338263557e-05 0.0000000000000000e+00  -2.4028066016340626e-05 -2.6567177591265879e-05 0.0000000000000000e+00  -2.5521867725852440e-05 -2.7790759015183329e-05 0.0000000000000000e+00  -2.7075034254794714e-05 -2.9036105022001642e-05 0.0000000000000000e+00  -2.8656020623680469e-05 -3.0285393420452997e-05 0.0000000000000000e+00  -3.0293138425156292e-05 -3.1531947745809417e-05 0.0000000000000000e+00  -3.1943175878656110e-05 -3.2831036202120760e-05 0.0000000000000000e+00  -3.4687761595359188e-05 -3.2836151756609444e-05 0.0000000000000000e+00  -3.6473608984002496e-05 -2.9864363148951090e-05 0.0000000000000000e+00  -3.5528669727230633e-05 -2.7184022479852861e-05 0.0000000000000000e+00  -3.3854282158452091e-05 -2.5799557799978964e-05 0.0000000000000000e+00  -3.2189867936382934e-05 -2.4395325087352538e-05 0.0000000000000000e+00  -3.0573099261862740e-05 -2.3014698214253263e-05 0.0000000000000000e+00  -2.8986067190666344e-05 -2.1645643280523816e-05 0.0000000000000000e+00  -2.7456159669101555e-05 -2.0293518039727032e-05 0.0000000000000000e+00  -2.5956147976542647e-05 -1.8958858533027758e-05 0.0000000000000000e+00  -2.4511353614343000e-05 -1.7634100786597564e-05 0.0000000000000000e+00  -2.3101242801300036e-05 -1.6348102496898054e-05 0.0000000000000000e+00  -2.1742563764526591e-05 -1.5063274201818259e-05 0.0000000000000000e+00  -2.0418846485054011e-05 -1.3824509319111048e-05 0.0000000000000000e+00  -1.9147572617728223e-05 -1.2593208849431503e-05 0.0000000000000000e+00  -1.7908453027713290e-05 -1.1412157902435209e-05 0.0000000000000000e+00  -1.6722324650823630e-05 -1.0240710916647223e-05 0.0000000000000000e+00  -1.5567576229667015e-05 -9.1237007911709673e-06 0.0000000000000000e+00  -1.4466280591671653e-05 -8.0199936668513621e-06 0.0000000000000000e+00  -1.3395330808319258e-05 -6.9721672966809940e-06 0.0000000000000000e+00  -1.2380410437118998e-05 -5.9419358339651099e-06 0.0000000000000000e+00  -1.1393750568498354e-05 -4.9739837716723060e-06 0.0000000000000000e+00  -1.0462788405191896e-05 -4.0261465261788721e-06 0.0000000000000000e+00  -9.5589293209023337e-06 -3.1425627050907082e-06 0.0000000000000000e+00  -8.7118987135820644e-06 -2.2833353377568739e-06 0.0000000000000000e+00  -7.8988452240240407e-06 -1.4813922630985884e-06 0.0000000000000000e+00  -7.1305748374078413e-06 -7.2166779662746303e-07 0.0000000000000000e+00  -6.4161217073010181e-06 -1.3482223995597293e-08 0.0000000000000000e+00  -5.7185494192773688e-06 6.4663333965756121e-07 0.0000000000000000e+00  -5.0808773431859123e-06 1.2712668312125530e-06 0.0000000000000000e+00  -4.4790833125623922e-06 1.8199758037694951e-06 0.0000000000000000e+00  -3.9274632290861149e-06 2.3524241279271272e-06 0.0000000000000000e+00  -3.4159024408027972e-06 2.8048296005627370e-06 0.0000000000000000e+00  -2.9525167916825363e-06 3.2423885474405636e-06 0.0000000000000000e+00  -2.5308927962255038e-06 3.6066260251433732e-06 0.0000000000000000e+00  -2.1506954618295264e-06 3.9468118928933237e-06 0.0000000000000000e+00  -1.8236880206900324e-06 4.2299552889949814e-06 0.0000000000000000e+00  -1.5197395849751715e-06 4.4822654115900553e-06 0.0000000000000000e+00  -1.2727346585716732e-06 4.6973876385937561e-06 0.0000000000000000e+00  -1.0667983188951469e-06 4.8574642297554410e-06 0.0000000000000000e+00  -9.0739761570711583e-07 5.0047311117867695e-06 0.0000000000000000e+00  -7.9266980575268385e-07 5.1073343110984344e-06 0.0000000000000000e+00  -7.1493593392223691e-07 5.1900231473838208e-06 0.0000000000000000e+00  -6.8882118347284677e-07 5.2473291881492397e-06 0.0000000000000000e+00  -6.8688038037337691e-07 5.2818166570109993e-06 0.0000000000000000e+00  -7.4085860824254456e-07 5.3449597789513875e-06 0.0000000000000000e+00  -7.6652955813809565e-07 5.3824890655149242e-06 0.0000000000000000e+00  -7.0655503389443797e-07 5.2630835688089073e-06 0.0000000000000000e+00  -4.3059816198277003e-07 4.8546635053777017e-06 0.0000000000000000e+00  -1.5412370371621367e-06 -4.6781383415902855e-09 0.0000000000000000e+00  -3.2980424409171116e-05 -2.9361336968504334e-05 0.0000000000000000e+00  -2.9742638643241892e-05 -2.6846428907981306e-05 0.0000000000000000e+00  -2.4948793615367673e-05 -2.2767677920252972e-05 0.0000000000000000e+00  -8.2199334952485374e-07 1.0001338396495809e-07 0.0000000000000000e+00  -2.2179610256026937e-05 -2.0260986305572438e-05 0.0000000000000000e+00  -6.9436729737193146e-07 2.2000088853391184e-07 0.0000000000000000e+00  -1.9517994859955382e-05 -1.7830043595927826e-05 0.0000000000000000e+00  -7.8194276994170191e-07 1.5918277789580798e-07 0.0000000000000000e+00  -1.0225766246411896e-06 -7.6945427440237333e-08 0.0000000000000000e+00  -1.7038718692870938e-05 -1.5504308802498488e-05 0.0000000000000000e+00  -2.3440278180021263e-06 -1.1046497825080946e-06 0.0000000000000000e+00  -1.2621192868769033e-05 -1.1225798646486514e-05 0.0000000000000000e+00  -1.4008758623510156e-06 -3.0654640022595929e-07 0.0000000000000000e+00  -3.1389871890300590e-06 -1.8857194885602538e-06 0.0000000000000000e+00  -1.0679939223370404e-05 -9.3016529014171853e-06 0.0000000000000000e+00  -1.4740144829217534e-05 -1.3297995922383392e-05 0.0000000000000000e+00  -4.1194429666413057e-06 -2.8055467382724045e-06 0.0000000000000000e+00  -8.9157778404009222e-06 -7.5403764748857100e-06 0.0000000000000000e+00  -5.2287518003719596e-06 -3.8136113585758292e-06 0.0000000000000000e+00  -7.3413669154879529e-06 -6.0355596121233973e-06 0.0000000000000000e+00  -6.2056285046557869e-06 -4.8338897348887915e-06 0.0000000000000000e+00  -1.8102102620613819e-06 -7.1447138549369851e-07 0.0000000000000000e+00  -2.7430661662923771e-05 -2.4819906812606312e-05 0.0000000000000000e+00  -7.0530403953259725e-07 1.4845735427887390e-07 0.0000000000000000e+00  -3.1943232141128547e-05 -2.7079881349745616e-05 0.0000000000000000e+00  -1.0411381844855071e-06 2.0440452021999393e-06 0.0000000000000000e+00  -2.1297625105480684e-05 -1.8062416617485991e-05 0.0000000000000000e+00  -2.4067105586264539e-05 -2.0572510702001094e-05 0.0000000000000000e+00  -7.4650978239890750e-07 -1.7050395629353316e-06 0.0000000000000000e+00  -8.4547344176141369e-07 -1.4116962726145529e-06 0.0000000000000000e+00  -1.4060906816089537e-05 -1.1171458710576261e-05 0.0000000000000000e+00  -1.8707456581216983e-05 -1.5647676780439732e-05 0.0000000000000000e+00  -2.5676378969860590e-06 -2.8244905346803326e-06 0.0000000000000000e+00  -1.2001980712281345e-05 -9.1374836656469067e-06 0.0000000000000000e+00  -1.1393989847982385e-06 -1.6207816316353702e-06 0.0000000000000000e+00  -3.4302292904664673e-06 -3.6194690968553724e-06 0.0000000000000000e+00  -1.0118468823669899e-05 -7.2598766283234616e-06 0.0000000000000000e+00  -1.6295815407554885e-05 -1.3345827537405063e-05 0.0000000000000000e+00  -4.4039599377189839e-06 -4.8766909947975632e-06 0.0000000000000000e+00  -8.4083998828309055e-06 -5.5513830805433322e-06 0.0000000000000000e+00  -1.3157863509617041e-06 -1.1567827229024428e-06 0.0000000000000000e+00  -1.2843702136402618e-06 1.0594817798493640e-06 0.0000000000000000e+00  -3.3944282009404651e-05 -3.107184