<?xml version="1.0"?>
<VTKFile type="UnstructuredGrid"  version="0.1"  >
<UnstructuredGrid>
<Piece  NumberOfPoints="1419" NumberOfCells="2698">
<Points>
<DataArray  type="Float64"  NumberOfComponents="3"  format="ascii">0 0 0  0 0.41 0  2.5 0 0  2.5 0.41 0  0.6 0.19 0  0.6 0.21 0  0.25 0.2 0  0.15 0.2 0  0.2489897948556636 0.21 0  0.2489897948556636 0.19 0  0.6 0.2 0  0 0.3807142857143437 0  0 0.3514285714286952 0  0 0.3221428571430699 0  0 0.29285714285744 0  0 0.2635714285718054 0  0 0.2342857142861561 0  0 0.2050000000005308 0  0 0.175714285714732 0  0 0.1464285714289574 0  0 0.1171428571431897 0  0 0.08785714285737878 0  0 0.05857142857161107 0  0 0.02928571428580012 0  0.03015443760436003 0 0  0.06140001986583606 0 0  0.09377624077125973 0 0  0.1273239957535082 0 0  0.1620856860351972 0 0  0.1981052433264291 0 0  0.235428184091502 0 0  0.2741016576309132 0 0  0.3141745521465447 0 0  0.3556974926295285 0 0  0.3987229542472677 0 0  0.4433053055141081 0 0  0.4895008759286886 0 0  0.5373680609405097 0 0  0.5869673343216626 0 0  0.6383613676634521 0 0  0.6916151138468254 0 0  0.7467958595648856 0 0  0.8039733463919316 0 0  0.8632198139502143 0 0  0.9246101326867038 0 0  0.9882218810934433 0 0  1.054135445558498 0 0  1.122434100542598 0 0  1.193204177141305 0 0  1.266535089879536 0 0  1.342519516046404 0 0  1.421253448503939 0 0  1.502836389106271 0 0  1.587371439758838 0 0  1.674965418777374 0 0  1.765729001825544 0 0  1.859776908880082 0 0  1.957227977487062 0 0  2.058205329869943 0 0  2.162836591189951 0 0  2.271253957290865 0 0  2.383594446803425 0 0  2.5 0.1024999999997612 0  2.5 0.2049999999994743 0  2.5 0.3074999999997183 0  2.383594446803656 0.41 0  2.271253957291315 0.41 0  2.162836591190598 0.41 0  2.058205329870775 0.41 0  1.957227977488067 0.41 0  1.859776908881246 0.41 0  1.765729001826854 0.41 0  1.674965418778818 0.41 0  1.58737143976041 0.41 0  1.502836389107956 0.41 0  1.421253448505726 0.41 0  1.342519516048286 0.41 0  1.266535089881505 0.41 0  1.193204177143353 0.41 0  1.122434100544716 0.41 0  1.05413544556068 0.41 0  0.9882218810956305 0.41 0  0.9246101326886647 0.41 0  0.8632198139519631 0.41 0  0.8039733463934788 0.41 0  0.7467958595662458 0.41 0  0.6916151138480078 0.41 0  0.6383613676644679 0.41 0  0.5869673343225223 0.41 0  0.5373680609412221 0.41 0  0.4895008759292634 0.41 0  0.4433053055145528 0.41 0  0.3987229542475914 0.41 0  0.3556974926297398 0.41 0  0.3141745521466497 0.41 0  0.2741016576310038 0.41 0  0.2354281840915826 0.41 0  0.1981052433265003 0.41 0  0.1620856860352591 0.41 0  0.1273239957535623 0.41 0  0.09377624077128965 0.41 0  0.06140001986584975 0.41 0  0.03015443760436654 0.41 0  0.2497468076502589 0.2050254481002335 0  0.2497468076502614 0.1949745518997913 0  0.2469965252529372 0.1829317073451959 0  0.2439893735792749 0.1762316384219906 0  0.2400332147834255 0.1700443375285386 0  0.2352133972704371 0.1645032867342007 0  0.2296339016332438 0.1597280261969788 0  0.2234150974217223 0.1558215752574715 0  0.2166911463437691 0.1528682099456123 0  0.2096071079204251 0.1509316448471593 0  0.2023158100364996 0.1500536585536553 0  0.194974551899914 0.1502531923497262 0  0.1877417105387872 0.1515259415822739 0  0.1807733240461124 0.153844448527136 0  0.1742197252835808 0.15715869474974 0  0.1682222986673531 0.1613971801805478 0  0.162910430003803 0.1664684656256651 0  0.1583987151779087 0.1722631454351573 0  0.1547844879126891 0.178656207771761 0  0.1521457199348551 0.1855097315605723 0  0.1505393388476355 0.1926758619366523 0  0.1505393388476328 0.2073241380633295 0  0.1521457199348437 0.2144902684393899 0  0.1547844879126531 0.221343792228163 0  0.1583987151778488 0.2277368545647528 0  0.1629104300036858 0.2335315343742052 0  0.1682222986671726 0.2386028198193036 0  0.1742197252833576 0.2428413052501257 0  0.1807733240458683 0.2461555514727623 0  0.1877417105384929 0.2484740584176516 0  0.1949745518995776 0.2497468076502398 0  0.202315810036185 0.2499463414463592 0  0.2096071079201568 0.2490683551528932 0  0.2166911463435495 0.2471317900544655 0  0.2234150974215506 0.2441784247426195 0  0.2296339016331197 0.2402719738031125 0  0.2352133972703547 0.2354967132658811 0  0.2400332147833751 0.2299556624715287 0  0.2439893735792577 0.2237683615780412 0  0.246996525252926 0.2170682926548348 0  0.25645809709277 0.21 0  0.2639263993298655 0.21 0  0.271394701566961 0.21 0  0.2788630038040554 0.21 0  0.2863313060411479 0.21 0  0.2937996082782405 0.21 0  0.301267910515333 0.21 0  0.3087362127524279 0.21 0  0.3162045149895234 0.21 0  0.3236728172265972 0.21 0  0.3311411194636928 0.21 0  0.3386094217007701 0.21 0  0.3460777239378666 0.21 0  0.3535460261749672 0.21 0  0.3610143284120516 0.21 0  0.3684826306491596 0.21 0  0.3759509328862226 0.21 0  0.383419235123329 0.21 0  0.3908875373604028 0.21 0  0.3983558395975142 0.21 0  0.4058241418345938 0.21 0  0.4132924440716992 0.21 0  0.4207607463087888 0.21 0  0.4282290485459029 0.21 0  0.4356973507830418 0.21 0  0.4431656530201649 0.21 0  0.4506339552573136 0.21 0  0.4581022574944306 0.21 0  0.4655705597315852 0.21 0  0.4730388619686996 0.21 0  0.480507164205851 0.21 0  0.4879754664429498 0.21 0  0.4954437686800938 0.21 0  0.502912070917267 0.21 0  0.5103803731544119 0.21 0  0.5178486753915261 0.21 0  0.5253169776286404 0.21 0  0.5327852798657868 0.21 0  0.5402535821029386 0.21 0  0.54772188434007 0.21 0  0.5551901865771842 0.21 0  0.5626584888143201 0.21 0  0.5701267910514778 0.21 0  0.5775950932886138 0.21 0  0.5850633955257281 0.21 0  0.5925316977628483 0.21 0  0.6 0.2050000000000054 0  0.6 0.1950000000000217 0  0.5925316977628897 0.19 0  0.5850633955257988 0.19 0  0.5775950932887378 0.19 0  0.5701267910515998 0.19 0  0.5626584888145268 0.19 0  0.5551901865773963 0.19 0  0.547721884340339 0.19 0  0.5402535821032429 0.19 0  0.5327852798661811 0.19 0  0.5253169776290537 0.19 0  0.5178486753919799 0.19 0  0.5103803731549078 0.19 0  0.502912070917822 0.19 0  0.4954437686807294 0.19 0  0.4879754664436223 0.19 0  0.4805071642065402 0.19 0  0.4730388619694271 0.19 0  0.4655705597323621 0.19 0  0.4581022574952563 0.19 0  0.4506339552581777 0.19 0  0.4431656530210671 0.19 0  0.4356973507839815 0.19 0  0.4282290485468779 0.19 0  0.4207607463097617 0.19 0  0.4132924440726327 0.19 0  0.4058241418354857 0.19 0  0.3983558395983636 0.19 0  0.3908875373612097 0.19 0  0.3834192351240934 0.19 0  0.3759509328869369 0.19 0  0.3684826306498175 0.19 0  0.361014328412667 0.19 0  0.3535460261755617 0.19 0  0.3460777239384295 0.19 0  0.3386094217012945 0.19 0  0.3311411194641595 0.19 0  0.3236728172270245 0.19 0  0.3162045149898895 0.19 0  0.3087362127527544 0.19 0  0.3012679105156187 0.19 0  0.2937996082784807 0.19 0  0.2863313060413428 0.19 0  0.2788630038042048 0.19 0  0.2713947015670686 0.19 0  0.2639263993299336 0.19 0  0.2564580970927985 0.19 0  0.2607803159922026 0.2000727136295815 0  0.5887803774232762 0.2001272386983733 0  0.5745072403740523 0.2002044435018727 0  0.5511891430099709 0.2001122610077113 0  0.2751288526855082 0.20000000000002 0  0.5365194309847112 0.1999999999999436 0  0.2894621222999649 0.1998691686390484 0  0.5215828265105155 0.1999999999999228 0  0.3127789816668748 0.1998657885438805 0  0.3274069683451451 0.2000000000000796 0  0.5066462220363641 0.199999999999908 0  0.3650630746574081 0.199866017807523 0  0.476773013087985 0.1999999999998713 0  0.3417402379596385 0.1998691686391011 0  0.3796850840047755 0.200000000000134 0  0.4618364086138087 0.1999999999998546 0  0.4917096175621762 0.1999999999998808 0  0.3946216884789568 0.2000000000001512 0  0.446899804139621 0.1999999999998389 0  0.4089549580935208 0.1998691686391595 0  0.4322718174608562 0.200127451265745 0  0.4201487168029707 0.1999966199048527 0  0.3528922713220932 0.2000185703532356 0  0.5633122436674589 0.1999814296467508 0  0.3006558810093873 0.1999966199048318 0  0.5815926498168407 0.1966545283159175 0  0.2677053789419034 0.1964246479135325 0  0.5290511287476175 0.1970915826863981 0  0.5439877332217911 0.197091582686394 0  0.2825131256993216 0.2035478995978015 0  0.3199386661080599 0.202908417313604 0  0.4842413153250809 0.1970915826863873 0  0.5141145242734466 0.1970915826863843 0  0.3722167817676917 0.2029084173136195 0  0.4693047108508938 0.1970915826863783 0  0.3348752705822316 0.202908417313609 0  0.3871533862418661 0.2029084173136212 0  0.4543681063767183 0.1970915826863795 0  0.4991779197992749 0.1970915826863902 0  0.4020059614928624 0.203547899597858 0  0.4394315019025246 0.1970915826863714 0  0.2550657455369551 0.2034088125358657 0  0.2548908499171161 0.1966940311614271 0  0.5946539510196798 0.2024302972968126 0  0.267698176732111 0.2039977513680092 0  0.4261685417851465 0.196409292431739 0  0.3590076176283495 0.196411355804271 0  0.5571672426447437 0.2036011176410121 0  0.3066757059912147 0.1964092924317024 0  0.594380730180568 0.1966558399668133 0  0.4842413153245942 0.2040749161535287 0  0.4693047108503577 0.2040749161535231 0  0.3871533862424271 0.1959250838464788 0  0.372246743208829 0.1959123236376545 0  0.5141145242731028 0.2040749161535395 0  0.4543681063761134 0.2040749161535186 0  0.4019979587101454 0.1959834479682427 0  0.4394608940728603 0.2040870543693135 0  0.5439623148931173 0.2040856076781014 0  0.5290511287473298 0.2040749161535501 0  0.4991779197988497 0.2040749161535382 0  0.3347912413592433 0.1959225448935183 0  0.3199680582793816 0.1959123018030061 0  0.2825051229162361 0.1959834479681729 0  0.3590471196690275 0.2036304442587945 0  0.5571594006495384 0.1963685282145804 0  0.3067669986803285 0.203627750582736 0  0.4262598344738712 0.2036568242185335 0  0.5814408164431408 0.2041285596160068 0  0.5688286748170428 0.1961819304477386 0  0.4145905603063645 0.2038180695522843 0  0.3473758401724931 0.2038180695522752 0  0.2950977245128307 0.2038180695522663 0  0.5688286748170693 0.203818069552238 0  0.2950977245127906 0.1961819304477774 0  0.3473758401723931 0.1961819304478349 0  0.4145905603061963 0.1961819304479011 0  0.2601812407614425 0.2056861609747042
[...]
<PointData  Vectors="f_40-0"> 
<DataArray  type="Float64"  Name="f_40-0"  NumberOfComponents="3" format="ascii">0.0000000000000000e+00 0.0000000000000000e+00 0.0000000000000000e+00  0.0000000000000000e+00 0.0000000000000000e+00 0.0000000000000000e+00  0.0000000000000000e+00 0.0000000000000000e+00 0.0000000000000000e+00  0.0000000000000000e+00 0.0000000000000000e+00 0.0000000000000000e+00  -1.3030428501952041e-04 -4.8771517556968787e-08 0.0000000000000000e+00  -1.2989221312401409e-04 -2.9602902403703275e-06 0.0000000000000000e+00  0.0000000000000000e+00 0.0000000000000000e+00 0.0000000000000000e+00  0.0000000000000000e+00 0.0000000000000000e+00 0.0000000000000000e+00  0.0000000000000000e+00 0.0000000000000000e+00 0.0000000000000000e+00  0.0000000000000000e+00 0.0000000000000000e+00 0.0000000000000000e+00  -1.3016509895479050e-04 -1.5129098668246628e-06 0.0000000000000000e+00  5.7264488379046689e-05 0.0000000000000000e+00 0.0000000000000000e+00  1.0571905546901630e-04 0.0000000000000000e+00 0.0000000000000000e+00  1.4536370126989745e-04 0.0000000000000000e+00 0.0000000000000000e+00  1.7619842578173598e-04 0.0000000000000000e+00 0.0000000000000000e+00  1.9822322900452802e-04 0.0000000000000000e+00 0.0000000000000000e+00  2.1143811093827212e-04 0.0000000000000000e+00 0.0000000000000000e+00  2.1584307158295513e-04 0.0000000000000000e+00 0.0000000000000000e+00  2.1143811093853930e-04 0.0000000000000000e+00 0.0000000000000000e+00  1.9822322900498691e-04 0.0000000000000000e+00 0.0000000000000000e+00  1.7619842578230435e-04 0.0000000000000000e+00 0.0000000000000000e+00  1.4536370127043736e-04 0.0000000000000000e+00 0.0000000000000000e+00  1.0571905546947703e-04 0.0000000000000000e+00 0.0000000000000000e+00  5.7264488379306295e-05 0.0000000000000000e+00 0.0000000000000000e+00  0.0000000000000000e+00 0.0000000000000000e+00 0.0000000000000000e+00  0.0000000000000000e+00 0.0000000000000000e+00 0.0000000000000000e+00  0.0000000000000000e+00 0.0000000000000000e+00 0.0000000000000000e+00  0.0000000000000000e+00 0.0000000000000000e+00 0.0000000000000000e+00  0.0000000000000000e+00 0.0000000000000000e+00 0.0000000000000000e+00  0.0000000000000000e+00 0.0000000000000000e+00 0.0000000000000000e+00  0.0000000000000000e+00 0.0000000000000000e+00 0.0000000000000000e+00  0.0000000000000000e+00 0.0000000000000000e+00 0.0000000000000000e+00  0.0000000000000000e+00 0.0000000000000000e+00 0.0000000000000000e+00  0.0000000000000000e+00 0.0000000000000000e+00 0.0000000000000000e+00  0.0000000000000000e+00 0.0000000000000000e+00 0.0000000000000000e+00  0.0000000000000000e+00 0.0000000000000000e+00 0.0000000000000000e+00  0.0000000000000000e+00 0.0000000000000000e+00 0.0000000000000000e+00  0.0000000000000000e+00 0.0000000000000000e+00 0.0000000000000000e+00  0.0000000000000000e+00 0.0000000000000000e+00 0.0000000000000000e+00  0.0000000000000000e+00 0.0000000000000000e+00 0.0000000000000000e+00  0.0000000000000000e+00 0.0000000000000000e+00 0.0000000000000000e+00  0.0000000000000000e+00 0.0000000000000000e+00 0.0000000000000000e+00  0.0000000000000000e+00 0.0000000000000000e+00 0.0000000000000000e+00  0.0000000000000000e+00 0.0000000000000000e+00 0.0000000000000000e+00  0.0000000000000000e+00 0.0000000000000000e+00 0.0000000000000000e+00  0.0000000000000000e+00 0.0000000000000000e+00 0.0000000000000000e+00  0.0000000000000000e+00 0.0000000000000000e+00 0.0000000000000000e+00  0.0000000000000000e+00 0.0000000000000000e+00 0.0000000000000000e+00  0.0000000000000000e+00 0.0000000000000000e+00 0.0000000000000000e+00  0.0000000000000000e+00 0.0000000000000000e+00 0.0000000000000000e+00  0.0000000000000000e+00 0.0000000000000000e+00 0.0000000000000000e+00  0.0000000000000000e+00 0.0000000000000000e+00 0.0000000000000000e+00  0.0000000000000000e+00 0.0000000000000000e+00 0.0000000000000000e+00  0.0000000000000000e+00 0.0000000000000000e+00 0.0000000000000000e+00  0.0000000000000000e+00 0.0000000000000000e+00 0.0000000000000000e+00  0.0000000000000000e+00 0.0000000000000000e+00 0.0000000000000000e+00  0.0000000000000000e+00 0.0000000000000000e+00 0.0000000000000000e+00  0.0000000000000000e+00 0.0000000000000000e+00 0.0000000000000000e+00  0.0000000000000000e+00 0.0000000000000000e+00 0.0000000000000000e+00  0.0000000000000000e+00 0.0000000000000000e+00 0.0000000000000000e+00  0.0000000000000000e+00 0.0000000000000000e+00 0.0000000000000000e+00  0.0000000000000000e+00 0.0000000000000000e+00 0.0000000000000000e+00  1.7582688025649079e-04 5.5690740459852149e-06 0.0000000000000000e+00  1.3532095422396951e-04 1.0767070034502099e-07 0.0000000000000000e+00  1.7133709727944657e-04 -8.5996585955852081e-06 0.0000000000000000e+00  0.0000000000000000e+00 0.0000000000000000e+00 0.0000000000000000e+00  0.0000000000000000e+00 0.0000000000000000e+00 0.0000000000000000e+00  0.0000000000000000e+00 0.0000000000000000e+00 0.0000000000000000e+00  0.0000000000000000e+00 0.0000000000000000e+00 0.0000000000000000e+00  0.0000000000000000e+00 0.0000000000000000e+00 0.0000000000000000e+00  0.0000000000000000e+00 0.0000000000000000e+00 0.0000000000000000e+00  0.0000000000000000e+00 0.0000000000000000e+00 0.0000000000000000e+00  0.0000000000000000e+00 0.0000000000000000e+00 0.0000000000000000e+00  0.0000000000000000e+00 0.0000000000000000e+00 0.0000000000000000e+00  0.0000000000000000e+00 0.0000000000000000e+00 0.0000000000000000e+00  0.0000000000000000e+00 0.0000000000000000e+00 0.0000000000000000e+00  0.0000000000000000e+00 0.0000000000000000e+00 0.0000000000000000e+00  0.0000000000000000e+00 0.0000000000000000e+00 0.0000000000000000e+00  0.0000000000000000e+00 0.0000000000000000e+00 0.0000000000000000e+00  0.0000000000000000e+00 0.0000000000000000e+00 0.0000000000000000e+00  0.0000000000000000e+00 0.0000000000000000e+00 0.0000000000000000e+00  0.0000000000000000e+00 0.0000000000000000e+00 0.0000000000000000e+00  0.0000000000000000e+00 0.0000000000000000e+00 0.0000000000000000e+00  0.0000000000000000e+00 0.0000000000000000e+00 0.0000000000000000e+00  0.0000000000000000e+00 0.0000000000000000e+00 0.0000000000000000e+00  0.0000000000000000e+00 0.0000000000000000e+00 0.0000000000000000e+00  0.0000000000000000e+00 0.0000000000000000e+00 0.0000000000000000e+00  0.0000000000000000e+00 0.0000000000000000e+00 0.0000000000000000e+00  0.0000000000000000e+00 0.0000000000000000e+00 0.0000000000000000e+00  0.0000000000000000e+00 0.0000000000000000e+00 0.0000000000000000e+00  0.0000000000000000e+00 0.0000000000000000e+00 0.0000000000000000e+00  0.0000000000000000e+00 0.0000000000000000e+00 0.0000000000000000e+00  0.0000000000000000e+00 0.0000000000000000e+00 0.0000000000000000e+00  0.0000000000000000e+00 0.0000000000000000e+00 0.0000000000000000e+00  0.0000000000000000e+00 0.0000000000000000e+00 0.0000000000000000e+00  0.0000000000000000e+00 0.0000000000000000e+00 0.0000000000000000e+00  0.0000000000000000e+00 0.0000000000000000e+00 0.0000000000000000e+00  0.0000000000000000e+00 0.0000000000000000e+00 0.0000000000000000e+00  0.0000000000000000e+00 0.0000000000000000e+00 0.0000000000000000e+00  0.0000000000000000e+00 0.0000000000000000e+00 0.0000000000000000e+00  0.0000000000000000e+00 0.0000000000000000e+00 0.0000000000000000e+00  0.0000000000000000e+00 0.0000000000000000e+00 0.0000000000000000e+00  0.0000000000000000e+00 0.0000000000000000e+00 0.0000000000000000e+00  0.0000000000000000e+00 0.0000000000000000e+00 0.0000000000000000e+00  0.0000000000000000e+00 0.0000000000000000e+00 0.0000000000000000e+00  0.0000000000000000e+00 0.0000000000000000e+00 0.0000000000000000e+00  0.0000000000000000e+00 0.0000000000000000e+00 0.0000000000000000e+00  0.0000000000000000e+00 0.0000000000000000e+00 0.0000000000000000e+00  0.0000000000000000e+00 0.0000000000000000e+00 0.0000000000000000e+00  0.0000000000000000e+00 0.0000000000000000e+00 0.0000000000000000e+00  0.0000000000000000e+00 0.0000000000000000e+00 0.0000000000000000e+00  0.0000000000000000e+00 0.0000000000000000e+00 0.0000000000000000e+00  0.0000000000000000e+00 0.0000000000000000e+00 0.0000000000000000e+00  0.0000000000000000e+00 0.0000000000000000e+00 0.0000000000000000e+00  0.0000000000000000e+00 0.0000000000000000e+00 0.0000000000000000e+00  0.0000000000000000e+00 0.0000000000000000e+00 0.0000000000000000e+00  0.0000000000000000e+00 0.0000000000000000e+00 0.0000000000000000e+00  0.0000000000000000e+00 0.0000000000000000e+00 0.0000000000000000e+00  0.0000000000000000e+00 0.0000000000000000e+00 0.0000000000000000e+00  0.0000000000000000e+00 0.0000000000000000e+00 0.0000000000000000e+00  0.0000000000000000e+00 0.0000000000000000e+00 0.0000000000000000e+00  0.0000000000000000e+00 0.0000000000000000e+00 0.0000000000000000e+00  0.0000000000000000e+00 0.0000000000000000e+00 0.0000000000000000e+00  0.0000000000000000e+00 0.0000000000000000e+00 0.0000000000000000e+00  0.0000000000000000e+00 0.0000000000000000e+00 0.0000000000000000e+00  0.0000000000000000e+00 0.0000000000000000e+00 0.0000000000000000e+00  0.0000000000000000e+00 0.0000000000000000e+00 0.0000000000000000e+00  0.0000000000000000e+00 0.0000000000000000e+00 0.0000000000000000e+00  0.0000000000000000e+00 0.0000000000000000e+00 0.0000000000000000e+00  0.0000000000000000e+00 0.0000000000000000e+00 0.0000000000000000e+00  0.0000000000000000e+00 0.0000000000000000e+00 0.0000000000000000e+00  0.0000000000000000e+00 0.0000000000000000e+00 0.0000000000000000e+00  0.0000000000000000e+00 0.0000000000000000e+00 0.0000000000000000e+00  0.0000000000000000e+00 0.0000000000000000e+00 0.0000000000000000e+00  0.0000000000000000e+00 0.0000000000000000e+00 0.0000000000000000e+00  0.0000000000000000e+00 0.0000000000000000e+00 0.0000000000000000e+00  0.0000000000000000e+00 0.0000000000000000e+00 0.0000000000000000e+00  0.0000000000000000e+00 0.0000000000000000e+00 0.0000000000000000e+00  0.0000000000000000e+00 0.0000000000000000e+00 0.0000000000000000e+00  0.0000000000000000e+00 0.0000000000000000e+00 0.0000000000000000e+00  0.0000000000000000e+00 0.0000000000000000e+00 0.0000000000000000e+00  0.0000000000000000e+00 0.0000000000000000e+00 0.0000000000000000e+00  0.0000000000000000e+00 0.0000000000000000e+00 0.0000000000000000e+00  -3.5163582899228781e-06 5.3183181169722281e-07 0.0000000000000000e+00  -7.2073389102248969e-06 5.9978348821510877e-07 0.0000000000000000e+00  -1.0997935061092857e-05 6.2605352890895752e-07 0.0000000000000000e+00  -1.4799260358153478e-05 6.6256615300796704e-07 0.0000000000000000e+00  -1.8605593225519203e-05 7.0204588448307646e-07 0.0000000000000000e+00  -2.2402898938558872e-05 7.3805440641246276e-07 0.0000000000000000e+00  -2.6189987209371900e-05 7.6522709973599713e-07 0.0000000000000000e+00  -2.9958801093101191e-05 7.7439224713595047e-07 0.0000000000000000e+00  -3.3705326723304360e-05 7.7195586082966512e-07 0.0000000000000000e+00  -3.7432424049170483e-05 7.4823288167452796e-07 0.0000000000000000e+00  -4.1128864078876555e-05 7.1134442274326439e-07 0.0000000000000000e+00  -4.4798036130089813e-05 6.4865875405416015e-07 0.0000000000000000e+00  -4.8424631711024693e-05 5.7284688075435352e-07 0.0000000000000000e+00  -5.2021040352589565e-05 4.8753039229593724e-07 0.0000000000000000e+00  -5.5561377058668047e-05 3.9194857564793031e-07 0.0000000000000000e+00  -5.9064463677799724e-05 3.0024406248744593e-07 0.0000000000000000e+00  -6.2513373394308382e-05 1.9668994136071435e-07 0.0000000000000000e+00  -6.5905402293865592e-05 1.1448741750625829e-07 0.0000000000000000e+00  -6.9236813331133805e-05 2.1331501628518668e-08 0.0000000000000000e+00  -7.2506335004455491e-05 -4.5026787068084421e-08 0.0000000000000000e+00  -7.5706126080887548e-05 -1.2449898481971129e-07 0.0000000000000000e+00  -7.8824916750320069e-05 -1.8727326466240159e-07 0.0000000000000000e+00  -8.1883451877697331e-05 -2.4088128630091103e-07 0.0000000000000000e+00  -8.4842449332245157e-05 -2.9112652365280980e-07 0.0000000000000000e+00  -8.7737547746960924e-05 -3.2820622685110444e-07 0.0000000000000000e+00  -9.0535638071190719e-05 -3.8244717193221952e-07 0.0000000000000000e+00  -9.3246429950735301e-05 -3.9702494596687729e-07 0.0000000000000000e+00  -9.5871518731916339e-05 -4.4807608991613239e-07 0.0000000000000000e+00  -9.8400440878197698e-05 -4.6384973339134426e-07 0.0000000000000000e+00  -1.0084483433058087e-04 -5.1372382000964195e-07 0.0000000000000000e+00  -1.0319502414162178e-04 -5.4013587076283281e-07 0.0000000000000000e+00  -1.0545435921859887e-04 -6.0262552538345553e-07 0.0000000000000000e+00  -1.0763272142056255e-04 -6.4749489485339983e-07 0.0000000000000000e+00  -1.0971446906255185e-04 -7.4844156114061117e-07 0.0000000000000000e+00  -1.1169690906207271e-04 -8.2271494548807646e-07 0.0000000000000000e+00  -1.1360480465897304e-04 -9.3456975426983589e-07 0.0000000000000000e+00  -1.1543254750457429e-04 -1.0341533825930633e-06 0.0000000000000000e+00  -1.1718722854068499e-04 -1.1842476683725684e-06 0.0000000000000000e+00  -1.1886074256366045e-04 -1.3327131995018544e-06 0.0000000000000000e+00  -1.2046093968699917e-04 -1.5185358746754366e-06 0.0000000000000000e+00  -1.2198872473411476e-04 -1.7036121018570489e-06 0.0000000000000000e+00  -1.2346633924580273e-04 -1.9054608102605877e-06 0.0000000000000000e+00  -1.2486390826208887e-04 -2.1111750815289305e-06 0.0000000000000000e+00  -1.2621775288662989e-04 -2.3143129307250061e-06 0.0000000000000000e+00  -1.2751298651530763e-04 -2.5288707336607781e-06 0.0000000000000000e+00  -1.2874187065824299e-04 -2.7445264254095330e-06 0.0000000000000000e+00  -1.3004020122507883e-04 -2.2312976600885142e-06 0.0000000000000000e+00  -1.3024699545202407e-04 -7.9356736386012860e-07 0.0000000000000000e+00  -1.2916129480669173e-04 3.2022961559653845e-08 0.0000000000000000e+00  -1.2793556781565290e-04 1.4452703628700156e-07 0.0000000000000000e+00  -1.2663784932773832e-04 2.5166070646165565e-07 0.0000000000000000e+00  -1.2527094975486373e-04 3.6149196412053651e-07 0.0000000000000000e+00  -1.2385313908003909e-04 4.6426684228813360e-07 0.0000000000000000e+00  -1.2234846994934868e-04 5.5315257446816757e-07 0.0000000000000000e+00  -1.2077909842189844e-04 6.3281683928786848e-07 0.0000000000000000e+00  -1.1913594942160603e-04 6.8454455976648036e-07 0.0000000000000000e+00  -1.1741481749653275e-04 7.3236721972112876e-07 0.0000000000000000e+00  -1.1562086879614902e-04 7.3070030894653741e-07 0.0000000000000000e+00  -1.1373983982536546e-04 7.2712934279289835e-07 0.0000000000000000e+00  -1.1178352720119154e-04 6.8298702560079985e-07 0.0000000000000000e+00  -1.0973977226816053e-04 6.4889161673645112e-07 0.0000000000000000e+00  -1.0762245334911009e-04 5.7606121638330517e-07 0.0000000000000000e+00  -1.0542185921787947e-04 5.1145266029837350e-07 0.0000000000000000e+00  -1.0314007892845712e-04 4.0537744229953624e-07 0.0000000000000000e+00  -1.0076983205949945e-04 3.1218576911928685e-07 0.0000000000000000e+00  -9.8314341482279473e-05 1.9122963789586411e-07 0.0000000000000000e+00  -9.5773522105851343e-05 9.7112772243403372e-08 0.0000000000000000e+00  -9.3153848552261193e-05 -1.7809946458866032e-08 0.0000000000000000e+00  -9.0456509288799151e-05 -1.0653773933294981e-07 0.0000000000000000e+00  -8.7674449378086555e-05 -2.1429180567711528e-07 0.0000000000000000e+00  -8.4805921737516837e-05 -3.0162788822645267e-07 0.0000000000000000e+00  -8.1866952149038736e-05 -3.8462589710575187e-07 0.0000000000000000e+00  -7.8829109165451933e-05 -4.4784122719245475e-07 0.0000000000000000e+00  -7.5738588493317824e-05 -4.9365039653166891e-07 0.0000000000000000e+00  -7.2569054324245476e-05 -5.3864477516308139e-07 0.0000000000000000e+00  -6.9332352690169502e-05 -5.5181984419260263e-07 0.0000000000000000e+00  -6.6023680112484818e-05 -5.7785249191248036e-07 0.0000000000000000e+00  -6.2646270927999744e-05 -5.6468347767453687e-07 0.0000000000000000e+00  -5.9207251785797043e-05 -5.5847626601863029e-07 0.0000000000000000e+00  -5.5706902254282441e-05 -5.2814402709081889e-07 0.0000000000000000e+00  -5.2162206104556314e-05 -5.0254328866082256e-07 0.0000000000000000e+00  -4.8553665904994178e-05 -4.7540738153179949e-07 0.0000000000000000e+00  -4.4905282032352270e-05 -4.5094922115295406e-07 0.0000000000000000e+00  -4.1211136080306917e-05 -4.3619768703784837e-07 0.0000000000000000e+00  -3.7481506672004180e-05 -4.1894562754160070e-07 0.0000000000000000e+00  -3.3725491841622544e-05 -4.1817947582703493e-07 0.0000000000000000e+00  -2.9946788893319947e-05 -4.2316955675047291e-07 0.0000000000000000e+00  -2.6155141051629553e-05 -4.3799711344200788e-07 0.0000000000000000e+00  -2.2351613516239060e-05 -4.5584863225366647e-07 0.0000000000000000e+00  -1.8542030626964214e-05 -4.7567445363567793e-07 0.0000000000000000e+00  -1.4734498879557580e-05 -4.9711134596466977e-07 0.0000000000000000e+00  -1.0942500857846150e-05 -5.1920704356108052e-07 0.0000000000000000e+00  -7.1657580722989353e-06 -5.3806814294430466e-07 0.0000000000000000e+00  -3.4914638464918164e-06 -5.0995650242617315e-07 0.0000000000000000e+00  -5.4899511985460781e-06 2.0102654630575951e-08 0.0000000000000000e+00  -1.2836835417578724e-04 -1.2919463079035845e-06 0.0000000000000000e+00  -1.2590053264061548e-04 -9.8948353500828070e-07 0.0000000000000000e+00  -1.2137879051432691e-04 -5.0538781130424545e-07 0.0000000000000000e+00  -1.2866633422285850e-05 6.6422047406453944e-08 0.0000000000000000e+00  -1.1818850185093292e-04 -2.6279811513258505e-07 0.0000000000000000e+00  -2.0171627518069260e-05 1.2009055724381912e-07 0.0000000000000000e+00  -1.1464076918052248e-04 -1.1367748049000900e-07 0.0000000000000000e+00  -3.2001134206054169e-05 1.7686399969223721e-07 0.0000000000000000e+00  -3.9328690358650563e-05 1.5977997653638640e-07 0.0000000000000000e+00  -1.1077498900125045e-04 -4.3435316493612268e-08 0.0000000000000000e+00  -5.7562582008076961e-05 -1.0815498320211778e-07 0.0000000000000000e+00  -1.0202853422921809e-04 -7.8607849926880923e-08 0.0000000000000000e+00  -4.6397681584023491e-05 7.6874298986001659e-08 0.0000000000000000e+00  -6.4302138930504913e-05 -2.1174164601385934e-07 0.0000000000000000e+00  -9.7131874190302031e-05 -1.5295752990619491e-07 0.0000000000000000e+00  -1.0657469595251570e-04 -3.4359117958970480e-08 0.0000000000000000e+00  -7.0945902368333409e-05 -2.8766488446260239e-07 0.0000000000000000e+00  -9.1888520047133190e-05 -2.2929229807438260e-07 0.0000000000000000e+00  -7.7065095915557840e-05 -3.2329428320663141e-07 0.0000000000000000e+00  -8.6426566793986286e-05 -2.8945339430239353e-07 0.0000000000000000e+00  -8.1645347748691911e-05 -3.1668983970108267e-07 0.0000000000000000e+00  -5.1787840933407650e-05 4.0808239870440054e-10 0.0000000000000000e+00  -1.2380566332581238e-04 -7.2679787938126595e-07 0.0000000000000000e+00  -2.5866470382277047e-05 1.6536859609865053e-07 0.0000000000000000e+00  -1.2722134162958246e-04 -6.7677221215529123e-07 0.0000000000000000e+00  -9.0590987805668197e-06 -1.7685709480551582e-07 0.0000000000000000e+00  -1.1647889979140009e-04 8.9915518322454585e-08 0.0000000000000000e+00  -1.1988555289291290e-04 -6.9005387077762246e-08 0.0000000000000000e+00  -1.6641800740423277e-05 3.0540187352080794e-07 0.0000000000000000e+00  -3.5592856896445504e-05 3.5092289612490257e-07 0.0000000000000000e+00  -1.0433355540384597e-04 9.8645799580506190e-08 0.0000000000000000e+00  -1.1275955396127920e-04 1.5713695464627145e-07 0.0000000000000000e+00  -6.0863244530211275e-05 -4.0816666154599587e-08 0.0000000000000000e+00  -9.9607146924114649e-05 -7.5337793674395529e-09 0.0000000000000000e+00  -4.3012574397325582e-05 2.8937290213182077e-07 0.0000000000000000e+00  -6.7636590390172054e-05 -1.6166339878796521e-07 0.0000000000000000e+00  -9.4533657254314990e-05 -1.2570973194604918e-07 0.0000000000000000e+00  -1.0871309667890579e-04 1.5763327919461720e-07 0.0000000000000000e+00  -7.4116008012265161e-05 -2.3019965661717042e-07 0.0000000000000000e+00  -8.9124167339039024e-05 -2.3436264344222152e-07 0.0000000000000000e+00  -2.5681625924999083e-06 1.7436730843062141e-07 0.0000000000000000e+00  -2.4758136670633684e-06 -1.5443837848830964e-07 0.0000000000000000e+00  -1.2927056719317189e-04 -1.7372951336990771e-06 0.00000000000