<?xml version="1.0"?>
<VTKFile type="UnstructuredGrid"  version="0.1"  >
<UnstructuredGrid>
<Piece  NumberOfPoints="1419" NumberOfCells="2698">
<Points>
<DataArray  type="Float64"  NumberOfComponents="3"  format="ascii">0 0 0  0 0.41 0  2.5 0 0  2.5 0.41 0  0.6 0.19 0  0.6 0.21 0  0.25 0.2 0  0.15 0.2 0  0.2489897948556636 0.21 0  0.2489897948556636 0.19 0  0.6 0.2 0  0 0.3807142857143437 0  0 0.3514285714286952 0  0 0.3221428571430699 0  0 0.29285714285744 0  0 0.2635714285718054 0  0 0.2342857142861561 0  0 0.2050000000005308 0  0 0.175714285714732 0  0 0.1464285714289574 0  0 0.1171428571431897 0  0 0.08785714285737878 0  0 0.05857142857161107 0  0 0.02928571428580012 0  0.03015443760436003 0 0  0.06140001986583606 0 0  0.09377624077125973 0 0  0.1273239957535082 0 0  0.1620856860351972 0 0  0.1981052433264291 0 0  0.235428184091502 0 0  0.2741016576309132 0 0  0.3141745521465447 0 0  0.3556974926295285 0 0  0.3987229542472677 0 0  0.4433053055141081 0 0  0.4895008759286886 0 0  0.5373680609405097 0 0  0.5869673343216626 0 0  0.6383613676634521 0 0  0.6916151138468254 0 0  0.7467958595648856 0 0  0.8039733463919316 0 0  0.8632198139502143 0 0  0.9246101326867038 0 0  0.9882218810934433 0 0  1.054135445558498 0 0  1.122434100542598 0 0  1.193204177141305 0 0  1.266535089879536 0 0  1.342519516046404 0 0  1.421253448503939 0 0  1.502836389106271 0 0  1.587371439758838 0 0  1.674965418777374 0 0  1.765729001825544 0 0  1.859776908880082 0 0  1.957227977487062 0 0  2.058205329869943 0 0  2.162836591189951 0 0  2.271253957290865 0 0  2.383594446803425 0 0  2.5 0.1024999999997612 0  2.5 0.2049999999994743 0  2.5 0.3074999999997183 0  2.383594446803656 0.41 0  2.271253957291315 0.41 0  2.162836591190598 0.41 0  2.058205329870775 0.41 0  1.957227977488067 0.41 0  1.859776908881246 0.41 0  1.765729001826854 0.41 0  1.674965418778818 0.41 0  1.58737143976041 0.41 0  1.502836389107956 0.41 0  1.421253448505726 0.41 0  1.342519516048286 0.41 0  1.266535089881505 0.41 0  1.193204177143353 0.41 0  1.122434100544716 0.41 0  1.05413544556068 0.41 0  0.9882218810956305 0.41 0  0.9246101326886647 0.41 0  0.8632198139519631 0.41 0  0.8039733463934788 0.41 0  0.7467958595662458 0.41 0  0.6916151138480078 0.41 0  0.6383613676644679 0.41 0  0.5869673343225223 0.41 0  0.5373680609412221 0.41 0  0.4895008759292634 0.41 0  0.4433053055145528 0.41 0  0.3987229542475914 0.41 0  0.3556974926297398 0.41 0  0.3141745521466497 0.41 0  0.2741016576310038 0.41 0  0.2354281840915826 0.41 0  0.1981052433265003 0.41 0  0.1620856860352591 0.41 0  0.1273239957535623 0.41 0  0.09377624077128965 0.41 0  0.06140001986584975 0.41 0  0.03015443760436654 0.41 0  0.2497468076502589 0.2050254481002335 0  0.2497468076502614 0.1949745518997913 0  0.2469965252529372 0.1829317073451959 0  0.2439893735792749 0.1762316384219906 0  0.2400332147834255 0.1700443375285386 0  0.2352133972704371 0.1645032867342007 0  0.2296339016332438 0.1597280261969788 0  0.2234150974217223 0.1558215752574715 0  0.2166911463437691 0.1528682099456123 0  0.2096071079204251 0.1509316448471593 0  0.2023158100364996 0.1500536585536553 0  0.194974551899914 0.1502531923497262 0  0.1877417105387872 0.1515259415822739 0  0.1807733240461124 0.153844448527136 0  0.1742197252835808 0.15715869474974 0  0.1682222986673531 0.1613971801805478 0  0.162910430003803 0.1664684656256651 0  0.1583987151779087 0.1722631454351573 0  0.1547844879126891 0.178656207771761 0  0.1521457199348551 0.1855097315605723 0  0.1505393388476355 0.1926758619366523 0  0.1505393388476328 0.2073241380633295 0  0.1521457199348437 0.2144902684393899 0  0.1547844879126531 0.221343792228163 0  0.1583987151778488 0.2277368545647528 0  0.1629104300036858 0.2335315343742052 0  0.1682222986671726 0.2386028198193036 0  0.1742197252833576 0.2428413052501257 0  0.1807733240458683 0.2461555514727623 0  0.1877417105384929 0.2484740584176516 0  0.1949745518995776 0.2497468076502398 0  0.202315810036185 0.2499463414463592 0  0.2096071079201568 0.2490683551528932 0  0.2166911463435495 0.2471317900544655 0  0.2234150974215506 0.2441784247426195 0  0.2296339016331197 0.2402719738031125 0  0.2352133972703547 0.2354967132658811 0  0.2400332147833751 0.2299556624715287 0  0.2439893735792577 0.2237683615780412 0  0.246996525252926 0.2170682926548348 0  0.25645809709277 0.21 0  0.2639263993298655 0.21 0  0.271394701566961 0.21 0  0.2788630038040554 0.21 0  0.2863313060411479 0.21 0  0.2937996082782405 0.21 0  0.301267910515333 0.21 0  0.3087362127524279 0.21 0  0.3162045149895234 0.21 0  0.3236728172265972 0.21 0  0.3311411194636928 0.21 0  0.3386094217007701 0.21 0  0.3460777239378666 0.21 0  0.3535460261749672 0.21 0  0.3610143284120516 0.21 0  0.3684826306491596 0.21 0  0.3759509328862226 0.21 0  0.383419235123329 0.21 0  0.3908875373604028 0.21 0  0.3983558395975142 0.21 0  0.4058241418345938 0.21 0  0.4132924440716992 0.21 0  0.4207607463087888 0.21 0  0.4282290485459029 0.21 0  0.4356973507830418 0.21 0  0.4431656530201649 0.21 0  0.4506339552573136 0.21 0  0.4581022574944306 0.21 0  0.4655705597315852 0.21 0  0.4730388619686996 0.21 0  0.480507164205851 0.21 0  0.4879754664429498 0.21 0  0.4954437686800938 0.21 0  0.502912070917267 0.21 0  0.5103803731544119 0.21 0  0.5178486753915261 0.21 0  0.5253169776286404 0.21 0  0.5327852798657868 0.21 0  0.5402535821029386 0.21 0  0.54772188434007 0.21 0  0.5551901865771842 0.21 0  0.5626584888143201 0.21 0  0.5701267910514778 0.21 0  0.5775950932886138 0.21 0  0.5850633955257281 0.21 0  0.5925316977628483 0.21 0  0.6 0.2050000000000054 0  0.6 0.1950000000000217 0  0.5925316977628897 0.19 0  0.5850633955257988 0.19 0  0.5775950932887378 0.19 0  0.5701267910515998 0.19 0  0.5626584888145268 0.19 0  0.5551901865773963 0.19 0  0.547721884340339 0.19 0  0.5402535821032429 0.19 0  0.5327852798661811 0.19 0  0.5253169776290537 0.19 0  0.5178486753919799 0.19 0  0.5103803731549078 0.19 0  0.502912070917822 0.19 0  0.4954437686807294 0.19 0  0.4879754664436223 0.19 0  0.4805071642065402 0.19 0  0.4730388619694271 0.19 0  0.4655705597323621 0.19 0  0.4581022574952563 0.19 0  0.4506339552581777 0.19 0  0.4431656530210671 0.19 0  0.4356973507839815 0.19 0  0.4282290485468779 0.19 0  0.4207607463097617 0.19 0  0.4132924440726327 0.19 0  0.4058241418354857 0.19 0  0.3983558395983636 0.19 0  0.3908875373612097 0.19 0  0.3834192351240934 0.19 0  0.3759509328869369 0.19 0  0.3684826306498175 0.19 0  0.361014328412667 0.19 0  0.3535460261755617 0.19 0  0.3460777239384295 0.19 0  0.3386094217012945 0.19 0  0.3311411194641595 0.19 0  0.3236728172270245 0.19 0  0.3162045149898895 0.19 0  0.3087362127527544 0.19 0  0.3012679105156187 0.19 0  0.2937996082784807 0.19 0  0.2863313060413428 0.19 0  0.2788630038042048 0.19 0  0.2713947015670686 0.19 0  0.2639263993299336 0.19 0  0.2564580970927985 0.19 0  0.2607803159922026 0.2000727136295815 0  0.5887803774232762 0.2001272386983733 0  0.5745072403740523 0.2002044435018727 0  0.5511891430099709 0.2001122610077113 0  0.2751288526855082 0.20000000000002 0  0.5365194309847112 0.1999999999999436 0  0.2894621222999649 0.1998691686390484 0  0.5215828265105155 0.1999999999999228 0  0.3127789816668748 0.1998657885438805 0  0.3274069683451451 0.2000000000000796 0  0.5066462220363641 0.199999999999908 0  0.3650630746574081 0.199866017807523 0  0.476773013087985 0.1999999999998713 0  0.3417402379596385 0.1998691686391011 0  0.3796850840047755 0.200000000000134 0  0.4618364086138087 0.1999999999998546 0  0.4917096175621762 0.1999999999998808 0  0.3946216884789568 0.2000000000001512 0  0.446899804139621 0.1999999999998389 0  0.4089549580935208 0.1998691686391595 0  0.4322718174608562 0.200127451265745 0  0.4201487168029707 0.1999966199048527 0  0.3528922713220932 0.2000185703532356 0  0.5633122436674589 0.1999814296467508 0  0.3006558810093873 0.1999966199048318 0  0.5815926498168407 0.1966545283159175 0  0.2677053789419034 0.1964246479135325 0  0.5290511287476175 0.1970915826863981 0  0.5439877332217911 0.197091582686394 0  0.2825131256993216 0.2035478995978015 0  0.3199386661080599 0.202908417313604 0  0.4842413153250809 0.1970915826863873 0  0.5141145242734466 0.1970915826863843 0  0.3722167817676917 0.2029084173136195 0  0.4693047108508938 0.1970915826863783 0  0.3348752705822316 0.202908417313609 0  0.3871533862418661 0.2029084173136212 0  0.4543681063767183 0.1970915826863795 0  0.4991779197992749 0.1970915826863902 0  0.4020059614928624 0.203547899597858 0  0.4394315019025246 0.1970915826863714 0  0.2550657455369551 0.2034088125358657 0  0.2548908499171161 0.1966940311614271 0  0.5946539510196798 0.2024302972968126 0  0.267698176732111 0.2039977513680092 0  0.4261685417851465 0.196409292431739 0  0.3590076176283495 0.196411355804271 0  0.5571672426447437 0.2036011176410121 0  0.3066757059912147 0.1964092924317024 0  0.594380730180568 0.1966558399668133 0  0.4842413153245942 0.2040749161535287 0  0.4693047108503577 0.2040749161535231 0  0.3871533862424271 0.1959250838464788 0  0.372246743208829 0.1959123236376545 0  0.5141145242731028 0.2040749161535395 0  0.4543681063761134 0.2040749161535186 0  0.4019979587101454 0.1959834479682427 0  0.4394608940728603 0.2040870543693135 0  0.5439623148931173 0.2040856076781014 0  0.5290511287473298 0.2040749161535501 0  0.4991779197988497 0.2040749161535382 0  0.3347912413592433 0.1959225448935183 0  0.3199680582793816 0.1959123018030061 0  0.2825051229162361 0.1959834479681729 0  0.3590471196690275 0.2036304442587945 0  0.5571594006495384 0.1963685282145804 0  0.3067669986803285 0.203627750582736 0  0.4262598344738712 0.2036568242185335 0  0.5814408164431408 0.2041285596160068 0  0.5688286748170428 0.1961819304477386 0  0.4145905603063645 0.2038180695522843 0  0.3473758401724931 0.2038180695522752 0  0.2950977245128307 0.2038180695522663 0  0.5688286748170693 0.203818069552238 0  0.2950977245127906 0.1961819304477774 0  0.3473758401723931 0.1961819304478349 0  0.4145905603061963 0.1961819304479011 0  0.2601812407614425 0.2056861609747042
[...]
<PointData  Vectors="f_40-0"> 
<DataArray  type="Float64"  Name="f_40-0"  NumberOfComponents="3" format="ascii">0.0000000000000000e+00 0.0000000000000000e+00 0.0000000000000000e+00  0.0000000000000000e+00 0.0000000000000000e+00 0.0000000000000000e+00  0.0000000000000000e+00 0.0000000000000000e+00 0.0000000000000000e+00  0.0000000000000000e+00 0.0000000000000000e+00 0.0000000000000000e+00  -4.8589006625473191e-06 -6.5304234174668613e-04 0.0000000000000000e+00  4.6866079662482145e-05 -6.5813292169809520e-04 0.0000000000000000e+00  0.0000000000000000e+00 0.0000000000000000e+00 0.0000000000000000e+00  0.0000000000000000e+00 0.0000000000000000e+00 0.0000000000000000e+00  0.0000000000000000e+00 0.0000000000000000e+00 0.0000000000000000e+00  0.0000000000000000e+00 0.0000000000000000e+00 0.0000000000000000e+00  2.0395290078462793e-05 -6.5557956847337871e-04 0.0000000000000000e+00  9.7592792421357724e-02 0.0000000000000000e+00 0.0000000000000000e+00  1.8017130908559545e-01 0.0000000000000000e+00 0.0000000000000000e+00  2.4773554999269373e-01 0.0000000000000000e+00 0.0000000000000000e+00  3.0028551514273094e-01 0.0000000000000000e+00 0.0000000000000000e+00  3.3782120453570008e-01 0.0000000000000000e+00 0.0000000000000000e+00  3.6034261817159902e-01 0.0000000000000000e+00 0.0000000000000000e+00  3.6784975605040526e-01 0.0000000000000000e+00 0.0000000000000000e+00  3.6034261817205437e-01 0.0000000000000000e+00 0.0000000000000000e+00  3.3782120453648218e-01 0.0000000000000000e+00 0.0000000000000000e+00  3.0028551514369950e-01 0.0000000000000000e+00 0.0000000000000000e+00  2.4773554999361391e-01 0.0000000000000000e+00 0.0000000000000000e+00  1.8017130908638063e-01 0.0000000000000000e+00 0.0000000000000000e+00  9.7592792421800148e-02 0.0000000000000000e+00 0.0000000000000000e+00  0.0000000000000000e+00 0.0000000000000000e+00 0.0000000000000000e+00  0.0000000000000000e+00 0.0000000000000000e+00 0.0000000000000000e+00  0.0000000000000000e+00 0.0000000000000000e+00 0.0000000000000000e+00  0.0000000000000000e+00 0.0000000000000000e+00 0.0000000000000000e+00  0.0000000000000000e+00 0.0000000000000000e+00 0.0000000000000000e+00  0.0000000000000000e+00 0.0000000000000000e+00 0.0000000000000000e+00  0.0000000000000000e+00 0.0000000000000000e+00 0.0000000000000000e+00  0.0000000000000000e+00 0.0000000000000000e+00 0.0000000000000000e+00  0.0000000000000000e+00 0.0000000000000000e+00 0.0000000000000000e+00  0.0000000000000000e+00 0.0000000000000000e+00 0.0000000000000000e+00  0.0000000000000000e+00 0.0000000000000000e+00 0.0000000000000000e+00  0.0000000000000000e+00 0.0000000000000000e+00 0.0000000000000000e+00  0.0000000000000000e+00 0.0000000000000000e+00 0.0000000000000000e+00  0.0000000000000000e+00 0.0000000000000000e+00 0.0000000000000000e+00  0.0000000000000000e+00 0.0000000000000000e+00 0.0000000000000000e+00  0.0000000000000000e+00 0.0000000000000000e+00 0.0000000000000000e+00  0.0000000000000000e+00 0.0000000000000000e+00 0.0000000000000000e+00  0.0000000000000000e+00 0.0000000000000000e+00 0.0000000000000000e+00  0.0000000000000000e+00 0.0000000000000000e+00 0.0000000000000000e+00  0.0000000000000000e+00 0.0000000000000000e+00 0.0000000000000000e+00  0.0000000000000000e+00 0.0000000000000000e+00 0.0000000000000000e+00  0.0000000000000000e+00 0.0000000000000000e+00 0.0000000000000000e+00  0.0000000000000000e+00 0.0000000000000000e+00 0.0000000000000000e+00  0.0000000000000000e+00 0.0000000000000000e+00 0.0000000000000000e+00  0.0000000000000000e+00 0.0000000000000000e+00 0.0000000000000000e+00  0.0000000000000000e+00 0.0000000000000000e+00 0.0000000000000000e+00  0.0000000000000000e+00 0.0000000000000000e+00 0.0000000000000000e+00  0.0000000000000000e+00 0.0000000000000000e+00 0.0000000000000000e+00  0.0000000000000000e+00 0.0000000000000000e+00 0.0000000000000000e+00  0.0000000000000000e+00 0.0000000000000000e+00 0.0000000000000000e+00  0.0000000000000000e+00 0.0000000000000000e+00 0.0000000000000000e+00  0.0000000000000000e+00 0.0000000000000000e+00 0.0000000000000000e+00  0.0000000000000000e+00 0.0000000000000000e+00 0.0000000000000000e+00  0.0000000000000000e+00 0.0000000000000000e+00 0.0000000000000000e+00  0.0000000000000000e+00 0.0000000000000000e+00 0.0000000000000000e+00  0.0000000000000000e+00 0.0000000000000000e+00 0.0000000000000000e+00  0.0000000000000000e+00 0.0000000000000000e+00 0.0000000000000000e+00  0.0000000000000000e+00 0.0000000000000000e+00 0.0000000000000000e+00  3.5243946257451608e-01 1.2153272899178323e-02 0.0000000000000000e+00  2.4711044277678607e-01 -2.5762476928801866e-03 0.0000000000000000e+00  3.5387786750881745e-01 -9.5835461304402542e-03 0.0000000000000000e+00  0.0000000000000000e+00 0.0000000000000000e+00 0.0000000000000000e+00  0.0000000000000000e+00 0.0000000000000000e+00 0.0000000000000000e+00  0.0000000000000000e+00 0.0000000000000000e+00 0.0000000000000000e+00  0.0000000000000000e+00 0.0000000000000000e+00 0.0000000000000000e+00  0.0000000000000000e+00 0.0000000000000000e+00 0.0000000000000000e+00  0.0000000000000000e+00 0.0000000000000000e+00 0.0000000000000000e+00  0.0000000000000000e+00 0.0000000000000000e+00 0.0000000000000000e+00  0.0000000000000000e+00 0.0000000000000000e+00 0.0000000000000000e+00  0.0000000000000000e+00 0.0000000000000000e+00 0.0000000000000000e+00  0.0000000000000000e+00 0.0000000000000000e+00 0.0000000000000000e+00  0.0000000000000000e+00 0.0000000000000000e+00 0.0000000000000000e+00  0.0000000000000000e+00 0.0000000000000000e+00 0.0000000000000000e+00  0.0000000000000000e+00 0.0000000000000000e+00 0.0000000000000000e+00  0.0000000000000000e+00 0.0000000000000000e+00 0.0000000000000000e+00  0.0000000000000000e+00 0.0000000000000000e+00 0.0000000000000000e+00  0.0000000000000000e+00 0.0000000000000000e+00 0.0000000000000000e+00  0.0000000000000000e+00 0.0000000000000000e+00 0.0000000000000000e+00  0.0000000000000000e+00 0.0000000000000000e+00 0.0000000000000000e+00  0.0000000000000000e+00 0.0000000000000000e+00 0.0000000000000000e+00  0.0000000000000000e+00 0.0000000000000000e+00 0.0000000000000000e+00  0.0000000000000000e+00 0.0000000000000000e+00 0.0000000000000000e+00  0.0000000000000000e+00 0.0000000000000000e+00 0.0000000000000000e+00  0.0000000000000000e+00 0.0000000000000000e+00 0.0000000000000000e+00  0.0000000000000000e+00 0.0000000000000000e+00 0.0000000000000000e+00  0.0000000000000000e+00 0.0000000000000000e+00 0.0000000000000000e+00  0.0000000000000000e+00 0.0000000000000000e+00 0.0000000000000000e+00  0.0000000000000000e+00 0.0000000000000000e+00 0.0000000000000000e+00  0.0000000000000000e+00 0.0000000000000000e+00 0.0000000000000000e+00  0.0000000000000000e+00 0.0000000000000000e+00 0.0000000000000000e+00  0.0000000000000000e+00 0.0000000000000000e+00 0.0000000000000000e+00  0.0000000000000000e+00 0.0000000000000000e+00 0.0000000000000000e+00  0.0000000000000000e+00 0.0000000000000000e+00 0.0000000000000000e+00  0.0000000000000000e+00 0.0000000000000000e+00 0.0000000000000000e+00  0.0000000000000000e+00 0.0000000000000000e+00 0.0000000000000000e+00  0.0000000000000000e+00 0.0000000000000000e+00 0.0000000000000000e+00  0.0000000000000000e+00 0.0000000000000000e+00 0.0000000000000000e+00  0.0000000000000000e+00 0.0000000000000000e+00 0.0000000000000000e+00  0.0000000000000000e+00 0.0000000000000000e+00 0.0000000000000000e+00  0.0000000000000000e+00 0.0000000000000000e+00 0.0000000000000000e+00  0.0000000000000000e+00 0.0000000000000000e+00 0.0000000000000000e+00  0.0000000000000000e+00 0.0000000000000000e+00 0.0000000000000000e+00  0.0000000000000000e+00 0.0000000000000000e+00 0.0000000000000000e+00  0.0000000000000000e+00 0.0000000000000000e+00 0.0000000000000000e+00  0.0000000000000000e+00 0.0000000000000000e+00 0.0000000000000000e+00  0.0000000000000000e+00 0.0000000000000000e+00 0.0000000000000000e+00  0.0000000000000000e+00 0.0000000000000000e+00 0.0000000000000000e+00  0.0000000000000000e+00 0.0000000000000000e+00 0.0000000000000000e+00  0.0000000000000000e+00 0.0000000000000000e+00 0.0000000000000000e+00  0.0000000000000000e+00 0.0000000000000000e+00 0.0000000000000000e+00  0.0000000000000000e+00 0.0000000000000000e+00 0.0000000000000000e+00  0.0000000000000000e+00 0.0000000000000000e+00 0.0000000000000000e+00  0.0000000000000000e+00 0.0000000000000000e+00 0.0000000000000000e+00  0.0000000000000000e+00 0.0000000000000000e+00 0.0000000000000000e+00  0.0000000000000000e+00 0.0000000000000000e+00 0.0000000000000000e+00  0.0000000000000000e+00 0.0000000000000000e+00 0.0000000000000000e+00  0.0000000000000000e+00 0.0000000000000000e+00 0.0000000000000000e+00  0.0000000000000000e+00 0.0000000000000000e+00 0.0000000000000000e+00  0.0000000000000000e+00 0.0000000000000000e+00 0.0000000000000000e+00  0.0000000000000000e+00 0.0000000000000000e+00 0.0000000000000000e+00  0.0000000000000000e+00 0.0000000000000000e+00 0.0000000000000000e+00  0.0000000000000000e+00 0.0000000000000000e+00 0.0000000000000000e+00  0.0000000000000000e+00 0.0000000000000000e+00 0.0000000000000000e+00  0.0000000000000000e+00 0.0000000000000000e+00 0.0000000000000000e+00  0.0000000000000000e+00 0.0000000000000000e+00 0.0000000000000000e+00  0.0000000000000000e+00 0.0000000000000000e+00 0.0000000000000000e+00  0.0000000000000000e+00 0.0000000000000000e+00 0.0000000000000000e+00  0.0000000000000000e+00 0.0000000000000000e+00 0.0000000000000000e+00  0.0000000000000000e+00 0.0000000000000000e+00 0.0000000000000000e+00  0.0000000000000000e+00 0.0000000000000000e+00 0.0000000000000000e+00  0.0000000000000000e+00 0.0000000000000000e+00 0.0000000000000000e+00  0.0000000000000000e+00 0.0000000000000000e+00 0.0000000000000000e+00  0.0000000000000000e+00 0.0000000000000000e+00 0.0000000000000000e+00  0.0000000000000000e+00 0.0000000000000000e+00 0.0000000000000000e+00  0.0000000000000000e+00 0.0000000000000000e+00 0.0000000000000000e+00  0.0000000000000000e+00 0.0000000000000000e+00 0.0000000000000000e+00  0.0000000000000000e+00 0.0000000000000000e+00 0.0000000000000000e+00  0.0000000000000000e+00 0.0000000000000000e+00 0.0000000000000000e+00  0.0000000000000000e+00 0.0000000000000000e+00 0.0000000000000000e+00  2.2433414932762473e-06 -6.2805486733073943e-06 0.0000000000000000e+00  4.8860546497891559e-06 -8.1592765036268721e-06 0.0000000000000000e+00  7.7090673854642572e-06 -1.0729583794696897e-05 0.0000000000000000e+00  1.0810834177324158e-05 -1.4145488029200818e-05 0.0000000000000000e+00  1.3735990184560093e-05 -1.8443549114585880e-05 0.0000000000000000e+00  1.6813817488423729e-05 -2.3746034727313279e-05 0.0000000000000000e+00  1.9599361507665623e-05 -2.9757678698789152e-05 0.0000000000000000e+00  2.2300066894462534e-05 -3.6730818210233679e-05 0.0000000000000000e+00  2.5132447090940590e-05 -4.4445896357877163e-05 0.0000000000000000e+00  2.7588778842340143e-05 -5.2913586139227317e-05 0.0000000000000000e+00  3.0204449400722650e-05 -6.2187000953832478e-05 0.0000000000000000e+00  3.2447619765250828e-05 -7.2133529403584063e-05 0.0000000000000000e+00  3.4775849906257465e-05 -8.2797546526761916e-05 0.0000000000000000e+00  3.6824670895967733e-05 -9.4031957145963177e-05 0.0000000000000000e+00  3.8760332362507967e-05 -1.0595584020985026e-04 0.0000000000000000e+00  4.0749761399398946e-05 -1.1843190510726193e-04 0.0000000000000000e+00  4.2427455406222050e-05 -1.3141942153318683e-04 0.0000000000000000e+00  4.4170567440477133e-05 -1.4499585517518311e-04 0.0000000000000000e+00  4.5622278725861772e-05 -1.5899869471254046e-04 0.0000000000000000e+00  4.7117198776450347e-05 -1.7350775311744264e-04 0.0000000000000000e+00  4.8380680286172901e-05 -1.8840736345695068e-04 0.0000000000000000e+00  4.9620939108813252e-05 -2.0376615468874472e-04 0.0000000000000000e+00  5.0676206428446379e-05 -2.1944454264934653e-04 0.0000000000000000e+00  5.1625212967247537e-05 -2.3552312277189371e-04 0.0000000000000000e+00  5.2565752225574902e-05 -2.5190744831103781e-04 0.0000000000000000e+00  5.3325974829494811e-05 -2.6858920893553414e-04 0.0000000000000000e+00  5.4007143246979003e-05 -2.8562022603914090e-04 0.0000000000000000e+00  5.4563597545595110e-05 -3.0285318530823800e-04 0.0000000000000000e+00  5.5037306989283951e-05 -3.2039382374863997e-04 0.0000000000000000e+00  5.5390788414895107e-05 -3.3810480640424182e-04 0.0000000000000000e+00  5.5661966234464843e-05 -3.5607651091436755e-04 0.0000000000000000e+00  5.5814204677077415e-05 -3.7417780691240083e-04 0.0000000000000000e+00  5.5887712045115743e-05 -3.9250237688763468e-04 0.0000000000000000e+00  5.5841543774785036e-05 -4.1091600765655475e-04 0.0000000000000000e+00  5.5706049957717120e-05 -4.2953011305364952e-04 0.0000000000000000e+00  5.5465005724000367e-05 -4.4820051958942411e-04 0.0000000000000000e+00  5.5137171500661861e-05 -4.6702661979357464e-04 0.0000000000000000e+00  5.4704715589826540e-05 -4.8588316837625234e-04 0.0000000000000000e+00  5.4182342373914020e-05 -5.0486624111720267e-04 0.0000000000000000e+00  5.3554031043252905e-05 -5.2385779279323056e-04 0.0000000000000000e+00  5.2828913610893010e-05 -5.4293396539737760e-04 0.0000000000000000e+00  5.2015165516673591e-05 -5.6202048973686834e-04 0.0000000000000000e+00  5.1095314396557885e-05 -5.8115442154864111e-04 0.0000000000000000e+00  5.0120322778872256e-05 -6.0029859594115415e-04 0.0000000000000000e+00  4.9029184364774994e-05 -6.1942123296201360e-04 0.0000000000000000e+00  4.7893316652753548e-05 -6.3861777013617463e-04 0.0000000000000000e+00  3.3421924633628985e-05 -6.5683653030432947e-04 0.0000000000000000e+00  7.5942652095857442e-06 -6.5432656513141779e-04 0.0000000000000000e+00  -3.7730195525734704e-06 -6.3393478704779820e-04 0.0000000000000000e+00  -2.5893866826749306e-06 -6.1454654661267775e-04 0.0000000000000000e+00  -1.4440852736240567e-06 -5.9512765318603519e-04 0.0000000000000000e+00  -3.9199726663001093e-07 -5.7577034095827493e-04 0.0000000000000000e+00  6.0702763559662476e-07 -5.5643785908229750e-04 0.0000000000000000e+00  1.5138834422871311e-06 -5.3714509063924356e-04 0.0000000000000000e+00  2.3765243594486911e-06 -5.1789993273278754e-04 0.0000000000000000e+00  3.1434336162739417e-06 -4.9868379130487068e-04 0.0000000000000000e+00  3.8698779903945471e-06 -4.7957100809811878e-04 0.0000000000000000e+00  4.5061366052877638e-06 -4.6048850752940013e-04 0.0000000000000000e+00  5.1148783810852117e-06 -4.4153364747540980e-04 0.0000000000000000e+00  5.6276707794684172e-06 -4.2263756596661208e-04 0.0000000000000000e+00  6.1254041197097866e-06 -4.0390286430919397e-04 0.0000000000000000e+00  6.5235676799017316e-06 -3.8526283166916874e-04 0.0000000000000000e+00  6.9215985965099201e-06 -3.6681641003268636e-04 0.0000000000000000e+00  7.2095026443596621e-06 -3.4849895115438614e-04 0.0000000000000000e+00  7.5140053033994225e-06 -3.3040549282743140e-04 0.0000000000000000e+00  7.6952372926644641e-06 -3.1247565386570192e-04 0.0000000000000000e+00  7.9058859304020200e-06 -2.9481495839941231e-04 0.0000000000000000e+00  7.9850219815179333e-06 -2.7736426950165742e-04 0.0000000000000000e+00  8.1149475072676655e-06 -2.6022258075985476e-04 0.0000000000000000e+00  8.0980484851441420e-06 -2.4333462871327415e-04 0.0000000000000000e+00  8.1292505774434209e-06 -2.2678567396185639e-04 0.0000000000000000e+00  8.0410274926145859e-06 -2.1053194404143367e-04 0.0000000000000000e+00  7.8900684796996371e-06 -1.9469291521950513e-04 0.0000000000000000e+00  7.8072534006838352e-06 -1.7917150444129133e-04 0.0000000000000000e+00  7.6010922547425616e-06 -1.6407410787369213e-04 0.0000000000000000e+00  7.4080378204067270e-06 -1.4943370060103232e-04 0.0000000000000000e+00  7.1257133442411176e-06 -1.3521852658926372e-04 0.0000000000000000e+00  6.8525773010766717e-06 -1.2152767280179596e-04 0.0000000000000000e+00  6.4909342016666334e-06 -1.0829956528260534e-04 0.0000000000000000e+00  6.1945922980443699e-06 -9.5718581937154464e-05 0.0000000000000000e+00  5.7437397104266192e-06 -8.3604568468858488e-05 0.0000000000000000e+00  5.2401761453197028e-06 -7.2222225169249051e-05 0.0000000000000000e+00  4.8695270606056659e-06 -6.1353557626754674e-05 0.0000000000000000e+00  4.3551251038409709e-06 -5.1235227049787215e-05 0.0000000000000000e+00  3.8804354604069498e-06 -4.1846311190198771e-05 0.0000000000000000e+00  3.3045642552551896e-06 -3.3168980583238928e-05 0.0000000000000000e+00  2.8451285489721464e-06 -2.5381830181074807e-05 0.0000000000000000e+00  2.1932026124199223e-06 -1.8279408583918651e-05 0.0000000000000000e+00  1.5059410946447465e-06 -1.2176932425781124e-05 0.0000000000000000e+00  1.0374676955444643e-06 -6.8066197045734444e-06 0.0000000000000000e+00  4.1835767544237628e-07 -2.3945055605532632e-06 0.0000000000000000e+00  5.0070158090767576e-08 1.0489738243566529e-06 0.0000000000000000e+00  -3.3257887841885444e-07 3.3390744039816925e-06 0.0000000000000000e+00  -2.0450232769070358e-07 4.3541042685824573e-06 0.0000000000000000e+00  7.2719835406572156e-07 -1.0134753114354442e-06 0.0000000000000000e+00  2.2752570382186905e-05 -6.2660154981123805e-04 0.0000000000000000e+00  2.5208990321390804e-05 -5.8978375713098841e-04 0.0000000000000000e+00  2.7810906834385564e-05 -5.2976883837235853e-04 0.0000000000000000e+00  4.6798967394062836e-06 -5.8131171869102290e-06 0.0000000000000000e+00  2.8885597250160961e-05 -4.9219590792580318e-04 0.0000000000000000e+00  8.0182273178365175e-06 -1.4066464038227518e-05 0.0000000000000000e+00  2.9968353497678834e-05 -4.5423654024517082e-04 0.0000000000000000e+00  1.3256298004727935e-05 -3.4548160127608637e-05 0.0000000000000000e+00  1.6432695925486978e-05 -5.1481225079255924e-05 0.0000000000000000e+00  3.0738167160798722e-05 -4.1664912068907446e-04 0.0000000000000000e+00  2.2799552359556531e-05 -1.0711366815782715e-04 0.0000000000000000e+00  3.1358016787344945e-05 -3.4311661281026702e-04 0.0000000000000000e+00  1.8984722762797525e-05 -7.0648750925908618e-05 0.0000000000000000e+00  2.5063590463912123e-05 -1.3289916857711623e-04 0.0000000000000000e+00  3.1215113581857487e-05 -3.0745059765985782e-04 0.0000000000000000e+00  3.1200147299777477e-05 -3.7956342737673000e-04 0.0000000000000000e+00  2.6860222783915600e-05 -1.6115104977427834e-04 0.0000000000000000e+00  3.0770318067003378e-05 -2.7273347164797322e-04 0.0000000000000000e+00  2.8039818404618231e-05 -1.8988025446921107e-04 0.0000000000000000e+00  3.0337240276513778e-05 -2.3986748033482595e-04 0.0000000000000000e+00  2.9201411639927704e-05 -2.1350547245011845e-04 0.0000000000000000e+00  2.1101029968216256e-05 -8.7513665473884725e-05 0.0000000000000000e+00  2.6066628980687928e-05 -5.6088995681849614e-04 0.0000000000000000e+00  1.0672641768858053e-05 -2.3077495349202675e-05 0.0000000000000000e+00  1.4989206550390600e-05 -6.0718962922844924e-04 0.0000000000000000e+00  1.6085642190732669e-06 -7.8728928637338489e-07 0.0000000000000000e+00  2.2091574956238377e-05 -4.7225094114721839e-04 0.0000000000000000e+00  2.0798416143988626e-05 -5.1040351073616027e-04 0.0000000000000000e+00  8.4801573146768002e-06 -1.1852163466088118e-05 0.0000000000000000e+00  1.8232878110704356e-05 -4.4196312026903659e-05 0.0000000000000000e+00  2.4242091766557016e-05 -3.6018271000300031e-04 0.0000000000000000e+00  2.3093110970706424e-05 -4.3441341319429511e-04 0.0000000000000000e+00  2.9138783649334671e-05 -1.2100938135185757e-04 0.0000000000000000e+00  2.4404916871078069e-05 -3.2405998295765551e-04 0.0000000000000000e+00  2.1755425674918099e-05 -6.2827845611396999e-05 0.0000000000000000e+00  3.1465202573086687e-05 -1.4824121929305216e-04 0.0000000000000000e+00  2.4295474520023623e-05 -2.8880100098784608e-04 0.0000000000000000e+00  2.3806757476188946e-05 -3.9701115668425429e-04 0.0000000000000000e+00  3.4730234290925956e-05 -1.7749667126208517e-04 0.0000000000000000e+00  2.3917243246865360e-05 -2.5457731555280478e-04 0.0000000000000000e+00  -7.3131179844441181e-08 -1.4883731495662961e-06 0.0000000000000000e+00  -4.8972531038281470e-07 9.9877792007905530e-07 0.0000000000000000e+00  2.7659945491748063e-05 -6.4231548378056896e-04 0.0000000000000000e+00  4.0905458430787338e-06 -5.4175719637241959e-06 0.0000000000000000e+00 