<?xml version="1.0"?>
<VTKFile type="UnstructuredGrid"  version="0.1"  >
<UnstructuredGrid>
<Piece  NumberOfPoints="1419" NumberOfCells="2698">
<Points>
<DataArray  type="Float64"  NumberOfComponents="3"  format="ascii">0 0 0  0 0.41 0  2.5 0 0  2.5 0.41 0  0.6 0.19 0  0.6 0.21 0  0.25 0.2 0  0.15 0.2 0  0.2489897948556636 0.21 0  0.2489897948556636 0.19 0  0.6 0.2 0  0 0.3807142857143437 0  0 0.3514285714286952 0  0 0.3221428571430699 0  0 0.29285714285744 0  0 0.2635714285718054 0  0 0.2342857142861561 0  0 0.2050000000005308 0  0 0.175714285714732 0  0 0.1464285714289574 0  0 0.1171428571431897 0  0 0.08785714285737878 0  0 0.05857142857161107 0  0 0.02928571428580012 0  0.03015443760436003 0 0  0.06140001986583606 0 0  0.09377624077125973 0 0  0.1273239957535082 0 0  0.1620856860351972 0 0  0.1981052433264291 0 0  0.235428184091502 0 0  0.2741016576309132 0 0  0.3141745521465447 0 0  0.3556974926295285 0 0  0.3987229542472677 0 0  0.4433053055141081 0 0  0.4895008759286886 0 0  0.5373680609405097 0 0  0.5869673343216626 0 0  0.6383613676634521 0 0  0.6916151138468254 0 0  0.7467958595648856 0 0  0.8039733463919316 0 0  0.8632198139502143 0 0  0.9246101326867038 0 0  0.9882218810934433 0 0  1.054135445558498 0 0  1.122434100542598 0 0  1.193204177141305 0 0  1.266535089879536 0 0  1.342519516046404 0 0  1.421253448503939 0 0  1.502836389106271 0 0  1.587371439758838 0 0  1.674965418777374 0 0  1.765729001825544 0 0  1.859776908880082 0 0  1.957227977487062 0 0  2.058205329869943 0 0  2.162836591189951 0 0  2.271253957290865 0 0  2.383594446803425 0 0  2.5 0.1024999999997612 0  2.5 0.2049999999994743 0  2.5 0.3074999999997183 0  2.383594446803656 0.41 0  2.271253957291315 0.41 0  2.162836591190598 0.41 0  2.058205329870775 0.41 0  1.957227977488067 0.41 0  1.859776908881246 0.41 0  1.765729001826854 0.41 0  1.674965418778818 0.41 0  1.58737143976041 0.41 0  1.502836389107956 0.41 0  1.421253448505726 0.41 0  1.342519516048286 0.41 0  1.266535089881505 0.41 0  1.193204177143353 0.41 0  1.122434100544716 0.41 0  1.05413544556068 0.41 0  0.9882218810956305 0.41 0  0.9246101326886647 0.41 0  0.8632198139519631 0.41 0  0.8039733463934788 0.41 0  0.7467958595662458 0.41 0  0.6916151138480078 0.41 0  0.6383613676644679 0.41 0  0.5869673343225223 0.41 0  0.5373680609412221 0.41 0  0.4895008759292634 0.41 0  0.4433053055145528 0.41 0  0.3987229542475914 0.41 0  0.3556974926297398 0.41 0  0.3141745521466497 0.41 0  0.2741016576310038 0.41 0  0.2354281840915826 0.41 0  0.1981052433265003 0.41 0  0.1620856860352591 0.41 0  0.1273239957535623 0.41 0  0.09377624077128965 0.41 0  0.06140001986584975 0.41 0  0.03015443760436654 0.41 0  0.2497468076502589 0.2050254481002335 0  0.2497468076502614 0.1949745518997913 0  0.2469965252529372 0.1829317073451959 0  0.2439893735792749 0.1762316384219906 0  0.2400332147834255 0.1700443375285386 0  0.2352133972704371 0.1645032867342007 0  0.2296339016332438 0.1597280261969788 0  0.2234150974217223 0.1558215752574715 0  0.2166911463437691 0.1528682099456123 0  0.2096071079204251 0.1509316448471593 0  0.2023158100364996 0.1500536585536553 0  0.194974551899914 0.1502531923497262 0  0.1877417105387872 0.1515259415822739 0  0.1807733240461124 0.153844448527136 0  0.1742197252835808 0.15715869474974 0  0.1682222986673531 0.1613971801805478 0  0.162910430003803 0.1664684656256651 0  0.1583987151779087 0.1722631454351573 0  0.1547844879126891 0.178656207771761 0  0.1521457199348551 0.1855097315605723 0  0.1505393388476355 0.1926758619366523 0  0.1505393388476328 0.2073241380633295 0  0.1521457199348437 0.2144902684393899 0  0.1547844879126531 0.221343792228163 0  0.1583987151778488 0.2277368545647528 0  0.1629104300036858 0.2335315343742052 0  0.1682222986671726 0.2386028198193036 0  0.1742197252833576 0.2428413052501257 0  0.1807733240458683 0.2461555514727623 0  0.1877417105384929 0.2484740584176516 0  0.1949745518995776 0.2497468076502398 0  0.202315810036185 0.2499463414463592 0  0.2096071079201568 0.2490683551528932 0  0.2166911463435495 0.2471317900544655 0  0.2234150974215506 0.2441784247426195 0  0.2296339016331197 0.2402719738031125 0  0.2352133972703547 0.2354967132658811 0  0.2400332147833751 0.2299556624715287 0  0.2439893735792577 0.2237683615780412 0  0.246996525252926 0.2170682926548348 0  0.25645809709277 0.21 0  0.2639263993298655 0.21 0  0.271394701566961 0.21 0  0.2788630038040554 0.21 0  0.2863313060411479 0.21 0  0.2937996082782405 0.21 0  0.301267910515333 0.21 0  0.3087362127524279 0.21 0  0.3162045149895234 0.21 0  0.3236728172265972 0.21 0  0.3311411194636928 0.21 0  0.3386094217007701 0.21 0  0.3460777239378666 0.21 0  0.3535460261749672 0.21 0  0.3610143284120516 0.21 0  0.3684826306491596 0.21 0  0.3759509328862226 0.21 0  0.383419235123329 0.21 0  0.3908875373604028 0.21 0  0.3983558395975142 0.21 0  0.4058241418345938 0.21 0  0.4132924440716992 0.21 0  0.4207607463087888 0.21 0  0.4282290485459029 0.21 0  0.4356973507830418 0.21 0  0.4431656530201649 0.21 0  0.4506339552573136 0.21 0  0.4581022574944306 0.21 0  0.4655705597315852 0.21 0  0.4730388619686996 0.21 0  0.480507164205851 0.21 0  0.4879754664429498 0.21 0  0.4954437686800938 0.21 0  0.502912070917267 0.21 0  0.5103803731544119 0.21 0  0.5178486753915261 0.21 0  0.5253169776286404 0.21 0  0.5327852798657868 0.21 0  0.5402535821029386 0.21 0  0.54772188434007 0.21 0  0.5551901865771842 0.21 0  0.5626584888143201 0.21 0  0.5701267910514778 0.21 0  0.5775950932886138 0.21 0  0.5850633955257281 0.21 0  0.5925316977628483 0.21 0  0.6 0.2050000000000054 0  0.6 0.1950000000000217 0  0.5925316977628897 0.19 0  0.5850633955257988 0.19 0  0.5775950932887378 0.19 0  0.5701267910515998 0.19 0  0.5626584888145268 0.19 0  0.5551901865773963 0.19 0  0.547721884340339 0.19 0  0.5402535821032429 0.19 0  0.5327852798661811 0.19 0  0.5253169776290537 0.19 0  0.5178486753919799 0.19 0  0.5103803731549078 0.19 0  0.502912070917822 0.19 0  0.4954437686807294 0.19 0  0.4879754664436223 0.19 0  0.4805071642065402 0.19 0  0.4730388619694271 0.19 0  0.4655705597323621 0.19 0  0.4581022574952563 0.19 0  0.4506339552581777 0.19 0  0.4431656530210671 0.19 0  0.4356973507839815 0.19 0  0.4282290485468779 0.19 0  0.4207607463097617 0.19 0  0.4132924440726327 0.19 0  0.4058241418354857 0.19 0  0.3983558395983636 0.19 0  0.3908875373612097 0.19 0  0.3834192351240934 0.19 0  0.3759509328869369 0.19 0  0.3684826306498175 0.19 0  0.361014328412667 0.19 0  0.3535460261755617 0.19 0  0.3460777239384295 0.19 0  0.3386094217012945 0.19 0  0.3311411194641595 0.19 0  0.3236728172270245 0.19 0  0.3162045149898895 0.19 0  0.3087362127527544 0.19 0  0.3012679105156187 0.19 0  0.2937996082784807 0.19 0  0.2863313060413428 0.19 0  0.2788630038042048 0.19 0  0.2713947015670686 0.19 0  0.2639263993299336 0.19 0  0.2564580970927985 0.19 0  0.2607803159922026 0.2000727136295815 0  0.5887803774232762 0.2001272386983733 0  0.5745072403740523 0.2002044435018727 0  0.5511891430099709 0.2001122610077113 0  0.2751288526855082 0.20000000000002 0  0.5365194309847112 0.1999999999999436 0  0.2894621222999649 0.1998691686390484 0  0.5215828265105155 0.1999999999999228 0  0.3127789816668748 0.1998657885438805 0  0.3274069683451451 0.2000000000000796 0  0.5066462220363641 0.199999999999908 0  0.3650630746574081 0.199866017807523 0  0.476773013087985 0.1999999999998713 0  0.3417402379596385 0.1998691686391011 0  0.3796850840047755 0.200000000000134 0  0.4618364086138087 0.1999999999998546 0  0.4917096175621762 0.1999999999998808 0  0.3946216884789568 0.2000000000001512 0  0.446899804139621 0.1999999999998389 0  0.4089549580935208 0.1998691686391595 0  0.4322718174608562 0.200127451265745 0  0.4201487168029707 0.1999966199048527 0  0.3528922713220932 0.2000185703532356 0  0.5633122436674589 0.1999814296467508 0  0.3006558810093873 0.1999966199048318 0  0.5815926498168407 0.1966545283159175 0  0.2677053789419034 0.1964246479135325 0  0.5290511287476175 0.1970915826863981 0  0.5439877332217911 0.197091582686394 0  0.2825131256993216 0.2035478995978015 0  0.3199386661080599 0.202908417313604 0  0.4842413153250809 0.1970915826863873 0  0.5141145242734466 0.1970915826863843 0  0.3722167817676917 0.2029084173136195 0  0.4693047108508938 0.1970915826863783 0  0.3348752705822316 0.202908417313609 0  0.3871533862418661 0.2029084173136212 0  0.4543681063767183 0.1970915826863795 0  0.4991779197992749 0.1970915826863902 0  0.4020059614928624 0.203547899597858 0  0.4394315019025246 0.1970915826863714 0  0.2550657455369551 0.2034088125358657 0  0.2548908499171161 0.1966940311614271 0  0.5946539510196798 0.2024302972968126 0  0.267698176732111 0.2039977513680092 0  0.4261685417851465 0.196409292431739 0  0.3590076176283495 0.196411355804271 0  0.5571672426447437 0.2036011176410121 0  0.3066757059912147 0.1964092924317024 0  0.594380730180568 0.1966558399668133 0  0.4842413153245942 0.2040749161535287 0  0.4693047108503577 0.2040749161535231 0  0.3871533862424271 0.1959250838464788 0  0.372246743208829 0.1959123236376545 0  0.5141145242731028 0.2040749161535395 0  0.4543681063761134 0.2040749161535186 0  0.4019979587101454 0.1959834479682427 0  0.4394608940728603 0.2040870543693135 0  0.5439623148931173 0.2040856076781014 0  0.5290511287473298 0.2040749161535501 0  0.4991779197988497 0.2040749161535382 0  0.3347912413592433 0.1959225448935183 0  0.3199680582793816 0.1959123018030061 0  0.2825051229162361 0.1959834479681729 0  0.3590471196690275 0.2036304442587945 0  0.5571594006495384 0.1963685282145804 0  0.3067669986803285 0.203627750582736 0  0.4262598344738712 0.2036568242185335 0  0.5814408164431408 0.2041285596160068 0  0.5688286748170428 0.1961819304477386 0  0.4145905603063645 0.2038180695522843 0  0.3473758401724931 0.2038180695522752 0  0.2950977245128307 0.2038180695522663 0  0.5688286748170693 0.203818069552238 0  0.2950977245127906 0.1961819304477774 0  0.3473758401723931 0.1961819304478349 0  0.4145905603061963 0.1961819304479011 0  0.2601812407614425 0.2056861609747042
[...]
<PointData  Vectors="f_40-0"> 
<DataArray  type="Float64"  Name="f_40-0"  NumberOfComponents="3" format="ascii">0.0000000000000000e+00 0.0000000000000000e+00 0.0000000000000000e+00  0.0000000000000000e+00 0.0000000000000000e+00 0.0000000000000000e+00  0.0000000000000000e+00 0.0000000000000000e+00 0.0000000000000000e+00  0.0000000000000000e+00 0.0000000000000000e+00 0.0000000000000000e+00  -1.5859338522278397e-05 -2.0351125233364226e-04 0.0000000000000000e+00  1.9005289379908879e-07 -2.0960110508231716e-04 0.0000000000000000e+00  0.0000000000000000e+00 0.0000000000000000e+00 0.0000000000000000e+00  0.0000000000000000e+00 0.0000000000000000e+00 0.0000000000000000e+00  0.0000000000000000e+00 0.0000000000000000e+00 0.0000000000000000e+00  0.0000000000000000e+00 0.0000000000000000e+00 0.0000000000000000e+00  -8.3782209103438017e-06 -2.0656101823504416e-04 0.0000000000000000e+00  3.0990390321184228e-02 0.0000000000000000e+00 0.0000000000000000e+00  5.7213028285266990e-02 0.0000000000000000e+00 0.0000000000000000e+00  7.8667913892242120e-02 0.0000000000000000e+00 0.0000000000000000e+00  9.5355047142134469e-02 0.0000000000000000e+00 0.0000000000000000e+00  1.0727442803494187e-01 0.0000000000000000e+00 0.0000000000000000e+00  1.1442605657066363e-01 0.0000000000000000e+00 0.0000000000000000e+00  1.1680993274929252e-01 0.0000000000000000e+00 0.0000000000000000e+00  1.1442605657080820e-01 0.0000000000000000e+00 0.0000000000000000e+00  1.0727442803519023e-01 0.0000000000000000e+00 0.0000000000000000e+00  9.5355047142442056e-02 0.0000000000000000e+00 0.0000000000000000e+00  7.8667913892534316e-02 0.0000000000000000e+00 0.0000000000000000e+00  5.7213028285516325e-02 0.0000000000000000e+00 0.0000000000000000e+00  3.0990390321324720e-02 0.0000000000000000e+00 0.0000000000000000e+00  0.0000000000000000e+00 0.0000000000000000e+00 0.0000000000000000e+00  0.0000000000000000e+00 0.0000000000000000e+00 0.0000000000000000e+00  0.0000000000000000e+00 0.0000000000000000e+00 0.0000000000000000e+00  0.0000000000000000e+00 0.0000000000000000e+00 0.0000000000000000e+00  0.0000000000000000e+00 0.0000000000000000e+00 0.0000000000000000e+00  0.0000000000000000e+00 0.0000000000000000e+00 0.0000000000000000e+00  0.0000000000000000e+00 0.0000000000000000e+00 0.0000000000000000e+00  0.0000000000000000e+00 0.0000000000000000e+00 0.0000000000000000e+00  0.0000000000000000e+00 0.0000000000000000e+00 0.0000000000000000e+00  0.0000000000000000e+00 0.0000000000000000e+00 0.0000000000000000e+00  0.0000000000000000e+00 0.0000000000000000e+00 0.0000000000000000e+00  0.0000000000000000e+00 0.0000000000000000e+00 0.0000000000000000e+00  0.0000000000000000e+00 0.0000000000000000e+00 0.0000000000000000e+00  0.0000000000000000e+00 0.0000000000000000e+00 0.0000000000000000e+00  0.0000000000000000e+00 0.0000000000000000e+00 0.0000000000000000e+00  0.0000000000000000e+00 0.0000000000000000e+00 0.0000000000000000e+00  0.0000000000000000e+00 0.0000000000000000e+00 0.0000000000000000e+00  0.0000000000000000e+00 0.0000000000000000e+00 0.0000000000000000e+00  0.0000000000000000e+00 0.0000000000000000e+00 0.0000000000000000e+00  0.0000000000000000e+00 0.0000000000000000e+00 0.0000000000000000e+00  0.0000000000000000e+00 0.0000000000000000e+00 0.0000000000000000e+00  0.0000000000000000e+00 0.0000000000000000e+00 0.0000000000000000e+00  0.0000000000000000e+00 0.0000000000000000e+00 0.0000000000000000e+00  0.0000000000000000e+00 0.0000000000000000e+00 0.0000000000000000e+00  0.0000000000000000e+00 0.0000000000000000e+00 0.0000000000000000e+00  0.0000000000000000e+00 0.0000000000000000e+00 0.0000000000000000e+00  0.0000000000000000e+00 0.0000000000000000e+00 0.0000000000000000e+00  0.0000000000000000e+00 0.0000000000000000e+00 0.0000000000000000e+00  0.0000000000000000e+00 0.0000000000000000e+00 0.0000000000000000e+00  0.0000000000000000e+00 0.0000000000000000e+00 0.0000000000000000e+00  0.0000000000000000e+00 0.0000000000000000e+00 0.0000000000000000e+00  0.0000000000000000e+00 0.0000000000000000e+00 0.0000000000000000e+00  0.0000000000000000e+00 0.0000000000000000e+00 0.0000000000000000e+00  0.0000000000000000e+00 0.0000000000000000e+00 0.0000000000000000e+00  0.0000000000000000e+00 0.0000000000000000e+00 0.0000000000000000e+00  0.0000000000000000e+00 0.0000000000000000e+00 0.0000000000000000e+00  0.0000000000000000e+00 0.0000000000000000e+00 0.0000000000000000e+00  0.0000000000000000e+00 0.0000000000000000e+00 0.0000000000000000e+00  1.1140804869894613e-01 4.8192873623852245e-03 0.0000000000000000e+00  7.8903875221556383e-02 -9.7261703528931092e-04 0.0000000000000000e+00  1.1246271453744126e-01 -5.2354442539568969e-03 0.0000000000000000e+00  0.0000000000000000e+00 0.0000000000000000e+00 0.0000000000000000e+00  0.0000000000000000e+00 0.0000000000000000e+00 0.0000000000000000e+00  0.0000000000000000e+00 0.0000000000000000e+00 0.0000000000000000e+00  0.0000000000000000e+00 0.0000000000000000e+00 0.0000000000000000e+00  0.0000000000000000e+00 0.0000000000000000e+00 0.0000000000000000e+00  0.0000000000000000e+00 0.0000000000000000e+00 0.0000000000000000e+00  0.0000000000000000e+00 0.0000000000000000e+00 0.0000000000000000e+00  0.0000000000000000e+00 0.0000000000000000e+00 0.0000000000000000e+00  0.0000000000000000e+00 0.0000000000000000e+00 0.0000000000000000e+00  0.0000000000000000e+00 0.0000000000000000e+00 0.0000000000000000e+00  0.0000000000000000e+00 0.0000000000000000e+00 0.0000000000000000e+00  0.0000000000000000e+00 0.0000000000000000e+00 0.0000000000000000e+00  0.0000000000000000e+00 0.0000000000000000e+00 0.0000000000000000e+00  0.0000000000000000e+00 0.0000000000000000e+00 0.0000000000000000e+00  0.0000000000000000e+00 0.0000000000000000e+00 0.0000000000000000e+00  0.0000000000000000e+00 0.0000000000000000e+00 0.0000000000000000e+00  0.0000000000000000e+00 0.0000000000000000e+00 0.0000000000000000e+00  0.0000000000000000e+00 0.0000000000000000e+00 0.0000000000000000e+00  0.0000000000000000e+00 0.0000000000000000e+00 0.0000000000000000e+00  0.0000000000000000e+00 0.0000000000000000e+00 0.0000000000000000e+00  0.0000000000000000e+00 0.0000000000000000e+00 0.0000000000000000e+00  0.0000000000000000e+00 0.0000000000000000e+00 0.0000000000000000e+00  0.0000000000000000e+00 0.0000000000000000e+00 0.0000000000000000e+00  0.0000000000000000e+00 0.0000000000000000e+00 0.0000000000000000e+00  0.0000000000000000e+00 0.0000000000000000e+00 0.0000000000000000e+00  0.0000000000000000e+00 0.0000000000000000e+00 0.0000000000000000e+00  0.0000000000000000e+00 0.0000000000000000e+00 0.0000000000000000e+00  0.0000000000000000e+00 0.0000000000000000e+00 0.0000000000000000e+00  0.0000000000000000e+00 0.0000000000000000e+00 0.0000000000000000e+00  0.0000000000000000e+00 0.0000000000000000e+00 0.0000000000000000e+00  0.0000000000000000e+00 0.0000000000000000e+00 0.0000000000000000e+00  0.0000000000000000e+00 0.0000000000000000e+00 0.0000000000000000e+00  0.0000000000000000e+00 0.0000000000000000e+00 0.0000000000000000e+00  0.0000000000000000e+00 0.0000000000000000e+00 0.0000000000000000e+00  0.0000000000000000e+00 0.0000000000000000e+00 0.0000000000000000e+00  0.0000000000000000e+00 0.0000000000000000e+00 0.0000000000000000e+00  0.0000000000000000e+00 0.0000000000000000e+00 0.0000000000000000e+00  0.0000000000000000e+00 0.0000000000000000e+00 0.0000000000000000e+00  0.0000000000000000e+00 0.0000000000000000e+00 0.0000000000000000e+00  0.0000000000000000e+00 0.0000000000000000e+00 0.0000000000000000e+00  0.0000000000000000e+00 0.0000000000000000e+00 0.0000000000000000e+00  0.0000000000000000e+00 0.0000000000000000e+00 0.0000000000000000e+00  0.0000000000000000e+00 0.0000000000000000e+00 0.0000000000000000e+00  0.0000000000000000e+00 0.0000000000000000e+00 0.0000000000000000e+00  0.0000000000000000e+00 0.0000000000000000e+00 0.0000000000000000e+00  0.0000000000000000e+00 0.0000000000000000e+00 0.0000000000000000e+00  0.0000000000000000e+00 0.0000000000000000e+00 0.0000000000000000e+00  0.0000000000000000e+00 0.0000000000000000e+00 0.0000000000000000e+00  0.0000000000000000e+00 0.0000000000000000e+00 0.0000000000000000e+00  0.0000000000000000e+00 0.0000000000000000e+00 0.0000000000000000e+00  0.0000000000000000e+00 0.0000000000000000e+00 0.0000000000000000e+00  0.0000000000000000e+00 0.0000000000000000e+00 0.0000000000000000e+00  0.0000000000000000e+00 0.0000000000000000e+00 0.0000000000000000e+00  0.0000000000000000e+00 0.0000000000000000e+00 0.0000000000000000e+00  0.0000000000000000e+00 0.0000000000000000e+00 0.0000000000000000e+00  0.0000000000000000e+00 0.0000000000000000e+00 0.0000000000000000e+00  0.0000000000000000e+00 0.0000000000000000e+00 0.0000000000000000e+00  0.0000000000000000e+00 0.0000000000000000e+00 0.0000000000000000e+00  0.0000000000000000e+00 0.0000000000000000e+00 0.0000000000000000e+00  0.0000000000000000e+00 0.0000000000000000e+00 0.0000000000000000e+00  0.0000000000000000e+00 0.0000000000000000e+00 0.0000000000000000e+00  0.0000000000000000e+00 0.0000000000000000e+00 0.0000000000000000e+00  0.0000000000000000e+00 0.0000000000000000e+00 0.0000000000000000e+00  0.0000000000000000e+00 0.0000000000000000e+00 0.0000000000000000e+00  0.0000000000000000e+00 0.0000000000000000e+00 0.0000000000000000e+00  0.0000000000000000e+00 0.0000000000000000e+00 0.0000000000000000e+00  0.0000000000000000e+00 0.0000000000000000e+00 0.0000000000000000e+00  0.0000000000000000e+00 0.0000000000000000e+00 0.0000000000000000e+00  0.0000000000000000e+00 0.0000000000000000e+00 0.0000000000000000e+00  0.0000000000000000e+00 0.0000000000000000e+00 0.0000000000000000e+00  0.0000000000000000e+00 0.0000000000000000e+00 0.0000000000000000e+00  0.0000000000000000e+00 0.0000000000000000e+00 0.0000000000000000e+00  0.0000000000000000e+00 0.0000000000000000e+00 0.0000000000000000e+00  0.0000000000000000e+00 0.0000000000000000e+00 0.0000000000000000e+00  0.0000000000000000e+00 0.0000000000000000e+00 0.0000000000000000e+00  0.0000000000000000e+00 0.0000000000000000e+00 0.0000000000000000e+00  0.0000000000000000e+00 0.0000000000000000e+00 0.0000000000000000e+00  0.0000000000000000e+00 0.0000000000000000e+00 0.0000000000000000e+00  7.9366322070609896e-07 -5.8096188398001730e-06 0.0000000000000000e+00  1.8308560898817304e-06 -6.7244960714253236e-06 0.0000000000000000e+00  3.0987645913238621e-06 -7.6469429584428532e-06 0.0000000000000000e+00  4.5224886957709589e-06 -8.7403358943233429e-06 0.0000000000000000e+00  5.8897495730139623e-06 -1.0114474846766627e-05 0.0000000000000000e+00  7.2513758243431637e-06 -1.1859379121122851e-05 0.0000000000000000e+00  8.4849923987971137e-06 -1.3832316876446734e-05 0.0000000000000000e+00  9.6413177812588519e-06 -1.6117964459991266e-05 0.0000000000000000e+00  1.0807273310309140e-05 -1.8644477260019583e-05 0.0000000000000000e+00  1.1810175462440805e-05 -2.1398656139991404e-05 0.0000000000000000e+00  1.2824470786911015e-05 -2.4423626313704041e-05 0.0000000000000000e+00  1.3684134194520074e-05 -2.7637271885909470e-05 0.0000000000000000e+00  1.4526048352034493e-05 -3.1080392837689584e-05 0.0000000000000000e+00  1.5252468898475373e-05 -3.4699195835797517e-05 0.0000000000000000e+00  1.5898469894593446e-05 -3.8517875760622648e-05 0.0000000000000000e+00  1.6530802248083743e-05 -4.2512741245129264e-05 0.0000000000000000e+00  1.7024999144690183e-05 -4.6637554615408315e-05 0.0000000000000000e+00  1.7498289395800375e-05 -5.0961752538285039e-05 0.0000000000000000e+00  1.7846092620358826e-05 -5.5380710484906973e-05 0.0000000000000000e+00  1.8168460887989783e-05 -5.9973548463767339e-05 0.0000000000000000e+00  1.8381924188034480e-05 -6.4649936928943037e-05 0.0000000000000000e+00  1.8541259859368240e-05 -6.9471210883948406e-05 0.0000000000000000e+00  1.8619080558501112e-05 -7.4383958591205636e-05 0.0000000000000000e+00  1.8619460463598006e-05 -7.9398392036182503e-05 0.0000000000000000e+00  1.8585884213728782e-05 -8.4513948151679561e-05 0.0000000000000000e+00  1.8455098287717546e-05 -8.9685591523057661e-05 0.0000000000000000e+00  1.8256770683851124e-05 -9.4985058606729983e-05 0.0000000000000000e+00  1.7986240123566996e-05 -1.0030848278463303e-04 0.0000000000000000e+00  1.7648286169576064e-05 -1.0574096276635972e-04 0.0000000000000000e+00  1.7238770535672136e-05 -1.1119598215392340e-04 0.0000000000000000e+00  1.6765125335936277e-05 -1.1674232273873506e-04 0.0000000000000000e+00  1.6216263690196874e-05 -1.2229960538432937e-04 0.0000000000000000e+00  1.5608412634691349e-05 -1.2794177388839013e-04 0.0000000000000000e+00  1.4923651254611175e-05 -1.3357803787702265e-04 0.0000000000000000e+00  1.4170163556487325e-05 -1.3929876527333580e-04 0.0000000000000000e+00  1.3349454557610877e-05 -1.4500843104132066e-04 0.0000000000000000e+00  1.2464616474540469e-05 -1.5078547153922511e-04 0.0000000000000000e+00  1.1510310056227641e-05 -1.5654818415963972e-04 0.0000000000000000e+00  1.0488439020638284e-05 -1.6237037652526055e-04 0.0000000000000000e+00  9.3932834006534015e-06 -1.6817484290317461e-04 0.0000000000000000e+00  8.2254593972369264e-06 -1.7401855953953887e-04 0.0000000000000000e+00  6.9987391725679312e-06 -1.7985850204092863e-04 0.0000000000000000e+00  5.6933199597846679e-06 -1.8572008267482321e-04 0.0000000000000000e+00  4.3485787696400305e-06 -1.9158208482436976e-04 0.0000000000000000e+00  2.9247005826758767e-06 -1.9742787181039779e-04 0.0000000000000000e+00  1.4914100434490731e-06 -2.0335073173451067e-04 0.0000000000000000e+00  -4.2812861826006150e-06 -2.0806486022614885e-04 0.0000000000000000e+00  -1.2274529540675701e-05 -2.0505820897521150e-04 0.0000000000000000e+00  -1.4517611920545402e-05 -1.9780849019324244e-04 0.0000000000000000e+00  -1.3053427857844606e-05 -1.9177123435945296e-04 0.0000000000000000e+00  -1.1599210257198200e-05 -1.8569882034789496e-04 0.0000000000000000e+00  -1.0219003091999198e-05 -1.7966301042900276e-04 0.0000000000000000e+00  -8.8807462608910575e-06 -1.7363915589797992e-04 0.0000000000000000e+00  -7.6220329728149048e-06 -1.6763081349964673e-04 0.0000000000000000e+00  -6.4093635000091066e-06 -1.6164287858335438e-04 0.0000000000000000e+00  -5.2730705828958709e-06 -1.5565374463545826e-04 0.0000000000000000e+00  -4.1891783555138144e-06 -1.4971580171217606e-04 0.0000000000000000e+00  -3.1741615279812334e-06 -1.4376402260412566e-04 0.0000000000000000e+00  -2.2096973278640989e-06 -1.3787213318468947e-04 0.0000000000000000e+00  -1.3143666152653250e-06 -1.3197431217567217e-04 0.0000000000000000e+00  -4.6546459004357965e-07 -1.2614372243638592e-04 0.0000000000000000e+00  3.1435228623925212e-07 -1.2031534285156661e-04 0.0000000000000000e+00  1.0517266585218093e-06 -1.1456298036684256e-04 0.0000000000000000e+00  1.7178288393271370e-06 -1.0882157933820387e-04 0.0000000000000000e+00  2.3460254746121701e-06 -1.0316237756681913e-04 0.0000000000000000e+00  2.8992939930982766e-06 -9.7523483791552251e-05 0.0000000000000000e+00  3.4190296603373328e-06 -9.1980882550375781e-05 0.0000000000000000e+00  3.8629836579570520e-06 -8.6471999724583546e-05 0.0000000000000000e+00  4.2799385051287335e-06 -8.1069940017242952e-05 0.0000000000000000e+00  4.6166816243863440e-06 -7.5715517027177815e-05 0.0000000000000000e+00  4.9209922086463129e-06 -7.0467627756951037e-05 0.0000000000000000e+00  5.1615234885276381e-06 -6.5298928362377706e-05 0.0000000000000000e+00  5.3369755776350610e-06 -6.0244354851066812e-05 0.0000000000000000e+00  5.5057015277698418e-06 -5.5286766448049009e-05 0.0000000000000000e+00  5.5934567815982396e-06 -5.0433061384231929e-05 0.0000000000000000e+00  5.6475474536796650e-06 -4.5736106101494009e-05 0.0000000000000000e+00  5.6373515863206654e-06 -4.1132896795592267e-05 0.0000000000000000e+00  5.5921216898729695e-06 -3.6709772036292050e-05 0.0000000000000000e+00  5.4839136887765215e-06 -3.2394772812007546e-05 0.0000000000000000e+00  5.3539265993606126e-06 -2.8290782685329409e-05 0.0000000000000000e+00  5.1531775393460697e-06 -2.4315496884690128e-05 0.0000000000000000e+00  4.8954807720642569e-06 -2.0566659469752423e-05 0.0000000000000000e+00  4.6537724205965760e-06 -1.6972246246118578e-05 0.0000000000000000e+00  4.3286045030833585e-06 -1.3601508265309922e-05 0.0000000000000000e+00  3.9818215297577135e-06 -1.0473111946669743e-05 0.0000000000000000e+00  3.5697655253413664e-06 -7.5488635769589411e-06 0.0000000000000000e+00  3.1576688688536877e-06 -4.9145992719120952e-06 0.0000000000000000e+00  2.6595919903647983e-06 -2.4942338802467236e-06 0.0000000000000000e+00  2.1081658004938935e-06 -3.9327083576224075e-07 0.0000000000000000e+00  1.6042030425996642e-06 1.4670549586242804e-06 0.0000000000000000e+00  1.0025862167469530e-06 3.0505526827387886e-06 0.0000000000000000e+00  4.9798121533543434e-07 4.2939693093562361e-06 0.0000000000000000e+00  4.9506092760268533e-08 5.0347748767932408e-06 0.0000000000000000e+00  -5.9258567190773524e-08 5.1103812591886267e-06 0.0000000000000000e+00  -3.5947561839289377e-07 -3.8907413579914456e-07 0.0000000000000000e+00  -5.8707583661476562e-06 -1.9760077752995983e-04 0.0000000000000000e+00  -2.9475663523457735e-06 -1.8622972379382546e-04 0.0000000000000000e+00  9.8153499404750175e-07 -1.6767898854003704e-04 0.0000000000000000e+00  2.2163111932212239e-06 -2.0142433573388773e-06 0.0000000000000000e+00  3.0745735949258056e-06 -1.5605512855061096e-04 0.0000000000000000e+00  4.0847124584924625e-06 -4.7664135915266280e-06 0.0000000000000000e+00  5.0497524774546591e-06 -1.4433603661899550e-04 0.0000000000000000e+00  6.7373628811311652e-06 -1.1638923953044824e-05 0.0000000000000000e+00  8.1839921338347358e-06 -1.7298293569505517e-05 0.0000000000000000e+00  6.7707593122396496e-06 -1.3272285405645904e-04 0.0000000000000000e+00  1.0715770331582202e-05 -3.5398877696333346e-05 0.0000000000000000e+00  9.4595987740473077e-06 -1.0993894545070021e-04 0.0000000000000000e+00  9.2967811895658925e-06 -2.3545276192850860e-05 0.0000000000000000e+00  1.1383172818214257e-05 -4.3746477426321612e-05 0.0000000000000000e+00  1.0431418188130348e-05 -9.8839487868847229e-05 0.0000000000000000e+00  8.2402408560899018e-06 -1.2124534459342862e-04 0.0000000000000000e+00  1.1760935240211739e-05 -5.2778951292067074e-05 0.0000000000000000e+00  1.1155844153502483e-05 -8.7994997641995353e-05 0.0000000000000000e+00  1.1815715017912823e-05 -6.1865640930242912e-05 0.0000000000000000e+00  1.1722877901334527e-05 -7.7723583968071979e-05 0.0000000000000000e+00  1.1821380806295999e-05 -6.9378146389505700e-05 0.0000000000000000e+00  1.0099894861045412e-05 -2.9096539700077029e-05 0.0000000000000000e+00  -1.1481920602432588e-06 -1.7725672828614709e-04 0.0000000000000000e+00  5.4357331891383996e-06 -7.8512609069781934e-06 0.0000000000000000e+00  -7.1551449888623512e-06 -1.9087168670684147e-04 0.0000000000000000e+00  6.4775914560526666e-07 1.1894419758050791e-06 0.0000000000000000e+00  1.8161187963766881e-06 -1.4917928593892555e-04 0.0000000000000000e+00  -3.0208147059545543e-07 -1.6098427434868280e-04 0.0000000000000000e+00  3.9000343431229956e-06 -5.4336461238862468e-06 0.0000000000000000e+00  8.5923905057438574e-06 -1.5952851625534205e-05 0.0000000000000000e+00  6.6848839662185377e-06 -1.1443502548596711e-04 0.0000000000000000e+00  3.6851244593160801e-06 -1.3746608693712684e-04 0.0000000000000000e+00  1.2741926694856397e-05 -4.0913135019468810e-05 0.0000000000000000e+00  7.8221849705868098e-06 -1.0318406513410650e-04 0.0000000000000000e+00  1.0088179262313695e-05 -2.2073503554177123e-05 0.0000000000000000e+00  1.3348938084840683e-05 -4.9624612569861614e-05 0.0000000000000000e+00  8.7196215896705339e-06 -9.2163932786043330e-05 0.0000000000000000e+00  5.3067278276721518e-06 -1.2587307693596376e-04 0.0000000000000000e+00  1.4113624305002165e-05 -5.9130189170413910e-05 0.0000000000000000e+00  9.3807866407336634e-06 -8.1424280273417645e-05 0.0000000000000000e+00  -7.4802982889738828e-07 -1.3968157331445594e-06 0.0000000000000000e+00  -8.7944840485996739e-07 1.1267069020285003e-06 0.0000000000000000e+00  -5.2817546054574134e-06 -2.0294545259129347e-04 0.0000000000000000e+00  1.5072969149414407e-06 -3.5233663269852281e-06 0.000000