<?xml version="1.0"?>
<VTKFile type="UnstructuredGrid"  version="0.1"  >
<UnstructuredGrid>
<Piece  NumberOfPoints="1419" NumberOfCells="2698">
<Points>
<DataArray  type="Float64"  NumberOfComponents="3"  format="ascii">0 0 0  0 0.41 0  2.5 0 0  2.5 0.41 0  0.6 0.19 0  0.6 0.21 0  0.25 0.2 0  0.15 0.2 0  0.2489897948556636 0.21 0  0.2489897948556636 0.19 0  0.6 0.2 0  0 0.3807142857143437 0  0 0.3514285714286952 0  0 0.3221428571430699 0  0 0.29285714285744 0  0 0.2635714285718054 0  0 0.2342857142861561 0  0 0.2050000000005308 0  0 0.175714285714732 0  0 0.1464285714289574 0  0 0.1171428571431897 0  0 0.08785714285737878 0  0 0.05857142857161107 0  0 0.02928571428580012 0  0.03015443760436003 0 0  0.06140001986583606 0 0  0.09377624077125973 0 0  0.1273239957535082 0 0  0.1620856860351972 0 0  0.1981052433264291 0 0  0.235428184091502 0 0  0.2741016576309132 0 0  0.3141745521465447 0 0  0.3556974926295285 0 0  0.3987229542472677 0 0  0.4433053055141081 0 0  0.4895008759286886 0 0  0.5373680609405097 0 0  0.5869673343216626 0 0  0.6383613676634521 0 0  0.6916151138468254 0 0  0.7467958595648856 0 0  0.8039733463919316 0 0  0.8632198139502143 0 0  0.9246101326867038 0 0  0.9882218810934433 0 0  1.054135445558498 0 0  1.122434100542598 0 0  1.193204177141305 0 0  1.266535089879536 0 0  1.342519516046404 0 0  1.421253448503939 0 0  1.502836389106271 0 0  1.587371439758838 0 0  1.674965418777374 0 0  1.765729001825544 0 0  1.859776908880082 0 0  1.957227977487062 0 0  2.058205329869943 0 0  2.162836591189951 0 0  2.271253957290865 0 0  2.383594446803425 0 0  2.5 0.1024999999997612 0  2.5 0.2049999999994743 0  2.5 0.3074999999997183 0  2.383594446803656 0.41 0  2.271253957291315 0.41 0  2.162836591190598 0.41 0  2.058205329870775 0.41 0  1.957227977488067 0.41 0  1.859776908881246 0.41 0  1.765729001826854 0.41 0  1.674965418778818 0.41 0  1.58737143976041 0.41 0  1.502836389107956 0.41 0  1.421253448505726 0.41 0  1.342519516048286 0.41 0  1.266535089881505 0.41 0  1.193204177143353 0.41 0  1.122434100544716 0.41 0  1.05413544556068 0.41 0  0.9882218810956305 0.41 0  0.9246101326886647 0.41 0  0.8632198139519631 0.41 0  0.8039733463934788 0.41 0  0.7467958595662458 0.41 0  0.6916151138480078 0.41 0  0.6383613676644679 0.41 0  0.5869673343225223 0.41 0  0.5373680609412221 0.41 0  0.4895008759292634 0.41 0  0.4433053055145528 0.41 0  0.3987229542475914 0.41 0  0.3556974926297398 0.41 0  0.3141745521466497 0.41 0  0.2741016576310038 0.41 0  0.2354281840915826 0.41 0  0.1981052433265003 0.41 0  0.1620856860352591 0.41 0  0.1273239957535623 0.41 0  0.09377624077128965 0.41 0  0.06140001986584975 0.41 0  0.03015443760436654 0.41 0  0.2497468076502589 0.2050254481002335 0  0.2497468076502614 0.1949745518997913 0  0.2469965252529372 0.1829317073451959 0  0.2439893735792749 0.1762316384219906 0  0.2400332147834255 0.1700443375285386 0  0.2352133972704371 0.1645032867342007 0  0.2296339016332438 0.1597280261969788 0  0.2234150974217223 0.1558215752574715 0  0.2166911463437691 0.1528682099456123 0  0.2096071079204251 0.1509316448471593 0  0.2023158100364996 0.1500536585536553 0  0.194974551899914 0.1502531923497262 0  0.1877417105387872 0.1515259415822739 0  0.1807733240461124 0.153844448527136 0  0.1742197252835808 0.15715869474974 0  0.1682222986673531 0.1613971801805478 0  0.162910430003803 0.1664684656256651 0  0.1583987151779087 0.1722631454351573 0  0.1547844879126891 0.178656207771761 0  0.1521457199348551 0.1855097315605723 0  0.1505393388476355 0.1926758619366523 0  0.1505393388476328 0.2073241380633295 0  0.1521457199348437 0.2144902684393899 0  0.1547844879126531 0.221343792228163 0  0.1583987151778488 0.2277368545647528 0  0.1629104300036858 0.2335315343742052 0  0.1682222986671726 0.2386028198193036 0  0.1742197252833576 0.2428413052501257 0  0.1807733240458683 0.2461555514727623 0  0.1877417105384929 0.2484740584176516 0  0.1949745518995776 0.2497468076502398 0  0.202315810036185 0.2499463414463592 0  0.2096071079201568 0.2490683551528932 0  0.2166911463435495 0.2471317900544655 0  0.2234150974215506 0.2441784247426195 0  0.2296339016331197 0.2402719738031125 0  0.2352133972703547 0.2354967132658811 0  0.2400332147833751 0.2299556624715287 0  0.2439893735792577 0.2237683615780412 0  0.246996525252926 0.2170682926548348 0  0.25645809709277 0.21 0  0.2639263993298655 0.21 0  0.271394701566961 0.21 0  0.2788630038040554 0.21 0  0.2863313060411479 0.21 0  0.2937996082782405 0.21 0  0.301267910515333 0.21 0  0.3087362127524279 0.21 0  0.3162045149895234 0.21 0  0.3236728172265972 0.21 0  0.3311411194636928 0.21 0  0.3386094217007701 0.21 0  0.3460777239378666 0.21 0  0.3535460261749672 0.21 0  0.3610143284120516 0.21 0  0.3684826306491596 0.21 0  0.3759509328862226 0.21 0  0.383419235123329 0.21 0  0.3908875373604028 0.21 0  0.3983558395975142 0.21 0  0.4058241418345938 0.21 0  0.4132924440716992 0.21 0  0.4207607463087888 0.21 0  0.4282290485459029 0.21 0  0.4356973507830418 0.21 0  0.4431656530201649 0.21 0  0.4506339552573136 0.21 0  0.4581022574944306 0.21 0  0.4655705597315852 0.21 0  0.4730388619686996 0.21 0  0.480507164205851 0.21 0  0.4879754664429498 0.21 0  0.4954437686800938 0.21 0  0.502912070917267 0.21 0  0.5103803731544119 0.21 0  0.5178486753915261 0.21 0  0.5253169776286404 0.21 0  0.5327852798657868 0.21 0  0.5402535821029386 0.21 0  0.54772188434007 0.21 0  0.5551901865771842 0.21 0  0.5626584888143201 0.21 0  0.5701267910514778 0.21 0  0.5775950932886138 0.21 0  0.5850633955257281 0.21 0  0.5925316977628483 0.21 0  0.6 0.2050000000000054 0  0.6 0.1950000000000217 0  0.5925316977628897 0.19 0  0.5850633955257988 0.19 0  0.5775950932887378 0.19 0  0.5701267910515998 0.19 0  0.5626584888145268 0.19 0  0.5551901865773963 0.19 0  0.547721884340339 0.19 0  0.5402535821032429 0.19 0  0.5327852798661811 0.19 0  0.5253169776290537 0.19 0  0.5178486753919799 0.19 0  0.5103803731549078 0.19 0  0.502912070917822 0.19 0  0.4954437686807294 0.19 0  0.4879754664436223 0.19 0  0.4805071642065402 0.19 0  0.4730388619694271 0.19 0  0.4655705597323621 0.19 0  0.4581022574952563 0.19 0  0.4506339552581777 0.19 0  0.4431656530210671 0.19 0  0.4356973507839815 0.19 0  0.4282290485468779 0.19 0  0.4207607463097617 0.19 0  0.4132924440726327 0.19 0  0.4058241418354857 0.19 0  0.3983558395983636 0.19 0  0.3908875373612097 0.19 0  0.3834192351240934 0.19 0  0.3759509328869369 0.19 0  0.3684826306498175 0.19 0  0.361014328412667 0.19 0  0.3535460261755617 0.19 0  0.3460777239384295 0.19 0  0.3386094217012945 0.19 0  0.3311411194641595 0.19 0  0.3236728172270245 0.19 0  0.3162045149898895 0.19 0  0.3087362127527544 0.19 0  0.3012679105156187 0.19 0  0.2937996082784807 0.19 0  0.2863313060413428 0.19 0  0.2788630038042048 0.19 0  0.2713947015670686 0.19 0  0.2639263993299336 0.19 0  0.2564580970927985 0.19 0  0.2607803159922026 0.2000727136295815 0  0.5887803774232762 0.2001272386983733 0  0.5745072403740523 0.2002044435018727 0  0.5511891430099709 0.2001122610077113 0  0.2751288526855082 0.20000000000002 0  0.5365194309847112 0.1999999999999436 0  0.2894621222999649 0.1998691686390484 0  0.5215828265105155 0.1999999999999228 0  0.3127789816668748 0.1998657885438805 0  0.3274069683451451 0.2000000000000796 0  0.5066462220363641 0.199999999999908 0  0.3650630746574081 0.199866017807523 0  0.476773013087985 0.1999999999998713 0  0.3417402379596385 0.1998691686391011 0  0.3796850840047755 0.200000000000134 0  0.4618364086138087 0.1999999999998546 0  0.4917096175621762 0.1999999999998808 0  0.3946216884789568 0.2000000000001512 0  0.446899804139621 0.1999999999998389 0  0.4089549580935208 0.1998691686391595 0  0.4322718174608562 0.200127451265745 0  0.4201487168029707 0.1999966199048527 0  0.3528922713220932 0.2000185703532356 0  0.5633122436674589 0.1999814296467508 0  0.3006558810093873 0.1999966199048318 0  0.5815926498168407 0.1966545283159175 0  0.2677053789419034 0.1964246479135325 0  0.5290511287476175 0.1970915826863981 0  0.5439877332217911 0.197091582686394 0  0.2825131256993216 0.2035478995978015 0  0.3199386661080599 0.202908417313604 0  0.4842413153250809 0.1970915826863873 0  0.5141145242734466 0.1970915826863843 0  0.3722167817676917 0.2029084173136195 0  0.4693047108508938 0.1970915826863783 0  0.3348752705822316 0.202908417313609 0  0.3871533862418661 0.2029084173136212 0  0.4543681063767183 0.1970915826863795 0  0.4991779197992749 0.1970915826863902 0  0.4020059614928624 0.203547899597858 0  0.4394315019025246 0.1970915826863714 0  0.2550657455369551 0.2034088125358657 0  0.2548908499171161 0.1966940311614271 0  0.5946539510196798 0.2024302972968126 0  0.267698176732111 0.2039977513680092 0  0.4261685417851465 0.196409292431739 0  0.3590076176283495 0.196411355804271 0  0.5571672426447437 0.2036011176410121 0  0.3066757059912147 0.1964092924317024 0  0.594380730180568 0.1966558399668133 0  0.4842413153245942 0.2040749161535287 0  0.4693047108503577 0.2040749161535231 0  0.3871533862424271 0.1959250838464788 0  0.372246743208829 0.1959123236376545 0  0.5141145242731028 0.2040749161535395 0  0.4543681063761134 0.2040749161535186 0  0.4019979587101454 0.1959834479682427 0  0.4394608940728603 0.2040870543693135 0  0.5439623148931173 0.2040856076781014 0  0.5290511287473298 0.2040749161535501 0  0.4991779197988497 0.2040749161535382 0  0.3347912413592433 0.1959225448935183 0  0.3199680582793816 0.1959123018030061 0  0.2825051229162361 0.1959834479681729 0  0.3590471196690275 0.2036304442587945 0  0.5571594006495384 0.1963685282145804 0  0.3067669986803285 0.203627750582736 0  0.4262598344738712 0.2036568242185335 0  0.5814408164431408 0.2041285596160068 0  0.5688286748170428 0.1961819304477386 0  0.4145905603063645 0.2038180695522843 0  0.3473758401724931 0.2038180695522752 0  0.2950977245128307 0.2038180695522663 0  0.5688286748170693 0.203818069552238 0  0.2950977245127906 0.1961819304477774 0  0.3473758401723931 0.1961819304478349 0  0.4145905603061963 0.1961819304479011 0  0.2601812407614425 0.2056861609747042
[...]
<PointData  Vectors="f_40-0"> 
<DataArray  type="Float64"  Name="f_40-0"  NumberOfComponents="3" format="ascii">0.0000000000000000e+00 0.0000000000000000e+00 0.0000000000000000e+00  0.0000000000000000e+00 0.0000000000000000e+00 0.0000000000000000e+00  0.0000000000000000e+00 0.0000000000000000e+00 0.0000000000000000e+00  0.0000000000000000e+00 0.0000000000000000e+00 0.0000000000000000e+00  -2.0805087190877356e-05 -1.2750582193456981e-04 0.0000000000000000e+00  -1.0735229111963440e-05 -1.3364769686103738e-04 0.0000000000000000e+00  0.0000000000000000e+00 0.0000000000000000e+00 0.0000000000000000e+00  0.0000000000000000e+00 0.0000000000000000e+00 0.0000000000000000e+00  0.0000000000000000e+00 0.0000000000000000e+00 0.0000000000000000e+00  0.0000000000000000e+00 0.0000000000000000e+00 0.0000000000000000e+00  -1.6255665422859296e-05 -1.3058161492066352e-04 0.0000000000000000e+00  2.0080822179073560e-02 0.0000000000000000e+00 0.0000000000000000e+00  3.7072287099830563e-02 0.0000000000000000e+00 0.0000000000000000e+00  5.0974394762267033e-02 0.0000000000000000e+00 0.0000000000000000e+00  6.1787145166399056e-02 0.0000000000000000e+00 0.0000000000000000e+00  6.9510538312225242e-02 0.0000000000000000e+00 0.0000000000000000e+00  7.4144574199745128e-02 0.0000000000000000e+00 0.0000000000000000e+00  7.5689252828954057e-02 0.0000000000000000e+00 0.0000000000000000e+00  7.4144574199838817e-02 0.0000000000000000e+00 0.0000000000000000e+00  6.9510538312386169e-02 0.0000000000000000e+00 0.0000000000000000e+00  6.1787145166598369e-02 0.0000000000000000e+00 0.0000000000000000e+00  5.0974394762456368e-02 0.0000000000000000e+00 0.0000000000000000e+00  3.7072287099992121e-02 0.0000000000000000e+00 0.0000000000000000e+00  2.0080822179164591e-02 0.0000000000000000e+00 0.0000000000000000e+00  0.0000000000000000e+00 0.0000000000000000e+00 0.0000000000000000e+00  0.0000000000000000e+00 0.0000000000000000e+00 0.0000000000000000e+00  0.0000000000000000e+00 0.0000000000000000e+00 0.0000000000000000e+00  0.0000000000000000e+00 0.0000000000000000e+00 0.0000000000000000e+00  0.0000000000000000e+00 0.0000000000000000e+00 0.0000000000000000e+00  0.0000000000000000e+00 0.0000000000000000e+00 0.0000000000000000e+00  0.0000000000000000e+00 0.0000000000000000e+00 0.0000000000000000e+00  0.0000000000000000e+00 0.0000000000000000e+00 0.0000000000000000e+00  0.0000000000000000e+00 0.0000000000000000e+00 0.0000000000000000e+00  0.0000000000000000e+00 0.0000000000000000e+00 0.0000000000000000e+00  0.0000000000000000e+00 0.0000000000000000e+00 0.0000000000000000e+00  0.0000000000000000e+00 0.0000000000000000e+00 0.0000000000000000e+00  0.0000000000000000e+00 0.0000000000000000e+00 0.0000000000000000e+00  0.0000000000000000e+00 0.0000000000000000e+00 0.0000000000000000e+00  0.0000000000000000e+00 0.0000000000000000e+00 0.0000000000000000e+00  0.0000000000000000e+00 0.0000000000000000e+00 0.0000000000000000e+00  0.0000000000000000e+00 0.0000000000000000e+00 0.0000000000000000e+00  0.0000000000000000e+00 0.0000000000000000e+00 0.0000000000000000e+00  0.0000000000000000e+00 0.0000000000000000e+00 0.0000000000000000e+00  0.0000000000000000e+00 0.0000000000000000e+00 0.0000000000000000e+00  0.0000000000000000e+00 0.0000000000000000e+00 0.0000000000000000e+00  0.0000000000000000e+00 0.0000000000000000e+00 0.0000000000000000e+00  0.0000000000000000e+00 0.0000000000000000e+00 0.0000000000000000e+00  0.0000000000000000e+00 0.0000000000000000e+00 0.0000000000000000e+00  0.0000000000000000e+00 0.0000000000000000e+00 0.0000000000000000e+00  0.0000000000000000e+00 0.0000000000000000e+00 0.0000000000000000e+00  0.0000000000000000e+00 0.0000000000000000e+00 0.0000000000000000e+00  0.0000000000000000e+00 0.0000000000000000e+00 0.0000000000000000e+00  0.0000000000000000e+00 0.0000000000000000e+00 0.0000000000000000e+00  0.0000000000000000e+00 0.0000000000000000e+00 0.0000000000000000e+00  0.0000000000000000e+00 0.0000000000000000e+00 0.0000000000000000e+00  0.0000000000000000e+00 0.0000000000000000e+00 0.0000000000000000e+00  0.0000000000000000e+00 0.0000000000000000e+00 0.0000000000000000e+00  0.0000000000000000e+00 0.0000000000000000e+00 0.0000000000000000e+00  0.0000000000000000e+00 0.0000000000000000e+00 0.0000000000000000e+00  0.0000000000000000e+00 0.0000000000000000e+00 0.0000000000000000e+00  0.0000000000000000e+00 0.0000000000000000e+00 0.0000000000000000e+00  0.0000000000000000e+00 0.0000000000000000e+00 0.0000000000000000e+00  7.2237364255398617e-02 3.1420368908072122e-03 0.0000000000000000e+00  5.1092461505784739e-02 -5.9366831091333522e-04 0.0000000000000000e+00  7.2808135916862249e-02 -3.6789566735925087e-03 0.0000000000000000e+00  0.0000000000000000e+00 0.0000000000000000e+00 0.0000000000000000e+00  0.0000000000000000e+00 0.0000000000000000e+00 0.0000000000000000e+00  0.0000000000000000e+00 0.0000000000000000e+00 0.0000000000000000e+00  0.0000000000000000e+00 0.0000000000000000e+00 0.0000000000000000e+00  0.0000000000000000e+00 0.0000000000000000e+00 0.0000000000000000e+00  0.0000000000000000e+00 0.0000000000000000e+00 0.0000000000000000e+00  0.0000000000000000e+00 0.0000000000000000e+00 0.0000000000000000e+00  0.0000000000000000e+00 0.0000000000000000e+00 0.0000000000000000e+00  0.0000000000000000e+00 0.0000000000000000e+00 0.0000000000000000e+00  0.0000000000000000e+00 0.0000000000000000e+00 0.0000000000000000e+00  0.0000000000000000e+00 0.0000000000000000e+00 0.0000000000000000e+00  0.0000000000000000e+00 0.0000000000000000e+00 0.0000000000000000e+00  0.0000000000000000e+00 0.0000000000000000e+00 0.0000000000000000e+00  0.0000000000000000e+00 0.0000000000000000e+00 0.0000000000000000e+00  0.0000000000000000e+00 0.0000000000000000e+00 0.0000000000000000e+00  0.0000000000000000e+00 0.0000000000000000e+00 0.0000000000000000e+00  0.0000000000000000e+00 0.0000000000000000e+00 0.0000000000000000e+00  0.0000000000000000e+00 0.0000000000000000e+00 0.0000000000000000e+00  0.0000000000000000e+00 0.0000000000000000e+00 0.0000000000000000e+00  0.0000000000000000e+00 0.0000000000000000e+00 0.0000000000000000e+00  0.0000000000000000e+00 0.0000000000000000e+00 0.0000000000000000e+00  0.0000000000000000e+00 0.0000000000000000e+00 0.0000000000000000e+00  0.0000000000000000e+00 0.0000000000000000e+00 0.0000000000000000e+00  0.0000000000000000e+00 0.0000000000000000e+00 0.0000000000000000e+00  0.0000000000000000e+00 0.0000000000000000e+00 0.0000000000000000e+00  0.0000000000000000e+00 0.0000000000000000e+00 0.0000000000000000e+00  0.0000000000000000e+00 0.0000000000000000e+00 0.0000000000000000e+00  0.0000000000000000e+00 0.0000000000000000e+00 0.0000000000000000e+00  0.0000000000000000e+00 0.0000000000000000e+00 0.0000000000000000e+00  0.0000000000000000e+00 0.0000000000000000e+00 0.0000000000000000e+00  0.0000000000000000e+00 0.0000000000000000e+00 0.0000000000000000e+00  0.0000000000000000e+00 0.0000000000000000e+00 0.0000000000000000e+00  0.0000000000000000e+00 0.0000000000000000e+00 0.0000000000000000e+00  0.0000000000000000e+00 0.0000000000000000e+00 0.0000000000000000e+00  0.0000000000000000e+00 0.0000000000000000e+00 0.0000000000000000e+00  0.0000000000000000e+00 0.0000000000000000e+00 0.0000000000000000e+00  0.0000000000000000e+00 0.0000000000000000e+00 0.0000000000000000e+00  0.0000000000000000e+00 0.0000000000000000e+00 0.0000000000000000e+00  0.0000000000000000e+00 0.0000000000000000e+00 0.0000000000000000e+00  0.0000000000000000e+00 0.0000000000000000e+00 0.0000000000000000e+00  0.0000000000000000e+00 0.0000000000000000e+00 0.0000000000000000e+00  0.0000000000000000e+00 0.0000000000000000e+00 0.0000000000000000e+00  0.0000000000000000e+00 0.0000000000000000e+00 0.0000000000000000e+00  0.0000000000000000e+00 0.0000000000000000e+00 0.0000000000000000e+00  0.0000000000000000e+00 0.0000000000000000e+00 0.0000000000000000e+00  0.0000000000000000e+00 0.0000000000000000e+00 0.0000000000000000e+00  0.0000000000000000e+00 0.0000000000000000e+00 0.0000000000000000e+00  0.0000000000000000e+00 0.0000000000000000e+00 0.0000000000000000e+00  0.0000000000000000e+00 0.0000000000000000e+00 0.0000000000000000e+00  0.0000000000000000e+00 0.0000000000000000e+00 0.0000000000000000e+00  0.0000000000000000e+00 0.0000000000000000e+00 0.0000000000000000e+00  0.0000000000000000e+00 0.0000000000000000e+00 0.0000000000000000e+00  0.0000000000000000e+00 0.0000000000000000e+00 0.0000000000000000e+00  0.0000000000000000e+00 0.0000000000000000e+00 0.0000000000000000e+00  0.0000000000000000e+00 0.0000000000000000e+00 0.0000000000000000e+00  0.0000000000000000e+00 0.0000000000000000e+00 0.0000000000000000e+00  0.0000000000000000e+00 0.0000000000000000e+00 0.0000000000000000e+00  0.0000000000000000e+00 0.0000000000000000e+00 0.0000000000000000e+00  0.0000000000000000e+00 0.0000000000000000e+00 0.0000000000000000e+00  0.0000000000000000e+00 0.0000000000000000e+00 0.0000000000000000e+00  0.0000000000000000e+00 0.0000000000000000e+00 0.0000000000000000e+00  0.0000000000000000e+00 0.0000000000000000e+00 0.0000000000000000e+00  0.0000000000000000e+00 0.0000000000000000e+00 0.0000000000000000e+00  0.0000000000000000e+00 0.0000000000000000e+00 0.0000000000000000e+00  0.0000000000000000e+00 0.0000000000000000e+00 0.0000000000000000e+00  0.0000000000000000e+00 0.0000000000000000e+00 0.0000000000000000e+00  0.0000000000000000e+00 0.0000000000000000e+00 0.0000000000000000e+00  0.0000000000000000e+00 0.0000000000000000e+00 0.0000000000000000e+00  0.0000000000000000e+00 0.0000000000000000e+00 0.0000000000000000e+00  0.0000000000000000e+00 0.0000000000000000e+00 0.0000000000000000e+00  0.0000000000000000e+00 0.0000000000000000e+00 0.0000000000000000e+00  0.0000000000000000e+00 0.0000000000000000e+00 0.0000000000000000e+00  0.0000000000000000e+00 0.0000000000000000e+00 0.0000000000000000e+00  0.0000000000000000e+00 0.0000000000000000e+00 0.0000000000000000e+00  0.0000000000000000e+00 0.0000000000000000e+00 0.0000000000000000e+00  0.0000000000000000e+00 0.0000000000000000e+00 0.0000000000000000e+00  0.0000000000000000e+00 0.0000000000000000e+00 0.0000000000000000e+00  0.0000000000000000e+00 0.0000000000000000e+00 0.0000000000000000e+00  4.3107103107210986e-07 -5.5725153173368311e-06 0.0000000000000000e+00  1.0695012625506129e-06 -6.3103452267702756e-06 0.0000000000000000e+00  1.9431351310190080e-06 -6.9533417532871646e-06 0.0000000000000000e+00  2.9548591052118434e-06 -7.6549261594745857e-06 0.0000000000000000e+00  3.9371723360048524e-06 -8.5392708271716282e-06 0.0000000000000000e+00  4.8964720653145273e-06 -9.6830076917528288e-06 0.0000000000000000e+00  5.7609538002154213e-06 -1.0972965059632052e-05 0.0000000000000000e+00  6.5556038829668033e-06 -1.2465637291452773e-05 0.0000000000000000e+00  7.3434710288939056e-06 -1.4113955815670008e-05 0.0000000000000000e+00  8.0075038990266509e-06 -1.5902578842997271e-05 0.0000000000000000e+00  8.6613095373062606e-06 -1.7870281689666855e-05 0.0000000000000000e+00  9.1991905280401963e-06 -1.9946929180714825e-05 0.0000000000000000e+00  9.7043735515839344e-06 -2.2169733082509780e-05 0.0000000000000000e+00  1.0122921473631325e-05 -2.4501614692623145e-05 0.0000000000000000e+00  1.0468345905355278e-05 -2.6950832739192687e-05 0.0000000000000000e+00  1.0789807921389945e-05 -2.9511413144174297e-05 0.0000000000000000e+00  1.1004804801981302e-05 -3.2137969138833543e-05 0.0000000000000000e+00  1.1185761577790059e-05 -3.4895137379616374e-05 0.0000000000000000e+00  1.1271671752261097e-05 -3.7691500402814666e-05 0.0000000000000000e+00  1.1321921021204941e-05 -4.0602186186904925e-05 0.0000000000000000e+00  1.1286653713064712e-05 -4.3544710236412924e-05 0.0000000000000000e+00  1.1194314395757714e-05 -4.6576239910304211e-05 0.0000000000000000e+00  1.1040260562371446e-05 -4.9659368369236624e-05 0.0000000000000000e+00  1.0816082923474979e-05 -5.2792751409948876e-05 0.0000000000000000e+00  1.0555551065303672e-05 -5.5990667120020010e-05 0.0000000000000000e+00  1.0215044358676281e-05 -5.9204927031040464e-05 0.0000000000000000e+00  9.8120401673091170e-06 -6.2507248837605675e-05 0.0000000000000000e+00  9.3484185172212258e-06 -6.5805891691273917e-05 0.0000000000000000e+00  8.8229629383853721e-06 -6.9178939499578795e-05 0.0000000000000000e+00  8.2368399097859732e-06 -7.2552781901961789e-05 0.0000000000000000e+00  7.5925409070835030e-06 -7.5989538058092188e-05 0.0000000000000000e+00  6.8830559483193451e-06 -7.9421286888217430e-05 0.0000000000000000e+00  6.1206962479048905e-06 -8.2915271974448837e-05 0.0000000000000000e+00  5.2910035688239785e-06 -8.6391876674219269e-05 0.0000000000000000e+00  4.3986538274877989e-06 -8.9934350936333904e-05 0.0000000000000000e+00  3.4475233842969182e-06 -9.3459230227180569e-05 0.0000000000000000e+00  2.4384974502023789e-06 -9.7037961004023049e-05 0.0000000000000000e+00  1.3677864319935850e-06 -1.0059899954191091e-04 0.0000000000000000e+00  2.3559716169401781e-07 -1.0420923182498535e-04 0.0000000000000000e+00  -9.6241981046258604e-07 -1.0780087196261193e-04 0.0000000000000000e+00  -2.2264233698293803e-06 -1.1142536347407884e-04 0.0000000000000000e+00  -3.5431088509911041e-06 -1.1504565514655918e-04 0.0000000000000000e+00  -4.9319434265058251e-06 -1.1868460998495349e-04 0.0000000000000000e+00  -6.3561905760699208e-06 -1.2232385249345530e-04 0.0000000000000000e+00  -7.8513001364068843e-06 -1.2594975834982620e-04 0.0000000000000000e+00  -9.3536303432569222e-06 -1.2964782223169803e-04 0.0000000000000000e+00  -1.3664041850686038e-05 -1.3210051769875738e-04 0.0000000000000000e+00  -1.8669518663562261e-05 -1.2906348981973957e-04 0.0000000000000000e+00  -1.9386321127064000e-05 -1.2401700742112147e-04 0.0000000000000000e+00  -1.7856190619388051e-05 -1.2021758841283382e-04 0.0000000000000000e+00  -1.6333955069766136e-05 -1.1638567032391068e-04 0.0000000000000000e+00  -1.4879050221466228e-05 -1.1258524330056994e-04 0.0000000000000000e+00  -1.3462739414532245e-05 -1.0879520317874419e-04 0.0000000000000000e+00  -1.2120750141957127e-05 -1.0501791276282553e-04 0.0000000000000000e+00  -1.0822335815355323e-05 -1.0125750044683763e-04 0.0000000000000000e+00  -9.5944006368711566e-06 -9.7493960517390664e-05 0.0000000000000000e+00  -8.4172805622244310e-06 -9.3773208989247415e-05 0.0000000000000000e+00  -7.3037046448699100e-06 -9.0035423831019950e-05 0.0000000000000000e+00  -6.2411576206403709e-06 -8.6346848932506218e-05 0.0000000000000000e+00  -5.2419433330119179e-06 -8.2646166766031114e-05 0.0000000000000000e+00  -4.2912932390701983e-06 -7.8998279487197971e-05 0.0000000000000000e+00  -3.4032388655918314e-06 -7.5341691437996752e-05 0.0000000000000000e+00  -2.5616841532376613e-06 -7.1742227480331262e-05 0.0000000000000000e+00  -1.7838220414892809e-06 -6.8137890530295490e-05 0.0000000000000000e+00  -1.0505857565120447e-06 -6.4592432666911434e-05 0.0000000000000000e+00  -3.8306292228007086e-07 -6.1046654027418633e-05 0.0000000000000000e+00  2.4239054430405444e-07 -5.7567844075891958e-05 0.0000000000000000e+00  8.0285826872746937e-07 -5.4095417733703480e-05 0.0000000000000000e+00  1.3251059197236012e-06 -5.0694308924298753e-05 0.0000000000000000e+00  1.7799413183959486e-06 -4.7307186354100086e-05 0.0000000000000000e+00  2.1905130579449337e-06 -4.3985622549048533e-05 0.0000000000000000e+00  2.5482225896153327e-06 -4.0706149215021835e-05 0.0000000000000000e+00  2.8424464672696667e-06 -3.7488574643760816e-05 0.0000000000000000e+00  3.1183687991095663e-06 -3.4328992757930124e-05 0.0000000000000000e+00  3.3233724334027863e-06 -3.1218426986614196e-05 0.0000000000000000e+00  3.4888649085207621e-06 -2.8210441155672346e-05 0.0000000000000000e+00  3.5967016378357675e-06 -2.5240346565072568e-05 0.0000000000000000e+00  3.6642306359402052e-06 -2.2389025767991617e-05 0.0000000000000000e+00  3.6757656981086293e-06 -1.9586669455192479e-05 0.0000000000000000e+00  3.6536813554837973e-06 -1.6919326618440066e-05 0.0000000000000000e+00  3.5770333229324695e-06 -1.4323631197671990e-05 0.0000000000000000e+00  3.4451264224480971e-06 -1.1868421364829757e-05 0.0000000000000000e+00  3.3112551366685286e-06 -9.5071797514271936e-06 0.0000000000000000e+00  3.1073174989602686e-06 -7.2822553168392096e-06 0.0000000000000000e+00  2.8741585033502094e-06 -5.2169399644246266e-06 0.0000000000000000e+00  2.5852670097761572e-06 -3.2734654426392895e-06 0.0000000000000000e+00  2.2803136661416919e-06 -1.5194933327535520e-06 0.0000000000000000e+00  1.9107052342294971e-06 9.7484722585245477e-08 0.0000000000000000e+00  1.4901362312994068e-06 1.5076391905574636e-06 0.0000000000000000e+00  1.0925936117733844e-06 2.7584408934556624e-06 0.0000000000000000e+00  6.1461209366411940e-07 3.8436546486618402e-06 0.0000000000000000e+00  2.1292425004049391e-07 4.6990548687273919e-06 0.0000000000000000e+00  -1.1882057264321513e-07 5.1665672643205059e-06 0.0000000000000000e+00  -1.4535097237812387e-07 5.0885528805575942e-06 0.0000000000000000e+00  -6.9605710069212705e-07 -2.7775939934362508e-07 0.0000000000000000e+00  -1.3710323663793742e-05 -1.2497581287829941e-04 0.0000000000000000e+00  -1.0687185736522455e-05 -1.1786772371417309e-04 0.0000000000000000e+00  -6.4693927579198212e-06 -1.0627013883287026e-04 0.0000000000000000e+00  1.3734282391071345e-06 -1.3542080978941730e-06 0.0000000000000000e+00  -4.1513235033146259e-06 -9.9006579529426069e-05 0.0000000000000000e+00  2.7601290087010754e-06 -3.1628152317462660e-06 0.0000000000000000e+00  -1.9624060261961962e-06 -9.1705459164990782e-05 0.0000000000000000e+00  4.6484693013515932e-06 -7.7127212541297782e-06 0.0000000000000000e+00  5.6186983913306146e-06 -1.1457150141441981e-05 0.0000000000000000e+00  -8.6240164026099520e-09 -8.4476797595267375e-05 0.0000000000000000e+00  7.0715288925761401e-06 -2.3206391421351102e-05 0.0000000000000000e+00  3.2012328169306097e-06 -7.0294193033039207e-05 0.0000000000000000e+00  6.3174187133552468e-06 -1.5517591840424881e-05 0.0000000000000000e+00  7.3167922036604805e-06 -2.8599353921940818e-05 0.0000000000000000e+00  4.4606644531426429e-06 -6.3372802392830391e-05 0.0000000000000000e+00  1.7122305723226652e-06 -7.7334060077924354e-05 0.0000000000000000e+00  7.3071359317698317e-06 -3.4372211577797209e-05 0.0000000000000000e+00  5.4909173630719976e-06 -5.6593710282864207e-05 0.0000000000000000e+00  7.0380460985639989e-06 -4.0123156148734637e-05 0.0000000000000000e+00  6.3409633364636759e-06 -5.0170349817180149e-05 0.0000000000000000e+00  6.7508214476586920e-06 -4.4893363227431977e-05 0.0000000000000000e+00  6.7728643130835213e-06 -1.9152885737844623e-05 0.0000000000000000e+00  -8.6997041444801208e-06 -1.1223449670714407e-04 0.0000000000000000e+00  3.7293083101856593e-06 -5.2324085994463995e-06 0.0000000000000000e+00  -1.3900498885258441e-05 -1.2038090256127121e-04 0.0000000000000000e+00  1.9614310823185773e-07 1.4736611473706112e-06 0.0000000000000000e+00  -4.4470732186767804e-06 -9.4344185892620731e-05 0.0000000000000000e+00  -6.7648762273737140e-06 -1.0171677984120889e-04 0.0000000000000000e+00  2.5727887115732092e-06 -4.2719333484393848e-06 0.0000000000000000e+00  5.8825353804968653e-06 -1.1087181876924207e-05 0.0000000000000000e+00  1.1169971521640755e-06 -7.2674026849449004e-05 0.0000000000000000e+00  -2.3618738609828689e-06 -8.7036154507915331e-05 0.0000000000000000e+00  8.2914939714466807e-06 -2.7272948923011304e-05 0.0000000000000000e+00  2.5151957504506576e-06 -6.5650032388616633e-05 0.0000000000000000e+00  6.8536912147634730e-06 -1.5088768069448420e-05 0.0000000000000000e+00  8.4553474323582444e-06 -3.2846762198888691e-05 0.0000000000000000e+00  3.6873429760937131e-06 -5.8756688016434004e-05 0.0000000000000000e+00  -5.0818440905237951e-07 -7.9807229271170059e-05 0.0000000000000000e+00  8.6527485350853180e-06 -3.8995525175365525e-05 0.0000000000000000e+00  4.6369983144394782e-06 -5.2018535682385198e-05 0.0000000000000000e+00  -9.1770686366169148e-07 -1.3414862496224786e-06 0.0000000000000000e+00  -9.9747345037443199e-07 1.1150179582156180e-06 0.0000000000000000e+00  -1.3851383817553549e-05 -1.2857623380680279e-04 0.0000000000000000e+00  7.7554480475007100e-07 -3.1254850637