<?xml version="1.0"?>
<VTKFile type="UnstructuredGrid"  version="0.1"  >
<UnstructuredGrid>
<Piece  NumberOfPoints="1419" NumberOfCells="2698">
<Points>
<DataArray  type="Float64"  NumberOfComponents="3"  format="ascii">0 0 0  0 0.41 0  2.5 0 0  2.5 0.41 0  0.6 0.19 0  0.6 0.21 0  0.25 0.2 0  0.15 0.2 0  0.2489897948556636 0.21 0  0.2489897948556636 0.19 0  0.6 0.2 0  0 0.3807142857143437 0  0 0.3514285714286952 0  0 0.3221428571430699 0  0 0.29285714285744 0  0 0.2635714285718054 0  0 0.2342857142861561 0  0 0.2050000000005308 0  0 0.175714285714732 0  0 0.1464285714289574 0  0 0.1171428571431897 0  0 0.08785714285737878 0  0 0.05857142857161107 0  0 0.02928571428580012 0  0.03015443760436003 0 0  0.06140001986583606 0 0  0.09377624077125973 0 0  0.1273239957535082 0 0  0.1620856860351972 0 0  0.1981052433264291 0 0  0.235428184091502 0 0  0.2741016576309132 0 0  0.3141745521465447 0 0  0.3556974926295285 0 0  0.3987229542472677 0 0  0.4433053055141081 0 0  0.4895008759286886 0 0  0.5373680609405097 0 0  0.5869673343216626 0 0  0.6383613676634521 0 0  0.6916151138468254 0 0  0.7467958595648856 0 0  0.8039733463919316 0 0  0.8632198139502143 0 0  0.9246101326867038 0 0  0.9882218810934433 0 0  1.054135445558498 0 0  1.122434100542598 0 0  1.193204177141305 0 0  1.266535089879536 0 0  1.342519516046404 0 0  1.421253448503939 0 0  1.502836389106271 0 0  1.587371439758838 0 0  1.674965418777374 0 0  1.765729001825544 0 0  1.859776908880082 0 0  1.957227977487062 0 0  2.058205329869943 0 0  2.162836591189951 0 0  2.271253957290865 0 0  2.383594446803425 0 0  2.5 0.1024999999997612 0  2.5 0.2049999999994743 0  2.5 0.3074999999997183 0  2.383594446803656 0.41 0  2.271253957291315 0.41 0  2.162836591190598 0.41 0  2.058205329870775 0.41 0  1.957227977488067 0.41 0  1.859776908881246 0.41 0  1.765729001826854 0.41 0  1.674965418778818 0.41 0  1.58737143976041 0.41 0  1.502836389107956 0.41 0  1.421253448505726 0.41 0  1.342519516048286 0.41 0  1.266535089881505 0.41 0  1.193204177143353 0.41 0  1.122434100544716 0.41 0  1.05413544556068 0.41 0  0.9882218810956305 0.41 0  0.9246101326886647 0.41 0  0.8632198139519631 0.41 0  0.8039733463934788 0.41 0  0.7467958595662458 0.41 0  0.6916151138480078 0.41 0  0.6383613676644679 0.41 0  0.5869673343225223 0.41 0  0.5373680609412221 0.41 0  0.4895008759292634 0.41 0  0.4433053055145528 0.41 0  0.3987229542475914 0.41 0  0.3556974926297398 0.41 0  0.3141745521466497 0.41 0  0.2741016576310038 0.41 0  0.2354281840915826 0.41 0  0.1981052433265003 0.41 0  0.1620856860352591 0.41 0  0.1273239957535623 0.41 0  0.09377624077128965 0.41 0  0.06140001986584975 0.41 0  0.03015443760436654 0.41 0  0.2497468076502589 0.2050254481002335 0  0.2497468076502614 0.1949745518997913 0  0.2469965252529372 0.1829317073451959 0  0.2439893735792749 0.1762316384219906 0  0.2400332147834255 0.1700443375285386 0  0.2352133972704371 0.1645032867342007 0  0.2296339016332438 0.1597280261969788 0  0.2234150974217223 0.1558215752574715 0  0.2166911463437691 0.1528682099456123 0  0.2096071079204251 0.1509316448471593 0  0.2023158100364996 0.1500536585536553 0  0.194974551899914 0.1502531923497262 0  0.1877417105387872 0.1515259415822739 0  0.1807733240461124 0.153844448527136 0  0.1742197252835808 0.15715869474974 0  0.1682222986673531 0.1613971801805478 0  0.162910430003803 0.1664684656256651 0  0.1583987151779087 0.1722631454351573 0  0.1547844879126891 0.178656207771761 0  0.1521457199348551 0.1855097315605723 0  0.1505393388476355 0.1926758619366523 0  0.1505393388476328 0.2073241380633295 0  0.1521457199348437 0.2144902684393899 0  0.1547844879126531 0.221343792228163 0  0.1583987151778488 0.2277368545647528 0  0.1629104300036858 0.2335315343742052 0  0.1682222986671726 0.2386028198193036 0  0.1742197252833576 0.2428413052501257 0  0.1807733240458683 0.2461555514727623 0  0.1877417105384929 0.2484740584176516 0  0.1949745518995776 0.2497468076502398 0  0.202315810036185 0.2499463414463592 0  0.2096071079201568 0.2490683551528932 0  0.2166911463435495 0.2471317900544655 0  0.2234150974215506 0.2441784247426195 0  0.2296339016331197 0.2402719738031125 0  0.2352133972703547 0.2354967132658811 0  0.2400332147833751 0.2299556624715287 0  0.2439893735792577 0.2237683615780412 0  0.246996525252926 0.2170682926548348 0  0.25645809709277 0.21 0  0.2639263993298655 0.21 0  0.271394701566961 0.21 0  0.2788630038040554 0.21 0  0.2863313060411479 0.21 0  0.2937996082782405 0.21 0  0.301267910515333 0.21 0  0.3087362127524279 0.21 0  0.3162045149895234 0.21 0  0.3236728172265972 0.21 0  0.3311411194636928 0.21 0  0.3386094217007701 0.21 0  0.3460777239378666 0.21 0  0.3535460261749672 0.21 0  0.3610143284120516 0.21 0  0.3684826306491596 0.21 0  0.3759509328862226 0.21 0  0.383419235123329 0.21 0  0.3908875373604028 0.21 0  0.3983558395975142 0.21 0  0.4058241418345938 0.21 0  0.4132924440716992 0.21 0  0.4207607463087888 0.21 0  0.4282290485459029 0.21 0  0.4356973507830418 0.21 0  0.4431656530201649 0.21 0  0.4506339552573136 0.21 0  0.4581022574944306 0.21 0  0.4655705597315852 0.21 0  0.4730388619686996 0.21 0  0.480507164205851 0.21 0  0.4879754664429498 0.21 0  0.4954437686800938 0.21 0  0.502912070917267 0.21 0  0.5103803731544119 0.21 0  0.5178486753915261 0.21 0  0.5253169776286404 0.21 0  0.5327852798657868 0.21 0  0.5402535821029386 0.21 0  0.54772188434007 0.21 0  0.5551901865771842 0.21 0  0.5626584888143201 0.21 0  0.5701267910514778 0.21 0  0.5775950932886138 0.21 0  0.5850633955257281 0.21 0  0.5925316977628483 0.21 0  0.6 0.2050000000000054 0  0.6 0.1950000000000217 0  0.5925316977628897 0.19 0  0.5850633955257988 0.19 0  0.5775950932887378 0.19 0  0.5701267910515998 0.19 0  0.5626584888145268 0.19 0  0.5551901865773963 0.19 0  0.547721884340339 0.19 0  0.5402535821032429 0.19 0  0.5327852798661811 0.19 0  0.5253169776290537 0.19 0  0.5178486753919799 0.19 0  0.5103803731549078 0.19 0  0.502912070917822 0.19 0  0.4954437686807294 0.19 0  0.4879754664436223 0.19 0  0.4805071642065402 0.19 0  0.4730388619694271 0.19 0  0.4655705597323621 0.19 0  0.4581022574952563 0.19 0  0.4506339552581777 0.19 0  0.4431656530210671 0.19 0  0.4356973507839815 0.19 0  0.4282290485468779 0.19 0  0.4207607463097617 0.19 0  0.4132924440726327 0.19 0  0.4058241418354857 0.19 0  0.3983558395983636 0.19 0  0.3908875373612097 0.19 0  0.3834192351240934 0.19 0  0.3759509328869369 0.19 0  0.3684826306498175 0.19 0  0.361014328412667 0.19 0  0.3535460261755617 0.19 0  0.3460777239384295 0.19 0  0.3386094217012945 0.19 0  0.3311411194641595 0.19 0  0.3236728172270245 0.19 0  0.3162045149898895 0.19 0  0.3087362127527544 0.19 0  0.3012679105156187 0.19 0  0.2937996082784807 0.19 0  0.2863313060413428 0.19 0  0.2788630038042048 0.19 0  0.2713947015670686 0.19 0  0.2639263993299336 0.19 0  0.2564580970927985 0.19 0  0.2607803159922026 0.2000727136295815 0  0.5887803774232762 0.2001272386983733 0  0.5745072403740523 0.2002044435018727 0  0.5511891430099709 0.2001122610077113 0  0.2751288526855082 0.20000000000002 0  0.5365194309847112 0.1999999999999436 0  0.2894621222999649 0.1998691686390484 0  0.5215828265105155 0.1999999999999228 0  0.3127789816668748 0.1998657885438805 0  0.3274069683451451 0.2000000000000796 0  0.5066462220363641 0.199999999999908 0  0.3650630746574081 0.199866017807523 0  0.476773013087985 0.1999999999998713 0  0.3417402379596385 0.1998691686391011 0  0.3796850840047755 0.200000000000134 0  0.4618364086138087 0.1999999999998546 0  0.4917096175621762 0.1999999999998808 0  0.3946216884789568 0.2000000000001512 0  0.446899804139621 0.1999999999998389 0  0.4089549580935208 0.1998691686391595 0  0.4322718174608562 0.200127451265745 0  0.4201487168029707 0.1999966199048527 0  0.3528922713220932 0.2000185703532356 0  0.5633122436674589 0.1999814296467508 0  0.3006558810093873 0.1999966199048318 0  0.5815926498168407 0.1966545283159175 0  0.2677053789419034 0.1964246479135325 0  0.5290511287476175 0.1970915826863981 0  0.5439877332217911 0.197091582686394 0  0.2825131256993216 0.2035478995978015 0  0.3199386661080599 0.202908417313604 0  0.4842413153250809 0.1970915826863873 0  0.5141145242734466 0.1970915826863843 0  0.3722167817676917 0.2029084173136195 0  0.4693047108508938 0.1970915826863783 0  0.3348752705822316 0.202908417313609 0  0.3871533862418661 0.2029084173136212 0  0.4543681063767183 0.1970915826863795 0  0.4991779197992749 0.1970915826863902 0  0.4020059614928624 0.203547899597858 0  0.4394315019025246 0.1970915826863714 0  0.2550657455369551 0.2034088125358657 0  0.2548908499171161 0.1966940311614271 0  0.5946539510196798 0.2024302972968126 0  0.267698176732111 0.2039977513680092 0  0.4261685417851465 0.196409292431739 0  0.3590076176283495 0.196411355804271 0  0.5571672426447437 0.2036011176410121 0  0.3066757059912147 0.1964092924317024 0  0.594380730180568 0.1966558399668133 0  0.4842413153245942 0.2040749161535287 0  0.4693047108503577 0.2040749161535231 0  0.3871533862424271 0.1959250838464788 0  0.372246743208829 0.1959123236376545 0  0.5141145242731028 0.2040749161535395 0  0.4543681063761134 0.2040749161535186 0  0.4019979587101454 0.1959834479682427 0  0.4394608940728603 0.2040870543693135 0  0.5439623148931173 0.2040856076781014 0  0.5290511287473298 0.2040749161535501 0  0.4991779197988497 0.2040749161535382 0  0.3347912413592433 0.1959225448935183 0  0.3199680582793816 0.1959123018030061 0  0.2825051229162361 0.1959834479681729 0  0.3590471196690275 0.2036304442587945 0  0.5571594006495384 0.1963685282145804 0  0.3067669986803285 0.203627750582736 0  0.4262598344738712 0.2036568242185335 0  0.5814408164431408 0.2041285596160068 0  0.5688286748170428 0.1961819304477386 0  0.4145905603063645 0.2038180695522843 0  0.3473758401724931 0.2038180695522752 0  0.2950977245128307 0.2038180695522663 0  0.5688286748170693 0.203818069552238 0  0.2950977245127906 0.1961819304477774 0  0.3473758401723931 0.1961819304478349 0  0.4145905603061963 0.1961819304479011 0  0.2601812407614425 0.2056861609747042
[...]
<PointData  Vectors="f_40-0"> 
<DataArray  type="Float64"  Name="f_40-0"  NumberOfComponents="3" format="ascii">0.0000000000000000e+00 0.0000000000000000e+00 0.0000000000000000e+00  0.0000000000000000e+00 0.0000000000000000e+00 0.0000000000000000e+00  0.0000000000000000e+00 0.0000000000000000e+00 0.0000000000000000e+00  0.0000000000000000e+00 0.0000000000000000e+00 0.0000000000000000e+00  -9.3892947451886079e-06 -4.1836605843864491e-04 0.0000000000000000e+00  2.4221751426319633e-05 -4.2403102253103309e-04 0.0000000000000000e+00  0.0000000000000000e+00 0.0000000000000000e+00 0.0000000000000000e+00  0.0000000000000000e+00 0.0000000000000000e+00 0.0000000000000000e+00  0.0000000000000000e+00 0.0000000000000000e+00 0.0000000000000000e+00  0.0000000000000000e+00 0.0000000000000000e+00 0.0000000000000000e+00  6.8182401833636880e-06 -4.2119830487122035e-04 0.0000000000000000e+00  6.1716868315742551e-02 0.0000000000000000e+00 0.0000000000000000e+00  1.1393883381368609e-01 0.0000000000000000e+00 0.0000000000000000e+00  1.5666589649381840e-01 0.0000000000000000e+00 0.0000000000000000e+00  1.8989805635618895e-01 0.0000000000000000e+00 0.0000000000000000e+00  2.1363531340079342e-01 0.0000000000000000e+00 0.0000000000000000e+00  2.2787766762763034e-01 0.0000000000000000e+00 0.0000000000000000e+00  2.3262511903668553e-01 0.0000000000000000e+00 0.0000000000000000e+00  2.2787766762791831e-01 0.0000000000000000e+00 0.0000000000000000e+00  2.1363531340128802e-01 0.0000000000000000e+00 0.0000000000000000e+00  1.8989805635680151e-01 0.0000000000000000e+00 0.0000000000000000e+00  1.5666589649440033e-01 0.0000000000000000e+00 0.0000000000000000e+00  1.1393883381418266e-01 0.0000000000000000e+00 0.0000000000000000e+00  6.1716868316022327e-02 0.0000000000000000e+00 0.0000000000000000e+00  0.0000000000000000e+00 0.0000000000000000e+00 0.0000000000000000e+00  0.0000000000000000e+00 0.0000000000000000e+00 0.0000000000000000e+00  0.0000000000000000e+00 0.0000000000000000e+00 0.0000000000000000e+00  0.0000000000000000e+00 0.0000000000000000e+00 0.0000000000000000e+00  0.0000000000000000e+00 0.0000000000000000e+00 0.0000000000000000e+00  0.0000000000000000e+00 0.0000000000000000e+00 0.0000000000000000e+00  0.0000000000000000e+00 0.0000000000000000e+00 0.0000000000000000e+00  0.0000000000000000e+00 0.0000000000000000e+00 0.0000000000000000e+00  0.0000000000000000e+00 0.0000000000000000e+00 0.0000000000000000e+00  0.0000000000000000e+00 0.0000000000000000e+00 0.0000000000000000e+00  0.0000000000000000e+00 0.0000000000000000e+00 0.0000000000000000e+00  0.0000000000000000e+00 0.0000000000000000e+00 0.0000000000000000e+00  0.0000000000000000e+00 0.0000000000000000e+00 0.0000000000000000e+00  0.0000000000000000e+00 0.0000000000000000e+00 0.0000000000000000e+00  0.0000000000000000e+00 0.0000000000000000e+00 0.0000000000000000e+00  0.0000000000000000e+00 0.0000000000000000e+00 0.0000000000000000e+00  0.0000000000000000e+00 0.0000000000000000e+00 0.0000000000000000e+00  0.0000000000000000e+00 0.0000000000000000e+00 0.0000000000000000e+00  0.0000000000000000e+00 0.0000000000000000e+00 0.0000000000000000e+00  0.0000000000000000e+00 0.0000000000000000e+00 0.0000000000000000e+00  0.0000000000000000e+00 0.0000000000000000e+00 0.0000000000000000e+00  0.0000000000000000e+00 0.0000000000000000e+00 0.0000000000000000e+00  0.0000000000000000e+00 0.0000000000000000e+00 0.0000000000000000e+00  0.0000000000000000e+00 0.0000000000000000e+00 0.0000000000000000e+00  0.0000000000000000e+00 0.0000000000000000e+00 0.0000000000000000e+00  0.0000000000000000e+00 0.0000000000000000e+00 0.0000000000000000e+00  0.0000000000000000e+00 0.0000000000000000e+00 0.0000000000000000e+00  0.0000000000000000e+00 0.0000000000000000e+00 0.0000000000000000e+00  0.0000000000000000e+00 0.0000000000000000e+00 0.0000000000000000e+00  0.0000000000000000e+00 0.0000000000000000e+00 0.0000000000000000e+00  0.0000000000000000e+00 0.0000000000000000e+00 0.0000000000000000e+00  0.0000000000000000e+00 0.0000000000000000e+00 0.0000000000000000e+00  0.0000000000000000e+00 0.0000000000000000e+00 0.0000000000000000e+00  0.0000000000000000e+00 0.0000000000000000e+00 0.0000000000000000e+00  0.0000000000000000e+00 0.0000000000000000e+00 0.0000000000000000e+00  0.0000000000000000e+00 0.0000000000000000e+00 0.0000000000000000e+00  0.0000000000000000e+00 0.0000000000000000e+00 0.0000000000000000e+00  0.0000000000000000e+00 0.0000000000000000e+00 0.0000000000000000e+00  2.2215532128533308e-01 8.9335778987911629e-03 0.0000000000000000e+00  1.5684888324849625e-01 -1.8980165487298927e-03 0.0000000000000000e+00  2.2399901414998327e-01 -8.3322505431982826e-03 0.0000000000000000e+00  0.0000000000000000e+00 0.0000000000000000e+00 0.0000000000000000e+00  0.0000000000000000e+00 0.0000000000000000e+00 0.0000000000000000e+00  0.0000000000000000e+00 0.0000000000000000e+00 0.0000000000000000e+00  0.0000000000000000e+00 0.0000000000000000e+00 0.0000000000000000e+00  0.0000000000000000e+00 0.0000000000000000e+00 0.0000000000000000e+00  0.0000000000000000e+00 0.0000000000000000e+00 0.0000000000000000e+00  0.0000000000000000e+00 0.0000000000000000e+00 0.0000000000000000e+00  0.0000000000000000e+00 0.0000000000000000e+00 0.0000000000000000e+00  0.0000000000000000e+00 0.0000000000000000e+00 0.0000000000000000e+00  0.0000000000000000e+00 0.0000000000000000e+00 0.0000000000000000e+00  0.0000000000000000e+00 0.0000000000000000e+00 0.0000000000000000e+00  0.0000000000000000e+00 0.0000000000000000e+00 0.0000000000000000e+00  0.0000000000000000e+00 0.0000000000000000e+00 0.0000000000000000e+00  0.0000000000000000e+00 0.0000000000000000e+00 0.0000000000000000e+00  0.0000000000000000e+00 0.0000000000000000e+00 0.0000000000000000e+00  0.0000000000000000e+00 0.0000000000000000e+00 0.0000000000000000e+00  0.0000000000000000e+00 0.0000000000000000e+00 0.0000000000000000e+00  0.0000000000000000e+00 0.0000000000000000e+00 0.0000000000000000e+00  0.0000000000000000e+00 0.0000000000000000e+00 0.0000000000000000e+00  0.0000000000000000e+00 0.0000000000000000e+00 0.0000000000000000e+00  0.0000000000000000e+00 0.0000000000000000e+00 0.0000000000000000e+00  0.0000000000000000e+00 0.0000000000000000e+00 0.0000000000000000e+00  0.0000000000000000e+00 0.0000000000000000e+00 0.0000000000000000e+00  0.0000000000000000e+00 0.0000000000000000e+00 0.0000000000000000e+00  0.0000000000000000e+00 0.0000000000000000e+00 0.0000000000000000e+00  0.0000000000000000e+00 0.0000000000000000e+00 0.0000000000000000e+00  0.0000000000000000e+00 0.0000000000000000e+00 0.0000000000000000e+00  0.0000000000000000e+00 0.0000000000000000e+00 0.0000000000000000e+00  0.0000000000000000e+00 0.0000000000000000e+00 0.0000000000000000e+00  0.0000000000000000e+00 0.0000000000000000e+00 0.0000000000000000e+00  0.0000000000000000e+00 0.0000000000000000e+00 0.0000000000000000e+00  0.0000000000000000e+00 0.0000000000000000e+00 0.0000000000000000e+00  0.0000000000000000e+00 0.0000000000000000e+00 0.0000000000000000e+00  0.0000000000000000e+00 0.0000000000000000e+00 0.0000000000000000e+00  0.0000000000000000e+00 0.0000000000000000e+00 0.0000000000000000e+00  0.0000000000000000e+00 0.0000000000000000e+00 0.0000000000000000e+00  0.0000000000000000e+00 0.0000000000000000e+00 0.0000000000000000e+00  0.0000000000000000e+00 0.0000000000000000e+00 0.0000000000000000e+00  0.0000000000000000e+00 0.0000000000000000e+00 0.0000000000000000e+00  0.0000000000000000e+00 0.0000000000000000e+00 0.0000000000000000e+00  0.0000000000000000e+00 0.0000000000000000e+00 0.0000000000000000e+00  0.0000000000000000e+00 0.0000000000000000e+00 0.0000000000000000e+00  0.0000000000000000e+00 0.0000000000000000e+00 0.0000000000000000e+00  0.0000000000000000e+00 0.0000000000000000e+00 0.0000000000000000e+00  0.0000000000000000e+00 0.0000000000000000e+00 0.0000000000000000e+00  0.0000000000000000e+00 0.0000000000000000e+00 0.0000000000000000e+00  0.0000000000000000e+00 0.0000000000000000e+00 0.0000000000000000e+00  0.0000000000000000e+00 0.0000000000000000e+00 0.0000000000000000e+00  0.0000000000000000e+00 0.0000000000000000e+00 0.0000000000000000e+00  0.0000000000000000e+00 0.0000000000000000e+00 0.0000000000000000e+00  0.0000000000000000e+00 0.0000000000000000e+00 0.0000000000000000e+00  0.0000000000000000e+00 0.0000000000000000e+00 0.0000000000000000e+00  0.0000000000000000e+00 0.0000000000000000e+00 0.0000000000000000e+00  0.0000000000000000e+00 0.0000000000000000e+00 0.0000000000000000e+00  0.0000000000000000e+00 0.0000000000000000e+00 0.0000000000000000e+00  0.0000000000000000e+00 0.0000000000000000e+00 0.0000000000000000e+00  0.0000000000000000e+00 0.0000000000000000e+00 0.0000000000000000e+00  0.0000000000000000e+00 0.0000000000000000e+00 0.0000000000000000e+00  0.0000000000000000e+00 0.0000000000000000e+00 0.0000000000000000e+00  0.0000000000000000e+00 0.0000000000000000e+00 0.0000000000000000e+00  0.0000000000000000e+00 0.0000000000000000e+00 0.0000000000000000e+00  0.0000000000000000e+00 0.0000000000000000e+00 0.0000000000000000e+00  0.0000000000000000e+00 0.0000000000000000e+00 0.0000000000000000e+00  0.0000000000000000e+00 0.0000000000000000e+00 0.0000000000000000e+00  0.0000000000000000e+00 0.0000000000000000e+00 0.0000000000000000e+00  0.0000000000000000e+00 0.0000000000000000e+00 0.0000000000000000e+00  0.0000000000000000e+00 0.0000000000000000e+00 0.0000000000000000e+00  0.0000000000000000e+00 0.0000000000000000e+00 0.0000000000000000e+00  0.0000000000000000e+00 0.0000000000000000e+00 0.0000000000000000e+00  0.0000000000000000e+00 0.0000000000000000e+00 0.0000000000000000e+00  0.0000000000000000e+00 0.0000000000000000e+00 0.0000000000000000e+00  0.0000000000000000e+00 0.0000000000000000e+00 0.0000000000000000e+00  0.0000000000000000e+00 0.0000000000000000e+00 0.0000000000000000e+00  0.0000000000000000e+00 0.0000000000000000e+00 0.0000000000000000e+00  0.0000000000000000e+00 0.0000000000000000e+00 0.0000000000000000e+00  0.0000000000000000e+00 0.0000000000000000e+00 0.0000000000000000e+00  0.0000000000000000e+00 0.0000000000000000e+00 0.0000000000000000e+00  0.0000000000000000e+00 0.0000000000000000e+00 0.0000000000000000e+00  1.5325600598730085e-06 -6.1321024582443058e-06 0.0000000000000000e+00  3.3900249741411838e-06 -7.4613474586685657e-06 0.0000000000000000e+00  5.4655213774489846e-06 -9.0834137184793894e-06 0.0000000000000000e+00  7.7519357844757171e-06 -1.1168252619865112e-05 0.0000000000000000e+00  9.9238023399376493e-06 -1.3796985796036642e-05 0.0000000000000000e+00  1.2153971667976433e-05 -1.7084648487699647e-05 0.0000000000000000e+00  1.4177368964827127e-05 -2.0820298554932974e-05 0.0000000000000000e+00  1.6114468078966732e-05 -2.5167873841068917e-05 0.0000000000000000e+00  1.8115339429424290e-05 -2.9990702257167459e-05 0.0000000000000000e+00  1.9853164505444590e-05 -3.5287828440675661e-05 0.0000000000000000e+00  2.1671667791469718e-05 -4.1111074753684660e-05 0.0000000000000000e+00  2.3233144398748000e-05 -4.7355011427448163e-05 0.0000000000000000e+00  2.4828074318406518e-05 -5.4065961623309334e-05 0.0000000000000000e+00  2.6230023415309250e-05 -6.1146339562907022e-05 0.0000000000000000e+00  2.7537551207898614e-05 -6.8669226435945463e-05 0.0000000000000000e+00  2.8867917007059513e-05 -7.6557470985605015e-05 0.0000000000000000e+00  2.9974958290739497e-05 -8.4769641032993791e-05 0.0000000000000000e+00  3.1108035087548448e-05 -9.3381613427960560e-05 0.0000000000000000e+00  3.2031982270115349e-05 -1.0226190146234455e-04 0.0000000000000000e+00  3.2969074920880191e-05 -1.1149132748262458e-04 0.0000000000000000e+00  3.3734403001180901e-05 -1.2096892447004680e-04 0.0000000000000000e+00  3.4464660073545519e-05 -1.3076124306100905e-04 0.0000000000000000e+00  3.5058632641673344e-05 -1.4077015780644315e-04 0.0000000000000000e+00  3.5561019879626090e-05 -1.5104563241906207e-04 0.0000000000000000e+00  3.6045135502492031e-05 -1.6153678079064039e-04 0.0000000000000000e+00  3.6387447534592070e-05 -1.7221989966693707e-04 0.0000000000000000e+00  3.6656817398122003e-05 -1.8315623286347969e-04 0.0000000000000000e+00  3.6825239843291387e-05 -1.9421884270950406e-04 0.0000000000000000e+00  3.6918442452618469e-05 -2.0550447158443501e-04 0.0000000000000000e+00  3.6912892647489856e-05 -2.1689860624449046e-04 0.0000000000000000e+00  3.6833503679855912e-05 -2.2848220081664243e-04 0.0000000000000000e+00  3.6653869850749179e-05 -2.4014632414765157e-04 0.0000000000000000e+00  3.6404189216561269e-05 -2.5197643849485691e-04 0.0000000000000000e+00  3.6053081741016891e-05 -2.6385647163977257e-04 0.0000000000000000e+00  3.5621516104304255e-05 -2.7588869034089199e-04 0.0000000000000000e+00  3.5100636566077336e-05 -2.8794948415172350e-04 0.0000000000000000e+00  3.4502790988649528e-05 -3.0012927359217853e-04 0.0000000000000000e+00  3.3815282686545464e-05 -3.1232115263821279e-04 0.0000000000000000e+00  3.3047490830598222e-05 -3.2461149150070763e-04 0.0000000000000000e+00  3.2187525315955112e-05 -3.3689931641760283e-04 0.0000000000000000e+00  3.1241036391207418e-05 -3.4925272282241817e-04 0.0000000000000000e+00  3.0218804120395702e-05 -3.6161040204324066e-04 0.0000000000000000e+00  2.9102561191582080e-05 -3.7400395902372727e-04 0.0000000000000000e+00  2.7938209405271859e-05 -3.8640282233242833e-04 0.0000000000000000e+00  2.6674325467535083e-05 -3.9878201582534443e-04 0.0000000000000000e+00  2.5384732949686488e-05 -4.1123907371125377e-04 0.0000000000000000e+00  1.5315564300156439e-05 -4.2259603277182867e-04 0.0000000000000000e+00  -1.4569165887162428e-06 -4.1980304681305870e-04 0.0000000000000000e+00  -8.1780213747265553e-06 -4.0607902116518381e-04 0.0000000000000000e+00  -6.8483446929952384e-06 -3.9346842950876602e-04 0.0000000000000000e+00  -5.5415741806046252e-06 -3.8082314857803266e-04 0.0000000000000000e+00  -4.3191786646533315e-06 -3.6822797896751594e-04 0.0000000000000000e+00  -3.1443940031447358e-06 -3.5565175622486307e-04 0.0000000000000000e+00  -2.0557373638156281e-06 -3.4310456041617831e-04 0.0000000000000000e+00  -1.0115616859633731e-06 -3.3059318275449433e-04 0.0000000000000000e+00  -5.4284785711174673e-08 -3.1809786019211051e-04 0.0000000000000000e+00  8.5789289304277117e-07 -3.0568384002883903e-04 0.0000000000000000e+00  1.6894404342699202e-06 -2.9328202721036153e-04 0.0000000000000000e+00  2.4843686059431807e-06 -2.8097977508741596e-04 0.0000000000000000e+00  3.1952468347647096e-06 -2.6870961209971971e-04 0.0000000000000000e+00  3.8785633854404064e-06 -2.5656117013975226e-04 0.0000000000000000e+00  4.4750549433309386e-06 -2.4446909622390605e-04 0.0000000000000000e+00  5.0539687909619007e-06 -2.3252193821565590e-04 0.0000000000000000e+00  5.5390267867897847e-06 -2.2065492111728223e-04 0.0000000000000000e+00  6.0176983652286132e-06 -2.0895311191607561e-04 0.0000000000000000e+00  6.3932736068711332e-06 -1.9735502795831307e-04 0.0000000000000000e+00  6.7712128849096814e-06 -1.8595331284839532e-04 0.0000000000000000e+00  7.0406196354828987e-06 -1.7468650103264830e-04 0.0000000000000000e+00  7.3262329002208263e-06 -1.6364260411262023e-04 0.0000000000000000e+00  7.4929814917812566e-06 -1.5276329191945160e-04 0.0000000000000000e+00  7.6710793377322168e-06 -1.4212172889804006e-04 0.0000000000000000e+00  7.7528921794873265e-06 -1.3167993176964917e-04 0.0000000000000000e+00  7.7690903736004163e-06 -1.2151822539654795e-04 0.0000000000000000e+00  7.8174901299224487e-06 -1.1157463418773416e-04 0.0000000000000000e+00  7.7589942581572227e-06 -1.0190766360367236e-04 0.0000000000000000e+00  7.6889539391874233e-06 -9.2559379084888432e-05 0.0000000000000000e+00  7.5382624772889217e-06 -8.3478776362167712e-05 0.0000000000000000e+00  7.3721865545415510e-06 -7.4759529345250935e-05 0.0000000000000000e+00  7.1262935376866164e-06 -6.6329606655008043e-05 0.0000000000000000e+00  6.8980413734976750e-06 -5.8333401387292922e-05 0.0000000000000000e+00  6.5535993147203415e-06 -5.0635201013640133e-05 0.0000000000000000e+00  6.1502119472638671e-06 -4.3413889254946954e-05 0.0000000000000000e+00  5.8166511372753126e-06 -3.6522947386219367e-05 0.0000000000000000e+00  5.3638710952575424e-06 -3.0108709793194090e-05 0.0000000000000000e+00  4.9134091027887728e-06 -2.4171493283767606e-05 0.0000000000000000e+00  4.3728037141299277e-06 -1.8674140091691886e-05 0.0000000000000000e+00  3.8781834963094904e-06 -1.3747781086120537e-05 0.0000000000000000e+00  3.2397456310028034e-06 -9.2500736546346929e-06 0.0000000000000000e+00  2.5441383598648755e-06 -5.3815991953483542e-06 0.0000000000000000e+00  1.9635581444638428e-06 -1.9759161391951854e-06 0.0000000000000000e+00  1.2454947336764405e-06 8.5049019498879233e-07 0.0000000000000000e+00  6.7996050148997841e-07 3.0505082916030146e-06 0.0000000000000000e+00  1.3245128325626756e-07 4.4588295365986253e-06 0.0000000000000000e+00  -1.1275142227743530e-09 4.9211957784176568e-06 0.0000000000000000e+00  2.7176190510993066e-07 -6.4412275064117456e-07 0.0000000000000000e+00  9.2642942567167981e-06 -4.0238370426763843e-04 0.0000000000000000e+00  1.1969670801724019e-05 -3.7848546556267643e-04 0.0000000000000000e+00  1.5250216237474806e-05 -3.3952567336905439e-04 0.0000000000000000e+00  3.7143987007610971e-06 -3.6224622967963212e-06 0.0000000000000000e+00  1.6839581060464907e-05 -3.1513953679756894e-04 0.0000000000000000e+00  6.4495215850387946e-06 -8.7571641566793092e-06 0.0000000000000000e+00  1.8369268849426506e-05 -2.9053199990855934e-04 0.0000000000000000e+00  1.0525917628368682e-05 -2.1621377886552133e-05 0.0000000000000000e+00  1.2883823000256447e-05 -3.2309255071215511e-05 0.0000000000000000e+00  1.9612292750459353e-05 -2.6618615943613656e-04 0.0000000000000000e+00  1.7437095661400641e-05 -6.7446752544444570e-05 0.0000000000000000e+00  2.1251673235910237e-05 -2.1863986763077202e-04 0.0000000000000000e+00  1.4763231844735353e-05 -4.4373112320771150e-05 0.0000000000000000e+00  1.8928300123213336e-05 -8.3840056215622960e-05 0.0000000000000000e+00  2.1653554489591674e-05 -1.9563137819259951e-04 0.0000000000000000e+00  2.0572288554979704e-05 -2.4219028710925516e-04 0.0000000000000000e+00  2.0045158594328322e-05 -1.0182042640055104e-04 0.0000000000000000e+00  2.1777422940709495e-05 -1.7327882193595562e-04 0.0000000000000000e+00  2.0693350670901818e-05 -1.2013114968716749e-04 0.0000000000000000e+00  2.1821660721298183e-05 -1.5218562865042674e-04 0.0000000000000000e+00  2.1289458329449641e-05 -1.3526870661088148e-04 0.0000000000000000e+00  1.6243798312748138e-05 -5.5064794692926631e-05 0.0000000000000000e+00  1.3308432466871884e-05 -3.5970569633803166e-04 0.0000000000000000e+00  8.5179087098092057e-06 -1.4441541936318593e-05 0.0000000000000000e+00  4.7979836950355223e-06 -3.8940378542910199e-04 0.0000000000000000e+00  1.3620189000969817e-06 4.1147600972652356e-07 0.0000000000000000e+00  1.2860217767924191e-05 -3.0183342251579643e-04 0.0000000000000000e+00  1.1149168568393489e-05 -3.2658942985545951e-04 0.0000000000000000e+00  6.4411754467395067e-06 -8.2148948697022274e-06 0.0000000000000000e+00  1.3845815291999868e-05 -2.8329379068965103e-05 0.0000000000000000e+00  1.6375894501595849e-05 -2.2924209045719970e-04 0.0000000000000000e+00  1.4299195954255499e-05 -2.7729991535686485e-04 0.0000000000000000e+00  2.1498076791046730e-05 -7.6835565924236515e-05 0.0000000000000000e+00  1.7024166464639763e-05 -2.0590425139076441e-04 0.0000000000000000e+00  1.6392723219779113e-05 -4.0055040204065075e-05 0.0000000000000000e+00  2.3000454851408467e-05 -9.4129952669621704e-05 0.0000000000000000e+00  1.7414083814279908e-05 -1.8316484051138037e-04 0.0000000000000000e+00  1.5468971766278758e-05 -2.5307083887857461e-04 0.0000000000000000e+00  2.5024365485916752e-05 -1.1287428241583219e-04 0.0000000000000000e+00  1.7548537493356760e-05 -1.6113946977810525e-04 0.0000000000000000e+00  -3.9455659508696995e-07 -1.4621147074425665e-06 0.0000000000000000e+00  -6.5108613011392940e-07 1.1070324196013776e-06 0.0000000000000000e+00  1.1972667183541658e-05 -4.1283785993604028e-04 0.0000000000000000e+00  2.9225726598257303e-06 -4.3721988577135641e-06 0.0000000000000000e+0