<?xml version="1.0"?>
<VTKFile type="UnstructuredGrid"  version="0.1"  >
<UnstructuredGrid>
<Piece  NumberOfPoints="1419" NumberOfCells="2698">
<Points>
<DataArray  type="Float64"  NumberOfComponents="3"  format="ascii">0 0 0  0 0.41 0  2.5 0 0  2.5 0.41 0  0.6 0.19 0  0.6 0.21 0  0.25 0.2 0  0.15 0.2 0  0.2489897948556636 0.21 0  0.2489897948556636 0.19 0  0.6 0.2 0  0 0.3807142857143437 0  0 0.3514285714286952 0  0 0.3221428571430699 0  0 0.29285714285744 0  0 0.2635714285718054 0  0 0.2342857142861561 0  0 0.2050000000005308 0  0 0.175714285714732 0  0 0.1464285714289574 0  0 0.1171428571431897 0  0 0.08785714285737878 0  0 0.05857142857161107 0  0 0.02928571428580012 0  0.03015443760436003 0 0  0.06140001986583606 0 0  0.09377624077125973 0 0  0.1273239957535082 0 0  0.1620856860351972 0 0  0.1981052433264291 0 0  0.235428184091502 0 0  0.2741016576309132 0 0  0.3141745521465447 0 0  0.3556974926295285 0 0  0.3987229542472677 0 0  0.4433053055141081 0 0  0.4895008759286886 0 0  0.5373680609405097 0 0  0.5869673343216626 0 0  0.6383613676634521 0 0  0.6916151138468254 0 0  0.7467958595648856 0 0  0.8039733463919316 0 0  0.8632198139502143 0 0  0.9246101326867038 0 0  0.9882218810934433 0 0  1.054135445558498 0 0  1.122434100542598 0 0  1.193204177141305 0 0  1.266535089879536 0 0  1.342519516046404 0 0  1.421253448503939 0 0  1.502836389106271 0 0  1.587371439758838 0 0  1.674965418777374 0 0  1.765729001825544 0 0  1.859776908880082 0 0  1.957227977487062 0 0  2.058205329869943 0 0  2.162836591189951 0 0  2.271253957290865 0 0  2.383594446803425 0 0  2.5 0.1024999999997612 0  2.5 0.2049999999994743 0  2.5 0.3074999999997183 0  2.383594446803656 0.41 0  2.271253957291315 0.41 0  2.162836591190598 0.41 0  2.058205329870775 0.41 0  1.957227977488067 0.41 0  1.859776908881246 0.41 0  1.765729001826854 0.41 0  1.674965418778818 0.41 0  1.58737143976041 0.41 0  1.502836389107956 0.41 0  1.421253448505726 0.41 0  1.342519516048286 0.41 0  1.266535089881505 0.41 0  1.193204177143353 0.41 0  1.122434100544716 0.41 0  1.05413544556068 0.41 0  0.9882218810956305 0.41 0  0.9246101326886647 0.41 0  0.8632198139519631 0.41 0  0.8039733463934788 0.41 0  0.7467958595662458 0.41 0  0.6916151138480078 0.41 0  0.6383613676644679 0.41 0  0.5869673343225223 0.41 0  0.5373680609412221 0.41 0  0.4895008759292634 0.41 0  0.4433053055145528 0.41 0  0.3987229542475914 0.41 0  0.3556974926297398 0.41 0  0.3141745521466497 0.41 0  0.2741016576310038 0.41 0  0.2354281840915826 0.41 0  0.1981052433265003 0.41 0  0.1620856860352591 0.41 0  0.1273239957535623 0.41 0  0.09377624077128965 0.41 0  0.06140001986584975 0.41 0  0.03015443760436654 0.41 0  0.2497468076502589 0.2050254481002335 0  0.2497468076502614 0.1949745518997913 0  0.2469965252529372 0.1829317073451959 0  0.2439893735792749 0.1762316384219906 0  0.2400332147834255 0.1700443375285386 0  0.2352133972704371 0.1645032867342007 0  0.2296339016332438 0.1597280261969788 0  0.2234150974217223 0.1558215752574715 0  0.2166911463437691 0.1528682099456123 0  0.2096071079204251 0.1509316448471593 0  0.2023158100364996 0.1500536585536553 0  0.194974551899914 0.1502531923497262 0  0.1877417105387872 0.1515259415822739 0  0.1807733240461124 0.153844448527136 0  0.1742197252835808 0.15715869474974 0  0.1682222986673531 0.1613971801805478 0  0.162910430003803 0.1664684656256651 0  0.1583987151779087 0.1722631454351573 0  0.1547844879126891 0.178656207771761 0  0.1521457199348551 0.1855097315605723 0  0.1505393388476355 0.1926758619366523 0  0.1505393388476328 0.2073241380633295 0  0.1521457199348437 0.2144902684393899 0  0.1547844879126531 0.221343792228163 0  0.1583987151778488 0.2277368545647528 0  0.1629104300036858 0.2335315343742052 0  0.1682222986671726 0.2386028198193036 0  0.1742197252833576 0.2428413052501257 0  0.1807733240458683 0.2461555514727623 0  0.1877417105384929 0.2484740584176516 0  0.1949745518995776 0.2497468076502398 0  0.202315810036185 0.2499463414463592 0  0.2096071079201568 0.2490683551528932 0  0.2166911463435495 0.2471317900544655 0  0.2234150974215506 0.2441784247426195 0  0.2296339016331197 0.2402719738031125 0  0.2352133972703547 0.2354967132658811 0  0.2400332147833751 0.2299556624715287 0  0.2439893735792577 0.2237683615780412 0  0.246996525252926 0.2170682926548348 0  0.25645809709277 0.21 0  0.2639263993298655 0.21 0  0.271394701566961 0.21 0  0.2788630038040554 0.21 0  0.2863313060411479 0.21 0  0.2937996082782405 0.21 0  0.301267910515333 0.21 0  0.3087362127524279 0.21 0  0.3162045149895234 0.21 0  0.3236728172265972 0.21 0  0.3311411194636928 0.21 0  0.3386094217007701 0.21 0  0.3460777239378666 0.21 0  0.3535460261749672 0.21 0  0.3610143284120516 0.21 0  0.3684826306491596 0.21 0  0.3759509328862226 0.21 0  0.383419235123329 0.21 0  0.3908875373604028 0.21 0  0.3983558395975142 0.21 0  0.4058241418345938 0.21 0  0.4132924440716992 0.21 0  0.4207607463087888 0.21 0  0.4282290485459029 0.21 0  0.4356973507830418 0.21 0  0.4431656530201649 0.21 0  0.4506339552573136 0.21 0  0.4581022574944306 0.21 0  0.4655705597315852 0.21 0  0.4730388619686996 0.21 0  0.480507164205851 0.21 0  0.4879754664429498 0.21 0  0.4954437686800938 0.21 0  0.502912070917267 0.21 0  0.5103803731544119 0.21 0  0.5178486753915261 0.21 0  0.5253169776286404 0.21 0  0.5327852798657868 0.21 0  0.5402535821029386 0.21 0  0.54772188434007 0.21 0  0.5551901865771842 0.21 0  0.5626584888143201 0.21 0  0.5701267910514778 0.21 0  0.5775950932886138 0.21 0  0.5850633955257281 0.21 0  0.5925316977628483 0.21 0  0.6 0.2050000000000054 0  0.6 0.1950000000000217 0  0.5925316977628897 0.19 0  0.5850633955257988 0.19 0  0.5775950932887378 0.19 0  0.5701267910515998 0.19 0  0.5626584888145268 0.19 0  0.5551901865773963 0.19 0  0.547721884340339 0.19 0  0.5402535821032429 0.19 0  0.5327852798661811 0.19 0  0.5253169776290537 0.19 0  0.5178486753919799 0.19 0  0.5103803731549078 0.19 0  0.502912070917822 0.19 0  0.4954437686807294 0.19 0  0.4879754664436223 0.19 0  0.4805071642065402 0.19 0  0.4730388619694271 0.19 0  0.4655705597323621 0.19 0  0.4581022574952563 0.19 0  0.4506339552581777 0.19 0  0.4431656530210671 0.19 0  0.4356973507839815 0.19 0  0.4282290485468779 0.19 0  0.4207607463097617 0.19 0  0.4132924440726327 0.19 0  0.4058241418354857 0.19 0  0.3983558395983636 0.19 0  0.3908875373612097 0.19 0  0.3834192351240934 0.19 0  0.3759509328869369 0.19 0  0.3684826306498175 0.19 0  0.361014328412667 0.19 0  0.3535460261755617 0.19 0  0.3460777239384295 0.19 0  0.3386094217012945 0.19 0  0.3311411194641595 0.19 0  0.3236728172270245 0.19 0  0.3162045149898895 0.19 0  0.3087362127527544 0.19 0  0.3012679105156187 0.19 0  0.2937996082784807 0.19 0  0.2863313060413428 0.19 0  0.2788630038042048 0.19 0  0.2713947015670686 0.19 0  0.2639263993299336 0.19 0  0.2564580970927985 0.19 0  0.2607803159922026 0.2000727136295815 0  0.5887803774232762 0.2001272386983733 0  0.5745072403740523 0.2002044435018727 0  0.5511891430099709 0.2001122610077113 0  0.2751288526855082 0.20000000000002 0  0.5365194309847112 0.1999999999999436 0  0.2894621222999649 0.1998691686390484 0  0.5215828265105155 0.1999999999999228 0  0.3127789816668748 0.1998657885438805 0  0.3274069683451451 0.2000000000000796 0  0.5066462220363641 0.199999999999908 0  0.3650630746574081 0.199866017807523 0  0.476773013087985 0.1999999999998713 0  0.3417402379596385 0.1998691686391011 0  0.3796850840047755 0.200000000000134 0  0.4618364086138087 0.1999999999998546 0  0.4917096175621762 0.1999999999998808 0  0.3946216884789568 0.2000000000001512 0  0.446899804139621 0.1999999999998389 0  0.4089549580935208 0.1998691686391595 0  0.4322718174608562 0.200127451265745 0  0.4201487168029707 0.1999966199048527 0  0.3528922713220932 0.2000185703532356 0  0.5633122436674589 0.1999814296467508 0  0.3006558810093873 0.1999966199048318 0  0.5815926498168407 0.1966545283159175 0  0.2677053789419034 0.1964246479135325 0  0.5290511287476175 0.1970915826863981 0  0.5439877332217911 0.197091582686394 0  0.2825131256993216 0.2035478995978015 0  0.3199386661080599 0.202908417313604 0  0.4842413153250809 0.1970915826863873 0  0.5141145242734466 0.1970915826863843 0  0.3722167817676917 0.2029084173136195 0  0.4693047108508938 0.1970915826863783 0  0.3348752705822316 0.202908417313609 0  0.3871533862418661 0.2029084173136212 0  0.4543681063767183 0.1970915826863795 0  0.4991779197992749 0.1970915826863902 0  0.4020059614928624 0.203547899597858 0  0.4394315019025246 0.1970915826863714 0  0.2550657455369551 0.2034088125358657 0  0.2548908499171161 0.1966940311614271 0  0.5946539510196798 0.2024302972968126 0  0.267698176732111 0.2039977513680092 0  0.4261685417851465 0.196409292431739 0  0.3590076176283495 0.196411355804271 0  0.5571672426447437 0.2036011176410121 0  0.3066757059912147 0.1964092924317024 0  0.594380730180568 0.1966558399668133 0  0.4842413153245942 0.2040749161535287 0  0.4693047108503577 0.2040749161535231 0  0.3871533862424271 0.1959250838464788 0  0.372246743208829 0.1959123236376545 0  0.5141145242731028 0.2040749161535395 0  0.4543681063761134 0.2040749161535186 0  0.4019979587101454 0.1959834479682427 0  0.4394608940728603 0.2040870543693135 0  0.5439623148931173 0.2040856076781014 0  0.5290511287473298 0.2040749161535501 0  0.4991779197988497 0.2040749161535382 0  0.3347912413592433 0.1959225448935183 0  0.3199680582793816 0.1959123018030061 0  0.2825051229162361 0.1959834479681729 0  0.3590471196690275 0.2036304442587945 0  0.5571594006495384 0.1963685282145804 0  0.3067669986803285 0.203627750582736 0  0.4262598344738712 0.2036568242185335 0  0.5814408164431408 0.2041285596160068 0  0.5688286748170428 0.1961819304477386 0  0.4145905603063645 0.2038180695522843 0  0.3473758401724931 0.2038180695522752 0  0.2950977245128307 0.2038180695522663 0  0.5688286748170693 0.203818069552238 0  0.2950977245127906 0.1961819304477774 0  0.3473758401723931 0.1961819304478349 0  0.4145905603061963 0.1961819304479011 0  0.2601812407614425 0.2056861609747042
[...]
<PointData  Vectors="f_40-0"> 
<DataArray  type="Float64"  Name="f_40-0"  NumberOfComponents="3" format="ascii">0.0000000000000000e+00 0.0000000000000000e+00 0.0000000000000000e+00  0.0000000000000000e+00 0.0000000000000000e+00 0.0000000000000000e+00  0.0000000000000000e+00 0.0000000000000000e+00 0.0000000000000000e+00  0.0000000000000000e+00 0.0000000000000000e+00 0.0000000000000000e+00  -1.3658156683820283e-05 -2.9103720987696890e-04 0.0000000000000000e+00  9.7989307213674178e-06 -2.9698180049029176e-04 0.0000000000000000e+00  0.0000000000000000e+00 0.0000000000000000e+00 0.0000000000000000e+00  0.0000000000000000e+00 0.0000000000000000e+00 0.0000000000000000e+00  0.0000000000000000e+00 0.0000000000000000e+00 0.0000000000000000e+00  0.0000000000000000e+00 0.0000000000000000e+00 0.0000000000000000e+00  -2.5048527884377057e-06 -2.9401298502159973e-04 0.0000000000000000e+00  4.3063309318607718e-02 0.0000000000000000e+00 0.0000000000000000e+00  7.9501494126665698e-02 0.0000000000000000e+00 0.0000000000000000e+00  1.0931455442416532e-01 0.0000000000000000e+00 0.0000000000000000e+00  1.3250249021114116e-01 0.0000000000000000e+00 0.0000000000000000e+00  1.4906530148759023e-01 0.0000000000000000e+00 0.0000000000000000e+00  1.5900298825351150e-01 0.0000000000000000e+00 0.0000000000000000e+00  1.6231555050889501e-01 0.0000000000000000e+00 0.0000000000000000e+00  1.5900298825371240e-01 0.0000000000000000e+00 0.0000000000000000e+00  1.4906530148793534e-01 0.0000000000000000e+00 0.0000000000000000e+00  1.3250249021156860e-01 0.0000000000000000e+00 0.0000000000000000e+00  1.0931455442457136e-01 0.0000000000000000e+00 0.0000000000000000e+00  7.9501494127012157e-02 0.0000000000000000e+00 0.0000000000000000e+00  4.3063309318802950e-02 0.0000000000000000e+00 0.0000000000000000e+00  0.0000000000000000e+00 0.0000000000000000e+00 0.0000000000000000e+00  0.0000000000000000e+00 0.0000000000000000e+00 0.0000000000000000e+00  0.0000000000000000e+00 0.0000000000000000e+00 0.0000000000000000e+00  0.0000000000000000e+00 0.0000000000000000e+00 0.0000000000000000e+00  0.0000000000000000e+00 0.0000000000000000e+00 0.0000000000000000e+00  0.0000000000000000e+00 0.0000000000000000e+00 0.0000000000000000e+00  0.0000000000000000e+00 0.0000000000000000e+00 0.0000000000000000e+00  0.0000000000000000e+00 0.0000000000000000e+00 0.0000000000000000e+00  0.0000000000000000e+00 0.0000000000000000e+00 0.0000000000000000e+00  0.0000000000000000e+00 0.0000000000000000e+00 0.0000000000000000e+00  0.0000000000000000e+00 0.0000000000000000e+00 0.0000000000000000e+00  0.0000000000000000e+00 0.0000000000000000e+00 0.0000000000000000e+00  0.0000000000000000e+00 0.0000000000000000e+00 0.0000000000000000e+00  0.0000000000000000e+00 0.0000000000000000e+00 0.0000000000000000e+00  0.0000000000000000e+00 0.0000000000000000e+00 0.0000000000000000e+00  0.0000000000000000e+00 0.0000000000000000e+00 0.0000000000000000e+00  0.0000000000000000e+00 0.0000000000000000e+00 0.0000000000000000e+00  0.0000000000000000e+00 0.0000000000000000e+00 0.0000000000000000e+00  0.0000000000000000e+00 0.0000000000000000e+00 0.0000000000000000e+00  0.0000000000000000e+00 0.0000000000000000e+00 0.0000000000000000e+00  0.0000000000000000e+00 0.0000000000000000e+00 0.0000000000000000e+00  0.0000000000000000e+00 0.0000000000000000e+00 0.0000000000000000e+00  0.0000000000000000e+00 0.0000000000000000e+00 0.0000000000000000e+00  0.0000000000000000e+00 0.0000000000000000e+00 0.0000000000000000e+00  0.0000000000000000e+00 0.0000000000000000e+00 0.0000000000000000e+00  0.0000000000000000e+00 0.0000000000000000e+00 0.0000000000000000e+00  0.0000000000000000e+00 0.0000000000000000e+00 0.0000000000000000e+00  0.0000000000000000e+00 0.0000000000000000e+00 0.0000000000000000e+00  0.0000000000000000e+00 0.0000000000000000e+00 0.0000000000000000e+00  0.0000000000000000e+00 0.0000000000000000e+00 0.0000000000000000e+00  0.0000000000000000e+00 0.0000000000000000e+00 0.0000000000000000e+00  0.0000000000000000e+00 0.0000000000000000e+00 0.0000000000000000e+00  0.0000000000000000e+00 0.0000000000000000e+00 0.0000000000000000e+00  0.0000000000000000e+00 0.0000000000000000e+00 0.0000000000000000e+00  0.0000000000000000e+00 0.0000000000000000e+00 0.0000000000000000e+00  0.0000000000000000e+00 0.0000000000000000e+00 0.0000000000000000e+00  0.0000000000000000e+00 0.0000000000000000e+00 0.0000000000000000e+00  0.0000000000000000e+00 0.0000000000000000e+00 0.0000000000000000e+00  1.5482986807103311e-01 6.5571601269515684e-03 0.0000000000000000e+00  1.0961010220224600e-01 -1.3658626584064832e-03 0.0000000000000000e+00  1.5631527506437332e-01 -6.6749815274465317e-03 0.0000000000000000e+00  0.0000000000000000e+00 0.0000000000000000e+00 0.0000000000000000e+00  0.0000000000000000e+00 0.0000000000000000e+00 0.0000000000000000e+00  0.0000000000000000e+00 0.0000000000000000e+00 0.0000000000000000e+00  0.0000000000000000e+00 0.0000000000000000e+00 0.0000000000000000e+00  0.0000000000000000e+00 0.0000000000000000e+00 0.0000000000000000e+00  0.0000000000000000e+00 0.0000000000000000e+00 0.0000000000000000e+00  0.0000000000000000e+00 0.0000000000000000e+00 0.0000000000000000e+00  0.0000000000000000e+00 0.0000000000000000e+00 0.0000000000000000e+00  0.0000000000000000e+00 0.0000000000000000e+00 0.0000000000000000e+00  0.0000000000000000e+00 0.0000000000000000e+00 0.0000000000000000e+00  0.0000000000000000e+00 0.0000000000000000e+00 0.0000000000000000e+00  0.0000000000000000e+00 0.0000000000000000e+00 0.0000000000000000e+00  0.0000000000000000e+00 0.0000000000000000e+00 0.0000000000000000e+00  0.0000000000000000e+00 0.0000000000000000e+00 0.0000000000000000e+00  0.0000000000000000e+00 0.0000000000000000e+00 0.0000000000000000e+00  0.0000000000000000e+00 0.0000000000000000e+00 0.0000000000000000e+00  0.0000000000000000e+00 0.0000000000000000e+00 0.0000000000000000e+00  0.0000000000000000e+00 0.0000000000000000e+00 0.0000000000000000e+00  0.0000000000000000e+00 0.0000000000000000e+00 0.0000000000000000e+00  0.0000000000000000e+00 0.0000000000000000e+00 0.0000000000000000e+00  0.0000000000000000e+00 0.0000000000000000e+00 0.0000000000000000e+00  0.0000000000000000e+00 0.0000000000000000e+00 0.0000000000000000e+00  0.0000000000000000e+00 0.0000000000000000e+00 0.0000000000000000e+00  0.0000000000000000e+00 0.0000000000000000e+00 0.0000000000000000e+00  0.0000000000000000e+00 0.0000000000000000e+00 0.0000000000000000e+00  0.0000000000000000e+00 0.0000000000000000e+00 0.0000000000000000e+00  0.0000000000000000e+00 0.0000000000000000e+00 0.0000000000000000e+00  0.0000000000000000e+00 0.0000000000000000e+00 0.0000000000000000e+00  0.0000000000000000e+00 0.0000000000000000e+00 0.0000000000000000e+00  0.0000000000000000e+00 0.0000000000000000e+00 0.0000000000000000e+00  0.0000000000000000e+00 0.0000000000000000e+00 0.0000000000000000e+00  0.0000000000000000e+00 0.0000000000000000e+00 0.0000000000000000e+00  0.0000000000000000e+00 0.0000000000000000e+00 0.0000000000000000e+00  0.0000000000000000e+00 0.0000000000000000e+00 0.0000000000000000e+00  0.0000000000000000e+00 0.0000000000000000e+00 0.0000000000000000e+00  0.0000000000000000e+00 0.0000000000000000e+00 0.0000000000000000e+00  0.0000000000000000e+00 0.0000000000000000e+00 0.0000000000000000e+00  0.0000000000000000e+00 0.0000000000000000e+00 0.0000000000000000e+00  0.0000000000000000e+00 0.0000000000000000e+00 0.0000000000000000e+00  0.0000000000000000e+00 0.0000000000000000e+00 0.0000000000000000e+00  0.0000000000000000e+00 0.0000000000000000e+00 0.0000000000000000e+00  0.0000000000000000e+00 0.0000000000000000e+00 0.0000000000000000e+00  0.0000000000000000e+00 0.0000000000000000e+00 0.0000000000000000e+00  0.0000000000000000e+00 0.0000000000000000e+00 0.0000000000000000e+00  0.0000000000000000e+00 0.0000000000000000e+00 0.0000000000000000e+00  0.0000000000000000e+00 0.0000000000000000e+00 0.0000000000000000e+00  0.0000000000000000e+00 0.0000000000000000e+00 0.0000000000000000e+00  0.0000000000000000e+00 0.0000000000000000e+00 0.0000000000000000e+00  0.0000000000000000e+00 0.0000000000000000e+00 0.0000000000000000e+00  0.0000000000000000e+00 0.0000000000000000e+00 0.0000000000000000e+00  0.0000000000000000e+00 0.0000000000000000e+00 0.0000000000000000e+00  0.0000000000000000e+00 0.0000000000000000e+00 0.0000000000000000e+00  0.0000000000000000e+00 0.0000000000000000e+00 0.0000000000000000e+00  0.0000000000000000e+00 0.0000000000000000e+00 0.0000000000000000e+00  0.0000000000000000e+00 0.0000000000000000e+00 0.0000000000000000e+00  0.0000000000000000e+00 0.0000000000000000e+00 0.0000000000000000e+00  0.0000000000000000e+00 0.0000000000000000e+00 0.0000000000000000e+00  0.0000000000000000e+00 0.0000000000000000e+00 0.0000000000000000e+00  0.0000000000000000e+00 0.0000000000000000e+00 0.0000000000000000e+00  0.0000000000000000e+00 0.0000000000000000e+00 0.0000000000000000e+00  0.0000000000000000e+00 0.0000000000000000e+00 0.0000000000000000e+00  0.0000000000000000e+00 0.0000000000000000e+00 0.0000000000000000e+00  0.0000000000000000e+00 0.0000000000000000e+00 0.0000000000000000e+00  0.0000000000000000e+00 0.0000000000000000e+00 0.0000000000000000e+00  0.0000000000000000e+00 0.0000000000000000e+00 0.0000000000000000e+00  0.0000000000000000e+00 0.0000000000000000e+00 0.0000000000000000e+00  0.0000000000000000e+00 0.0000000000000000e+00 0.0000000000000000e+00  0.0000000000000000e+00 0.0000000000000000e+00 0.0000000000000000e+00  0.0000000000000000e+00 0.0000000000000000e+00 0.0000000000000000e+00  0.0000000000000000e+00 0.0000000000000000e+00 0.0000000000000000e+00  0.0000000000000000e+00 0.0000000000000000e+00 0.0000000000000000e+00  0.0000000000000000e+00 0.0000000000000000e+00 0.0000000000000000e+00  0.0000000000000000e+00 0.0000000000000000e+00 0.0000000000000000e+00  0.0000000000000000e+00 0.0000000000000000e+00 0.0000000000000000e+00  0.0000000000000000e+00 0.0000000000000000e+00 0.0000000000000000e+00  0.0000000000000000e+00 0.0000000000000000e+00 0.0000000000000000e+00  0.0000000000000000e+00 0.0000000000000000e+00 0.0000000000000000e+00  0.0000000000000000e+00 0.0000000000000000e+00 0.0000000000000000e+00  1.0729916104653641e-06 -5.9337939463945976e-06 0.0000000000000000e+00  2.4223684313190564e-06 -6.9892550276133380e-06 0.0000000000000000e+00  4.0010539136981666e-06 -8.1522952560107594e-06 0.0000000000000000e+00  5.7572158899840601e-06 -9.5909133830582673e-06 0.0000000000000000e+00  7.4361728558231546e-06 -1.1407230940241036e-05 0.0000000000000000e+00  9.1341172778311157e-06 -1.3703015700466744e-05 0.0000000000000000e+00  1.0674849745753627e-05 -1.6311255154320243e-05 0.0000000000000000e+00  1.2135654631961470e-05 -1.9348389539553176e-05 0.0000000000000000e+00  1.3628567709897347e-05 -2.2718873731143515e-05 0.0000000000000000e+00  1.4920242735240344e-05 -2.6415738332996911e-05 0.0000000000000000e+00  1.6252825592880569e-05 -3.0486753871525480e-05 0.0000000000000000e+00  1.7390517942156904e-05 -3.4842057375231549e-05 0.0000000000000000e+00  1.8533517684680283e-05 -3.9525787542809089e-05 0.0000000000000000e+00  1.9529978277688738e-05 -4.4466987584139193e-05 0.0000000000000000e+00  2.0441694305505470e-05 -4.9711761003515689e-05 0.0000000000000000e+00  2.1357083281908143e-05 -5.5214594873305289e-05 0.0000000000000000e+00  2.2098873316169853e-05 -6.0932618748710917e-05 0.0000000000000000e+00  2.2842160670269911e-05 -6.6938555620834405e-05 0.0000000000000000e+00  2.3424138079327325e-05 -7.3117732622649109e-05 0.0000000000000000e+00  2.3999722615225065e-05 -7.9549959269364836e-05 0.0000000000000000e+00  2.4439218837183595e-05 -8.6141877171089549e-05 0.0000000000000000e+00  2.4835127740330692e-05 -9.2957327307957618e-05 0.0000000000000000e+00  2.5125115682424093e-05 -9.9923108650948602e-05 0.0000000000000000e+00  2.5332523812820705e-05 -1.0706871387128580e-04 0.0000000000000000e+00  2.5514617486665403e-05 -1.1437017557655880e-04 0.0000000000000000e+00  2.5579774867899185e-05 -1.2179356140379173e-04 0.0000000000000000e+00  2.5576008013077971e-05 -1.2940510512922135e-04 0.0000000000000000e+00  2.5487288116536093e-05 -1.3709133199313176e-04 0.0000000000000000e+00  2.5328547793724382e-05 -1.4494208733179396e-04 0.0000000000000000e+00  2.5086000610044049e-05 -1.5285851116286040e-04 0.0000000000000000e+00  2.4775686283567809e-05 -1.6091452194108918e-04 0.0000000000000000e+00  2.4378787420815847e-05 -1.6901677778830433e-04 0.0000000000000000e+00  2.3918378607604541e-05 -1.7724413932564991e-04 0.0000000000000000e+00  2.3369985040274435e-05 -1.8549419714574076e-04 0.0000000000000000e+00  2.2748089182020380e-05 -1.9386200073587991e-04 0.0000000000000000e+00  2.2048885934798792e-05 -2.0223914719195516e-04 0.0000000000000000e+00  2.1280146172874961e-05 -2.1070907793623172e-04 0.0000000000000000e+00  2.0432824356888849e-05 -2.1917842704299913e-04 0.0000000000000000e+00  1.9512561034311272e-05 -2.2772625108899457e-04 0.0000000000000000e+00  1.8510701315907926e-05 -2.3626418137450572e-04 0.0000000000000000e+00  1.7430339702137385e-05 -2.4485390484942375e-04 0.0000000000000000e+00  1.6283767135002969e-05 -2.5344377533068399e-04 0.0000000000000000e+00  1.5052426719378397e-05 -2.6206166041021481e-04 0.0000000000000000e+00  1.3778328784893851e-05 -2.7068191464810508e-04 0.0000000000000000e+00  1.2416910813013333e-05 -2.7928439155189771e-04 0.0000000000000000e+00  1.1041052567606756e-05 -2.8796535519479263e-04 0.0000000000000000e+00  3.4500485023744995e-06 -2.9547985548208271e-04 0.0000000000000000e+00  -8.2463199399766490e-06 -2.9254766769966654e-04 0.0000000000000000e+00  -1.2372977261508146e-05 -2.8256535085921839e-04 0.0000000000000000e+00  -1.0962506217324306e-05 -2.7375612023019304e-04 0.0000000000000000e+00  -9.5655290992613596e-06 -2.6491122064340356e-04 0.0000000000000000e+00  -8.2460333372760282e-06 -2.5610851106448111e-04 0.0000000000000000e+00  -6.9701429556566374e-06 -2.4732073161833594e-04 0.0000000000000000e+00  -5.7754501329630408e-06 -2.3855456053626723e-04 0.0000000000000000e+00  -4.6249713554379213e-06 -2.2981590338825363e-04 0.0000000000000000e+00  -3.5545809813021618e-06 -2.2108445504815858e-04 0.0000000000000000e+00  -2.5317880398342974e-06 -2.1241844571562042e-04 0.0000000000000000e+00  -1.5824311506860186e-06 -2.0375204197559024e-04 0.0000000000000000e+00  -6.7554320833037722e-07 -1.9516494493850790e-04 0.0000000000000000e+00  1.5602277934284536e-07 -1.8659147755985860e-04 0.0000000000000000e+00  9.5172229578934282e-07 -1.7811188862292186e-04 0.0000000000000000e+00  1.6704128416058393e-06 -1.6966206011891630e-04 0.0000000000000000e+00  2.3600332165132694e-06 -1.6132228972225355e-04 0.0000000000000000e+00  2.9679527356679011e-06 -1.5302853821215828e-04 0.0000000000000000e+00  3.5543697166559352e-06 -1.4485811401485793e-04 0.0000000000000000e+00  4.0526275125855732e-06 -1.3674987803148555e-04 0.0000000000000000e+00  4.5356577006387940e-06 -1.2878702486786300e-04 0.0000000000000000e+00  4.9272003002019876e-06 -1.2090785168669387e-04 0.0000000000000000e+00  5.3130452993233827e-06 -1.1319207241593489e-04 0.0000000000000000e+00  5.6001896894444843e-06 -1.0558097796773802e-04 0.0000000000000000e+00  5.8760216810635456e-06 -9.8139641129542946e-05 0.0000000000000000e+00  6.0724972422082183e-06 -9.0835216854014760e-05 0.0000000000000000e+00  6.2036259184144231e-06 -8.3723403602803655e-05 0.0000000000000000e+00  6.3458784973017063e-06 -7.6765475759067153e-05 0.0000000000000000e+00  6.3945416224410796e-06 -6.9991604732536807e-05 0.0000000000000000e+00  6.4190528668974289e-06 -6.3449110977060395e-05 0.0000000000000000e+00  6.3710691965612224e-06 -5.7079179653721878e-05 0.0000000000000000e+00  6.2959851369040982e-06 -5.0971104323704688e-05 0.0000000000000000e+00  6.1494176814046480e-06 -4.5051214332540553e-05 0.0000000000000000e+00  5.9968267236384760e-06 -3.9440094243654637e-05 0.0000000000000000e+00  5.7526919438258064e-06 -3.4030891987880569e-05 0.0000000000000000e+00  5.4495256999706212e-06 -2.8955136727661131e-05 0.0000000000000000e+00  5.1837586712893498e-06 -2.4108290210735485e-05 0.0000000000000000e+00  4.8176127631329199e-06 -1.9590035832517594e-05 0.0000000000000000e+00  4.4377728885649227e-06 -1.5411180478557330e-05 0.0000000000000000e+00  3.9803849286602897e-06 -1.1531004440901658e-05 0.0000000000000000e+00  3.5385395359416677e-06 -8.0532224308374603e-06 0.0000000000000000e+00  2.9856168312423256e-06 -4.8731640932833667e-06 0.0000000000000000e+00  2.3748521550896365e-06 -2.1321251755357719e-06 0.0000000000000000e+00  1.8344044425854937e-06 2.8365677223393825e-07 0.0000000000000000e+00  1.1768040689521851e-06 2.3101414727745068e-06 0.0000000000000000e+00  6.3252258522110615e-07 3.8893200462922673e-06 0.0000000000000000e+00  1.2731370014581447e-07 4.8616658559863477e-06 0.0000000000000000e+00  -1.4103481306366556e-08 5.0659269288811992e-06 0.0000000000000000e+00  -1.0563654841692696e-07 -4.6957368889894905e-07 0.0000000000000000e+00  -1.7127745902728045e-08 -2.8089581468505843e-04 0.0000000000000000e+00  2.8250181940943512e-06 -2.6423969156628442e-04 0.0000000000000000e+00  6.5009094456527585e-06 -2.3707855804881595e-04 0.0000000000000000e+00  2.8237562392163345e-06 -2.5596741598705891e-06 0.0000000000000000e+00  8.3969319447082846e-06 -2.2007411131580543e-04 0.0000000000000000e+00  5.0391225174078862e-06 -6.1534827990213584e-06 0.0000000000000000e+00  1.0201791129190564e-05 -2.0292906687513479e-04 0.0000000000000000e+00  8.2492248515565296e-06 -1.5200594520384940e-05 0.0000000000000000e+00  1.0047961973453295e-05 -2.2724871654523924e-05 0.0000000000000000e+00  1.1740629816241446e-05 -1.8596799879568837e-04 0.0000000000000000e+00  1.3357004601277017e-05 -4.7318410205872467e-05 0.0000000000000000e+00  1.4030732940742535e-05 -1.5284068471080233e-04 0.0000000000000000e+00  1.1456729243486139e-05 -3.1162044048746717e-05 0.0000000000000000e+00  1.4339904272043402e-05 -5.8802509740775391e-05 0.0000000000000000e+00  1.4786339521531458e-05 -1.3680543653734703e-04 0.0000000000000000e+00  1.3016389677945558e-05 -1.6925000737338358e-04 0.0000000000000000e+00  1.4999735028083280e-05 -7.1364733840060282e-05 0.0000000000000000e+00  1.5282883865082941e-05 -1.2122310033900227e-04 0.0000000000000000e+00  1.5278767023647503e-05 -8.4130111964348365e-05 0.0000000000000000e+00  1.5654145760833368e-05 -1.0653057916000661e-04 0.0000000000000000e+00  1.5510407100458855e-05 -9.4712120449511595e-05 0.0000000000000000e+00  1.2519711054210297e-05 -3.8674677038562755e-05 0.0000000000000000e+00  4.4391866087323916e-06 -2.5112896701855804e-04 0.0000000000000000e+00  6.6709520489312838e-06 -1.0175126757580059e-05 0.0000000000000000e+00  -2.6383102458878955e-06 -2.7152698458404148e-04 0.0000000000000000e+00  9.5543537336253442e-07 9.3759387724000737e-07 0.0000000000000000e+00  6.0020185449470801e-06 -2.1048876158775699e-04 0.0000000000000000e+00  4.0373715914252593e-06 -2.2775023731918525e-04 0.0000000000000000e+00  4.8999696460838299e-06 -6.3964602825026431e-06 0.0000000000000000e+00  1.0656093846253876e-05 -2.0400679144376517e-05 0.0000000000000000e+00  1.0370778832399046e-05 -1.5987832675794784e-04 0.0000000000000000e+00  7.7105805612320019e-06 -1.9338433096436527e-04 0.0000000000000000e+00  1.6174441606512908e-05 -5.4339473246233118e-05 0.0000000000000000e+00  1.1330180995440884e-05 -1.4360347271658727e-04 0.0000000000000000e+00  1.2561647560775222e-05 -2.8616269990144481e-05 0.0000000000000000e+00  1.7132464754177815e-05 -6.6416968542689365e-05 0.0000000000000000e+00  1.2043850891755821e-05 -1.2774186440834344e-04 0.0000000000000000e+00  9.1652701922378473e-06 -1.7649238618981322e-04 0.0000000000000000e+00  1.8394129715854527e-05 -7.9587926130047498e-05 0.0000000000000000e+00  1.2514519532012897e-05 -1.1237348141276332e-04 0.0000000000000000e+00  -6.1065099327165737e-07 -1.4200957536109987e-06 0.0000000000000000e+00  -7.8613208336592522e-07 1.1273357816273982e-06 0.0000000000000000e+00  1.4622920904345182e-06 -2.8839829034041467e-04 0.0000000000000000e+00  2.0611504334867038e-06 -3.8135747871622415e-06 0.0000000000000