<?xml version="1.0"?>
<VTKFile type="UnstructuredGrid"  version="0.1"  >
<UnstructuredGrid>
<Piece  NumberOfPoints="1419" NumberOfCells="2698">
<Points>
<DataArray  type="Float64"  NumberOfComponents="3"  format="ascii">0 0 0  0 0.41 0  2.5 0 0  2.5 0.41 0  0.6 0.19 0  0.6 0.21 0  0.25 0.2 0  0.15 0.2 0  0.2489897948556636 0.21 0  0.2489897948556636 0.19 0  0.6 0.2 0  0 0.3807142857143437 0  0 0.3514285714286952 0  0 0.3221428571430699 0  0 0.29285714285744 0  0 0.2635714285718054 0  0 0.2342857142861561 0  0 0.2050000000005308 0  0 0.175714285714732 0  0 0.1464285714289574 0  0 0.1171428571431897 0  0 0.08785714285737878 0  0 0.05857142857161107 0  0 0.02928571428580012 0  0.03015443760436003 0 0  0.06140001986583606 0 0  0.09377624077125973 0 0  0.1273239957535082 0 0  0.1620856860351972 0 0  0.1981052433264291 0 0  0.235428184091502 0 0  0.2741016576309132 0 0  0.3141745521465447 0 0  0.3556974926295285 0 0  0.3987229542472677 0 0  0.4433053055141081 0 0  0.4895008759286886 0 0  0.5373680609405097 0 0  0.5869673343216626 0 0  0.6383613676634521 0 0  0.6916151138468254 0 0  0.7467958595648856 0 0  0.8039733463919316 0 0  0.8632198139502143 0 0  0.9246101326867038 0 0  0.9882218810934433 0 0  1.054135445558498 0 0  1.122434100542598 0 0  1.193204177141305 0 0  1.266535089879536 0 0  1.342519516046404 0 0  1.421253448503939 0 0  1.502836389106271 0 0  1.587371439758838 0 0  1.674965418777374 0 0  1.765729001825544 0 0  1.859776908880082 0 0  1.957227977487062 0 0  2.058205329869943 0 0  2.162836591189951 0 0  2.271253957290865 0 0  2.383594446803425 0 0  2.5 0.1024999999997612 0  2.5 0.2049999999994743 0  2.5 0.3074999999997183 0  2.383594446803656 0.41 0  2.271253957291315 0.41 0  2.162836591190598 0.41 0  2.058205329870775 0.41 0  1.957227977488067 0.41 0  1.859776908881246 0.41 0  1.765729001826854 0.41 0  1.674965418778818 0.41 0  1.58737143976041 0.41 0  1.502836389107956 0.41 0  1.421253448505726 0.41 0  1.342519516048286 0.41 0  1.266535089881505 0.41 0  1.193204177143353 0.41 0  1.122434100544716 0.41 0  1.05413544556068 0.41 0  0.9882218810956305 0.41 0  0.9246101326886647 0.41 0  0.8632198139519631 0.41 0  0.8039733463934788 0.41 0  0.7467958595662458 0.41 0  0.6916151138480078 0.41 0  0.6383613676644679 0.41 0  0.5869673343225223 0.41 0  0.5373680609412221 0.41 0  0.4895008759292634 0.41 0  0.4433053055145528 0.41 0  0.3987229542475914 0.41 0  0.3556974926297398 0.41 0  0.3141745521466497 0.41 0  0.2741016576310038 0.41 0  0.2354281840915826 0.41 0  0.1981052433265003 0.41 0  0.1620856860352591 0.41 0  0.1273239957535623 0.41 0  0.09377624077128965 0.41 0  0.06140001986584975 0.41 0  0.03015443760436654 0.41 0  0.2497468076502589 0.2050254481002335 0  0.2497468076502614 0.1949745518997913 0  0.2469965252529372 0.1829317073451959 0  0.2439893735792749 0.1762316384219906 0  0.2400332147834255 0.1700443375285386 0  0.2352133972704371 0.1645032867342007 0  0.2296339016332438 0.1597280261969788 0  0.2234150974217223 0.1558215752574715 0  0.2166911463437691 0.1528682099456123 0  0.2096071079204251 0.1509316448471593 0  0.2023158100364996 0.1500536585536553 0  0.194974551899914 0.1502531923497262 0  0.1877417105387872 0.1515259415822739 0  0.1807733240461124 0.153844448527136 0  0.1742197252835808 0.15715869474974 0  0.1682222986673531 0.1613971801805478 0  0.162910430003803 0.1664684656256651 0  0.1583987151779087 0.1722631454351573 0  0.1547844879126891 0.178656207771761 0  0.1521457199348551 0.1855097315605723 0  0.1505393388476355 0.1926758619366523 0  0.1505393388476328 0.2073241380633295 0  0.1521457199348437 0.2144902684393899 0  0.1547844879126531 0.221343792228163 0  0.1583987151778488 0.2277368545647528 0  0.1629104300036858 0.2335315343742052 0  0.1682222986671726 0.2386028198193036 0  0.1742197252833576 0.2428413052501257 0  0.1807733240458683 0.2461555514727623 0  0.1877417105384929 0.2484740584176516 0  0.1949745518995776 0.2497468076502398 0  0.202315810036185 0.2499463414463592 0  0.2096071079201568 0.2490683551528932 0  0.2166911463435495 0.2471317900544655 0  0.2234150974215506 0.2441784247426195 0  0.2296339016331197 0.2402719738031125 0  0.2352133972703547 0.2354967132658811 0  0.2400332147833751 0.2299556624715287 0  0.2439893735792577 0.2237683615780412 0  0.246996525252926 0.2170682926548348 0  0.25645809709277 0.21 0  0.2639263993298655 0.21 0  0.271394701566961 0.21 0  0.2788630038040554 0.21 0  0.2863313060411479 0.21 0  0.2937996082782405 0.21 0  0.301267910515333 0.21 0  0.3087362127524279 0.21 0  0.3162045149895234 0.21 0  0.3236728172265972 0.21 0  0.3311411194636928 0.21 0  0.3386094217007701 0.21 0  0.3460777239378666 0.21 0  0.3535460261749672 0.21 0  0.3610143284120516 0.21 0  0.3684826306491596 0.21 0  0.3759509328862226 0.21 0  0.383419235123329 0.21 0  0.3908875373604028 0.21 0  0.3983558395975142 0.21 0  0.4058241418345938 0.21 0  0.4132924440716992 0.21 0  0.4207607463087888 0.21 0  0.4282290485459029 0.21 0  0.4356973507830418 0.21 0  0.4431656530201649 0.21 0  0.4506339552573136 0.21 0  0.4581022574944306 0.21 0  0.4655705597315852 0.21 0  0.4730388619686996 0.21 0  0.480507164205851 0.21 0  0.4879754664429498 0.21 0  0.4954437686800938 0.21 0  0.502912070917267 0.21 0  0.5103803731544119 0.21 0  0.5178486753915261 0.21 0  0.5253169776286404 0.21 0  0.5327852798657868 0.21 0  0.5402535821029386 0.21 0  0.54772188434007 0.21 0  0.5551901865771842 0.21 0  0.5626584888143201 0.21 0  0.5701267910514778 0.21 0  0.5775950932886138 0.21 0  0.5850633955257281 0.21 0  0.5925316977628483 0.21 0  0.6 0.2050000000000054 0  0.6 0.1950000000000217 0  0.5925316977628897 0.19 0  0.5850633955257988 0.19 0  0.5775950932887378 0.19 0  0.5701267910515998 0.19 0  0.5626584888145268 0.19 0  0.5551901865773963 0.19 0  0.547721884340339 0.19 0  0.5402535821032429 0.19 0  0.5327852798661811 0.19 0  0.5253169776290537 0.19 0  0.5178486753919799 0.19 0  0.5103803731549078 0.19 0  0.502912070917822 0.19 0  0.4954437686807294 0.19 0  0.4879754664436223 0.19 0  0.4805071642065402 0.19 0  0.4730388619694271 0.19 0  0.4655705597323621 0.19 0  0.4581022574952563 0.19 0  0.4506339552581777 0.19 0  0.4431656530210671 0.19 0  0.4356973507839815 0.19 0  0.4282290485468779 0.19 0  0.4207607463097617 0.19 0  0.4132924440726327 0.19 0  0.4058241418354857 0.19 0  0.3983558395983636 0.19 0  0.3908875373612097 0.19 0  0.3834192351240934 0.19 0  0.3759509328869369 0.19 0  0.3684826306498175 0.19 0  0.361014328412667 0.19 0  0.3535460261755617 0.19 0  0.3460777239384295 0.19 0  0.3386094217012945 0.19 0  0.3311411194641595 0.19 0  0.3236728172270245 0.19 0  0.3162045149898895 0.19 0  0.3087362127527544 0.19 0  0.3012679105156187 0.19 0  0.2937996082784807 0.19 0  0.2863313060413428 0.19 0  0.2788630038042048 0.19 0  0.2713947015670686 0.19 0  0.2639263993299336 0.19 0  0.2564580970927985 0.19 0  0.2607803159922026 0.2000727136295815 0  0.5887803774232762 0.2001272386983733 0  0.5745072403740523 0.2002044435018727 0  0.5511891430099709 0.2001122610077113 0  0.2751288526855082 0.20000000000002 0  0.5365194309847112 0.1999999999999436 0  0.2894621222999649 0.1998691686390484 0  0.5215828265105155 0.1999999999999228 0  0.3127789816668748 0.1998657885438805 0  0.3274069683451451 0.2000000000000796 0  0.5066462220363641 0.199999999999908 0  0.3650630746574081 0.199866017807523 0  0.476773013087985 0.1999999999998713 0  0.3417402379596385 0.1998691686391011 0  0.3796850840047755 0.200000000000134 0  0.4618364086138087 0.1999999999998546 0  0.4917096175621762 0.1999999999998808 0  0.3946216884789568 0.2000000000001512 0  0.446899804139621 0.1999999999998389 0  0.4089549580935208 0.1998691686391595 0  0.4322718174608562 0.200127451265745 0  0.4201487168029707 0.1999966199048527 0  0.3528922713220932 0.2000185703532356 0  0.5633122436674589 0.1999814296467508 0  0.3006558810093873 0.1999966199048318 0  0.5815926498168407 0.1966545283159175 0  0.2677053789419034 0.1964246479135325 0  0.5290511287476175 0.1970915826863981 0  0.5439877332217911 0.197091582686394 0  0.2825131256993216 0.2035478995978015 0  0.3199386661080599 0.202908417313604 0  0.4842413153250809 0.1970915826863873 0  0.5141145242734466 0.1970915826863843 0  0.3722167817676917 0.2029084173136195 0  0.4693047108508938 0.1970915826863783 0  0.3348752705822316 0.202908417313609 0  0.3871533862418661 0.2029084173136212 0  0.4543681063767183 0.1970915826863795 0  0.4991779197992749 0.1970915826863902 0  0.4020059614928624 0.203547899597858 0  0.4394315019025246 0.1970915826863714 0  0.2550657455369551 0.2034088125358657 0  0.2548908499171161 0.1966940311614271 0  0.5946539510196798 0.2024302972968126 0  0.267698176732111 0.2039977513680092 0  0.4261685417851465 0.196409292431739 0  0.3590076176283495 0.196411355804271 0  0.5571672426447437 0.2036011176410121 0  0.3066757059912147 0.1964092924317024 0  0.594380730180568 0.1966558399668133 0  0.4842413153245942 0.2040749161535287 0  0.4693047108503577 0.2040749161535231 0  0.3871533862424271 0.1959250838464788 0  0.372246743208829 0.1959123236376545 0  0.5141145242731028 0.2040749161535395 0  0.4543681063761134 0.2040749161535186 0  0.4019979587101454 0.1959834479682427 0  0.4394608940728603 0.2040870543693135 0  0.5439623148931173 0.2040856076781014 0  0.5290511287473298 0.2040749161535501 0  0.4991779197988497 0.2040749161535382 0  0.3347912413592433 0.1959225448935183 0  0.3199680582793816 0.1959123018030061 0  0.2825051229162361 0.1959834479681729 0  0.3590471196690275 0.2036304442587945 0  0.5571594006495384 0.1963685282145804 0  0.3067669986803285 0.203627750582736 0  0.4262598344738712 0.2036568242185335 0  0.5814408164431408 0.2041285596160068 0  0.5688286748170428 0.1961819304477386 0  0.4145905603063645 0.2038180695522843 0  0.3473758401724931 0.2038180695522752 0  0.2950977245128307 0.2038180695522663 0  0.5688286748170693 0.203818069552238 0  0.2950977245127906 0.1961819304477774 0  0.3473758401723931 0.1961819304478349 0  0.4145905603061963 0.1961819304479011 0  0.2601812407614425 0.2056861609747042
[...]
<PointData  Vectors="f_40-0"> 
<DataArray  type="Float64"  Name="f_40-0"  NumberOfComponents="3" format="ascii">0.0000000000000000e+00 0.0000000000000000e+00 0.0000000000000000e+00  0.0000000000000000e+00 0.0000000000000000e+00 0.0000000000000000e+00  0.0000000000000000e+00 0.0000000000000000e+00 0.0000000000000000e+00  0.0000000000000000e+00 0.0000000000000000e+00 0.0000000000000000e+00  -2.0511862606451082e-05 2.0207063391066264e-06 0.0000000000000000e+00  -2.0299913689435838e-05 -5.1762054656234394e-06 0.0000000000000000e+00  0.0000000000000000e+00 0.0000000000000000e+00 0.0000000000000000e+00  0.0000000000000000e+00 0.0000000000000000e+00 0.0000000000000000e+00  0.0000000000000000e+00 0.0000000000000000e+00 0.0000000000000000e+00  0.0000000000000000e+00 0.0000000000000000e+00 0.0000000000000000e+00  -2.0446205936206073e-05 -1.5654135505489639e-06 0.0000000000000000e+00  1.5729891951092757e-04 0.0000000000000000e+00 0.0000000000000000e+00  2.9039800525096246e-04 0.0000000000000000e+00 0.0000000000000000e+00  3.9929725722007348e-04 0.0000000000000000e+00 0.0000000000000000e+00  4.8399667541838652e-04 0.0000000000000000e+00 0.0000000000000000e+00  5.4449625984589101e-04 0.0000000000000000e+00 0.0000000000000000e+00  5.8079601050258281e-04 0.0000000000000000e+00 0.0000000000000000e+00  5.9289592738842600e-04 0.0000000000000000e+00 0.0000000000000000e+00  5.8079601050331671e-04 0.0000000000000000e+00 0.0000000000000000e+00  5.4449625984715161e-04 0.0000000000000000e+00 0.0000000000000000e+00  4.8399667541994772e-04 0.0000000000000000e+00 0.0000000000000000e+00  3.9929725722155651e-04 0.0000000000000000e+00 0.0000000000000000e+00  2.9039800525222805e-04 0.0000000000000000e+00 0.0000000000000000e+00  1.5729891951164065e-04 0.0000000000000000e+00 0.0000000000000000e+00  0.0000000000000000e+00 0.0000000000000000e+00 0.0000000000000000e+00  0.0000000000000000e+00 0.0000000000000000e+00 0.0000000000000000e+00  0.0000000000000000e+00 0.0000000000000000e+00 0.0000000000000000e+00  0.0000000000000000e+00 0.0000000000000000e+00 0.0000000000000000e+00  0.0000000000000000e+00 0.0000000000000000e+00 0.0000000000000000e+00  0.0000000000000000e+00 0.0000000000000000e+00 0.0000000000000000e+00  0.0000000000000000e+00 0.0000000000000000e+00 0.0000000000000000e+00  0.0000000000000000e+00 0.0000000000000000e+00 0.0000000000000000e+00  0.0000000000000000e+00 0.0000000000000000e+00 0.0000000000000000e+00  0.0000000000000000e+00 0.0000000000000000e+00 0.0000000000000000e+00  0.0000000000000000e+00 0.0000000000000000e+00 0.0000000000000000e+00  0.0000000000000000e+00 0.0000000000000000e+00 0.0000000000000000e+00  0.0000000000000000e+00 0.0000000000000000e+00 0.0000000000000000e+00  0.0000000000000000e+00 0.0000000000000000e+00 0.0000000000000000e+00  0.0000000000000000e+00 0.0000000000000000e+00 0.0000000000000000e+00  0.0000000000000000e+00 0.0000000000000000e+00 0.0000000000000000e+00  0.0000000000000000e+00 0.0000000000000000e+00 0.0000000000000000e+00  0.0000000000000000e+00 0.0000000000000000e+00 0.0000000000000000e+00  0.0000000000000000e+00 0.0000000000000000e+00 0.0000000000000000e+00  0.0000000000000000e+00 0.0000000000000000e+00 0.0000000000000000e+00  0.0000000000000000e+00 0.0000000000000000e+00 0.0000000000000000e+00  0.0000000000000000e+00 0.0000000000000000e+00 0.0000000000000000e+00  0.0000000000000000e+00 0.0000000000000000e+00 0.0000000000000000e+00  0.0000000000000000e+00 0.0000000000000000e+00 0.0000000000000000e+00  0.0000000000000000e+00 0.0000000000000000e+00 0.0000000000000000e+00  0.0000000000000000e+00 0.0000000000000000e+00 0.0000000000000000e+00  0.0000000000000000e+00 0.0000000000000000e+00 0.0000000000000000e+00  0.0000000000000000e+00 0.0000000000000000e+00 0.0000000000000000e+00  0.0000000000000000e+00 0.0000000000000000e+00 0.0000000000000000e+00  0.0000000000000000e+00 0.0000000000000000e+00 0.0000000000000000e+00  0.0000000000000000e+00 0.0000000000000000e+00 0.0000000000000000e+00  0.0000000000000000e+00 0.0000000000000000e+00 0.0000000000000000e+00  0.0000000000000000e+00 0.0000000000000000e+00 0.0000000000000000e+00  0.0000000000000000e+00 0.0000000000000000e+00 0.0000000000000000e+00  0.0000000000000000e+00 0.0000000000000000e+00 0.0000000000000000e+00  0.0000000000000000e+00 0.0000000000000000e+00 0.0000000000000000e+00  0.0000000000000000e+00 0.0000000000000000e+00 0.0000000000000000e+00  0.0000000000000000e+00 0.0000000000000000e+00 0.0000000000000000e+00  5.2089617980976242e-04 1.6561002729064671e-05 0.0000000000000000e+00  3.8080373839056921e-04 1.6756717942834090e-06 0.0000000000000000e+00  5.0657290477346757e-04 -3.0847433767754555e-05 0.0000000000000000e+00  0.0000000000000000e+00 0.0000000000000000e+00 0.0000000000000000e+00  0.0000000000000000e+00 0.0000000000000000e+00 0.0000000000000000e+00  0.0000000000000000e+00 0.0000000000000000e+00 0.0000000000000000e+00  0.0000000000000000e+00 0.0000000000000000e+00 0.0000000000000000e+00  0.0000000000000000e+00 0.0000000000000000e+00 0.0000000000000000e+00  0.0000000000000000e+00 0.0000000000000000e+00 0.0000000000000000e+00  0.0000000000000000e+00 0.0000000000000000e+00 0.0000000000000000e+00  0.0000000000000000e+00 0.0000000000000000e+00 0.0000000000000000e+00  0.0000000000000000e+00 0.0000000000000000e+00 0.0000000000000000e+00  0.0000000000000000e+00 0.0000000000000000e+00 0.0000000000000000e+00  0.0000000000000000e+00 0.0000000000000000e+00 0.0000000000000000e+00  0.0000000000000000e+00 0.0000000000000000e+00 0.0000000000000000e+00  0.0000000000000000e+00 0.0000000000000000e+00 0.0000000000000000e+00  0.0000000000000000e+00 0.0000000000000000e+00 0.0000000000000000e+00  0.0000000000000000e+00 0.0000000000000000e+00 0.0000000000000000e+00  0.0000000000000000e+00 0.0000000000000000e+00 0.0000000000000000e+00  0.0000000000000000e+00 0.0000000000000000e+00 0.0000000000000000e+00  0.0000000000000000e+00 0.0000000000000000e+00 0.0000000000000000e+00  0.0000000000000000e+00 0.0000000000000000e+00 0.0000000000000000e+00  0.0000000000000000e+00 0.0000000000000000e+00 0.0000000000000000e+00  0.0000000000000000e+00 0.0000000000000000e+00 0.0000000000000000e+00  0.0000000000000000e+00 0.0000000000000000e+00 0.0000000000000000e+00  0.0000000000000000e+00 0.0000000000000000e+00 0.0000000000000000e+00  0.0000000000000000e+00 0.0000000000000000e+00 0.0000000000000000e+00  0.0000000000000000e+00 0.0000000000000000e+00 0.0000000000000000e+00  0.0000000000000000e+00 0.0000000000000000e+00 0.0000000000000000e+00  0.0000000000000000e+00 0.0000000000000000e+00 0.0000000000000000e+00  0.0000000000000000e+00 0.0000000000000000e+00 0.0000000000000000e+00  0.0000000000000000e+00 0.0000000000000000e+00 0.0000000000000000e+00  0.0000000000000000e+00 0.0000000000000000e+00 0.0000000000000000e+00  0.0000000000000000e+00 0.0000000000000000e+00 0.0000000000000000e+00  0.0000000000000000e+00 0.0000000000000000e+00 0.0000000000000000e+00  0.0000000000000000e+00 0.0000000000000000e+00 0.0000000000000000e+00  0.0000000000000000e+00 0.0000000000000000e+00 0.0000000000000000e+00  0.0000000000000000e+00 0.0000000000000000e+00 0.0000000000000000e+00  0.0000000000000000e+00 0.0000000000000000e+00 0.0000000000000000e+00  0.0000000000000000e+00 0.0000000000000000e+00 0.0000000000000000e+00  0.0000000000000000e+00 0.0000000000000000e+00 0.0000000000000000e+00  0.0000000000000000e+00 0.0000000000000000e+00 0.0000000000000000e+00  0.0000000000000000e+00 0.0000000000000000e+00 0.0000000000000000e+00  0.0000000000000000e+00 0.0000000000000000e+00 0.0000000000000000e+00  0.0000000000000000e+00 0.0000000000000000e+00 0.0000000000000000e+00  0.0000000000000000e+00 0.0000000000000000e+00 0.0000000000000000e+00  0.0000000000000000e+00 0.0000000000000000e+00 0.0000000000000000e+00  0.0000000000000000e+00 0.0000000000000000e+00 0.0000000000000000e+00  0.0000000000000000e+00 0.0000000000000000e+00 0.0000000000000000e+00  0.0000000000000000e+00 0.0000000000000000e+00 0.0000000000000000e+00  0.0000000000000000e+00 0.0000000000000000e+00 0.0000000000000000e+00  0.0000000000000000e+00 0.0000000000000000e+00 0.0000000000000000e+00  0.0000000000000000e+00 0.0000000000000000e+00 0.0000000000000000e+00  0.0000000000000000e+00 0.0000000000000000e+00 0.0000000000000000e+00  0.0000000000000000e+00 0.0000000000000000e+00 0.0000000000000000e+00  0.0000000000000000e+00 0.0000000000000000e+00 0.0000000000000000e+00  0.0000000000000000e+00 0.0000000000000000e+00 0.0000000000000000e+00  0.0000000000000000e+00 0.0000000000000000e+00 0.0000000000000000e+00  0.0000000000000000e+00 0.0000000000000000e+00 0.0000000000000000e+00  0.0000000000000000e+00 0.0000000000000000e+00 0.0000000000000000e+00  0.0000000000000000e+00 0.0000000000000000e+00 0.0000000000000000e+00  0.0000000000000000e+00 0.0000000000000000e+00 0.0000000000000000e+00  0.0000000000000000e+00 0.0000000000000000e+00 0.0000000000000000e+00  0.0000000000000000e+00 0.0000000000000000e+00 0.0000000000000000e+00  0.0000000000000000e+00 0.0000000000000000e+00 0.0000000000000000e+00  0.0000000000000000e+00 0.0000000000000000e+00 0.0000000000000000e+00  0.0000000000000000e+00 0.0000000000000000e+00 0.0000000000000000e+00  0.0000000000000000e+00 0.0000000000000000e+00 0.0000000000000000e+00  0.0000000000000000e+00 0.0000000000000000e+00 0.0000000000000000e+00  0.0000000000000000e+00 0.0000000000000000e+00 0.0000000000000000e+00  0.0000000000000000e+00 0.0000000000000000e+00 0.0000000000000000e+00  0.0000000000000000e+00 0.0000000000000000e+00 0.0000000000000000e+00  0.0000000000000000e+00 0.0000000000000000e+00 0.0000000000000000e+00  0.0000000000000000e+00 0.0000000000000000e+00 0.0000000000000000e+00  0.0000000000000000e+00 0.0000000000000000e+00 0.0000000000000000e+00  0.0000000000000000e+00 0.0000000000000000e+00 0.0000000000000000e+00  0.0000000000000000e+00 0.0000000000000000e+00 0.0000000000000000e+00  0.0000000000000000e+00 0.0000000000000000e+00 0.0000000000000000e+00  0.0000000000000000e+00 0.0000000000000000e+00 0.0000000000000000e+00  0.0000000000000000e+00 0.0000000000000000e+00 0.0000000000000000e+00  0.0000000000000000e+00 0.0000000000000000e+00 0.0000000000000000e+00  9.6449442934876942e-08 -6.9041251175738894e-06 0.0000000000000000e+00  4.0546144483256422e-07 -7.4137524473211162e-06 0.0000000000000000e+00  1.0858452022812445e-06 -7.5387033249213340e-06 0.0000000000000000e+00  1.9350495022205283e-06 -7.4428679936238870e-06 0.0000000000000000e+00  2.8432083406384218e-06 -7.3625628293826380e-06 0.0000000000000000e+00  3.7057412105502861e-06 -7.3395430626868128e-06 0.0000000000000000e+00  4.5381415428924101e-06 -7.3145556909617468e-06 0.0000000000000000e+00  5.3127593963319478e-06 -7.2913992140669665e-06 0.0000000000000000e+00  6.0507478284126869e-06 -7.2704998983164358e-06 0.0000000000000000e+00  6.7352255015435550e-06 -7.2372787531437166e-06 0.0000000000000000e+00  7.3673655529327048e-06 -7.2142149473995552e-06 0.0000000000000000e+00  7.9456892679174893e-06 -7.1642721376742672e-06 0.0000000000000000e+00  8.4561622451818959e-06 -7.1100703603489470e-06 0.0000000000000000e+00  8.9217905003148054e-06 -7.0523990044385918e-06 0.0000000000000000e+00  9.3056650624446095e-06 -6.9766273343102966e-06 0.0000000000000000e+00  9.6410623335730868e-06 -6.9064205351327691e-06 0.0000000000000000e+00  9.9076498768121156e-06 -6.8053209288162988e-06 0.0000000000000000e+00  1.0104117004855540e-05 -6.7283213819580984e-06 0.0000000000000000e+00  1.0235666241647088e-05 -6.6158625023517594e-06 0.0000000000000000e+00  1.0298420165913332e-05 -6.5319122721147710e-06 0.0000000000000000e+00  1.0290522306049407e-05 -6.4156766262553838e-06 0.0000000000000000e+00  1.0197822037768091e-05 -6.3136825135502671e-06 0.0000000000000000e+00  1.0051788082623569e-05 -6.2197120810274100e-06 0.0000000000000000e+00  9.8036415755038044e-06 -6.1215713327799595e-06 0.0000000000000000e+00  9.4995101810310224e-06 -6.0478354870099607e-06 0.0000000000000000e+00  9.0994085909407111e-06 -5.9507836659462758e-06 0.0000000000000000e+00  8.6137456047680362e-06 -5.9127595971279903e-06 0.0000000000000000e+00  8.0452447908738997e-06 -5.8376550251097533e-06 0.0000000000000000e+00  7.3822288497980306e-06 -5.8166488301567763e-06 0.0000000000000000e+00  6.6344531465340092e-06 -5.7678550798187163e-06 0.0000000000000000e+00  5.7924678531080401e-06 -5.7609429322574231e-06 0.0000000000000000e+00  4.8539580674516423e-06 -5.7246444177389218e-06 0.0000000000000000e+00  3.8335186877508087e-06 -5.7286654090374788e-06 0.0000000000000000e+00  2.7075917978660492e-06 -5.6756115541790210e-06 0.0000000000000000e+00  1.4738239759190077e-06 -5.6762144649192695e-06 0.0000000000000000e+00  1.5514285139784676e-07 -5.6373462624927128e-06 0.0000000000000000e+00  -1.2556111060366316e-06 -5.6335794480128755e-06 0.0000000000000000e+00  -2.7544166708391013e-06 -5.5774078499547613e-06 0.0000000000000000e+00  -4.3514126988462635e-06 -5.5435621040859784e-06 0.0000000000000000e+00  -6.0431775152959701e-06 -5.4710092412770507e-06 0.0000000000000000e+00  -7.8294704884944968e-06 -5.4163085355627351e-06 0.0000000000000000e+00  -9.6851970778702598e-06 -5.3463995061155741e-06 0.0000000000000000e+00  -1.1658587460993045e-05 -5.2860041731843115e-06 0.0000000000000000e+00  -1.3688682051988193e-05 -5.2317885831926003e-06 0.0000000000000000e+00  -1.5813079960129405e-05 -5.1638834048748302e-06 0.0000000000000000e+00  -1.8024294485384610e-05 -5.1185328196577083e-06 0.0000000000000000e+00  -2.0406863699956066e-05 -3.3746241732316366e-06 0.0000000000000000e+00  -2.0499618729523764e-05 2.4192585090871545e-07 0.0000000000000000e+00  -1.8207759659350300e-05 2.1305132448601196e-06 0.0000000000000000e+00  -1.5977354001694901e-05 2.2994694905232227e-06 0.0000000000000000e+00  -1.3836199304136503e-05 2.4793210946470478e-06 0.0000000000000000e+00  -1.1793641197080098e-05 2.6400515069575936e-06 0.0000000000000000e+00  -9.8173050440993528e-06 2.7975326470697445e-06 0.0000000000000000e+00  -7.9640093901660268e-06 2.9534419240033919e-06 0.0000000000000000e+00  -6.1875538991921812e-06 3.1067297677998053e-06 0.0000000000000000e+00  -4.5125172548707072e-06 3.2760922829867333e-06 0.0000000000000000e+00  -2.9289122982963001e-06 3.4280943824404648e-06 0.0000000000000000e+00  -1.4385012350236716e-06 3.6252132420406762e-06 0.0000000000000000e+00  -4.4877574886925456e-08 3.8018684903193486e-06 0.0000000000000000e+00  1.2574035903543813e-06 4.0110914057815951e-06 0.0000000000000000e+00  2.4684308900327891e-06 4.1880194027249122e-06 0.0000000000000000e+00  3.5930523112883943e-06 4.3951033951307779e-06 0.0000000000000000e+00  4.6322004408611989e-06 4.5714529613312197e-06 0.0000000000000000e+00  5.5813366127060516e-06 4.7785208434698699e-06 0.0000000000000000e+00  6.4429247238260356e-06 4.9523699362716456e-06 0.0000000000000000e+00  7.2112337273563566e-06 5.1441555680981478e-06 0.0000000000000000e+00  7.8961483517763813e-06 5.2899147578165813e-06 0.0000000000000000e+00  8.4948202573558873e-06 5.4503434775193610e-06 0.0000000000000000e+00  9.0147612196316288e-06 5.5685762936518560e-06 0.0000000000000000e+00  9.4449575267975413e-06 5.7025357152372498e-06 0.0000000000000000e+00  9.7839779328015200e-06 5.8099594980625776e-06 0.0000000000000000e+00  1.0051525914640634e-05 5.9096032458871729e-06 0.0000000000000000e+00  1.0211610514605532e-05 5.9967094904135944e-06 0.0000000000000000e+00  1.0317557009330063e-05 6.0672277084698045e-06 0.0000000000000000e+00  1.0334567241562850e-05 6.1538127194695810e-06 0.0000000000000000e+00  1.0277880621503854e-05 6.2054383344435821e-06 0.0000000000000000e+00  1.0142846565166227e-05 6.2983924926726289e-06 0.0000000000000000e+00  9.9308062397569969e-06 6.3510301689976972e-06 0.0000000000000000e+00  9.6505375830082575e-06 6.4391775639844837e-06 0.0000000000000000e+00  9.2963715840419043e-06 6.5055220391800011e-06 0.0000000000000000e+00  8.8968269113826420e-06 6.5906528325443714e-06 0.0000000000000000e+00  8.4161150834118693e-06 6.6757099146824024e-06 0.0000000000000000e+00  7.8902912783745270e-06 6.7678318438096468e-06 0.0000000000000000e+00  7.3008945150891176e-06 6.8683752288690834e-06 0.0000000000000000e+00  6.6600444386478805e-06 6.9505591482964442e-06 0.0000000000000000e+00  5.9720749590108110e-06 7.0515171805557369e-06 0.0000000000000000e+00  5.2363960466319923e-06 7.1392387317293074e-06 0.0000000000000000e+00  4.4693114279146742e-06 7.2255400097362303e-06 0.0000000000000000e+00  3.6494711063485282e-06 7.3032552561552149e-06 0.0000000000000000e+00  2.8072908471816697e-06 7.3663976470827076e-06 0.0000000000000000e+00  1.9175773790532194e-06 7.4736505123483577e-06 0.0000000000000000e+00  1.0960975189910833e-06 7.5616773771203968e-06 0.0000000000000000e+00  4.1615598235764613e-07 7.4204465474773612e-06 0.0000000000000000e+00  8.0374040598611063e-08 6.8715886397242144e-06 0.0000000000000000e+00  -1.0420478448865882e-06 -4.3394247763628803e-08 0.0000000000000000e+00  -1.6991529860093193e-05 -1.5033813722150882e-06 0.0000000000000000e+00  -1.2867826549235716e-05 -1.4292703696012816e-06 0.0000000000000000e+00  -6.8920104676954803e-06 -1.2551721253640133e-06 0.0000000000000000e+00  1.4799737360370501e-06 1.5073724662889931e-08 0.0000000000000000e+00  -3.5963321999764251e-06 -1.1071453341026022e-06 0.0000000000000000e+00  3.2021129317375736e-06 9.5504374716607753e-08 0.0000000000000000e+00  -6.0471164060331085e-07 -9.6525853666576772e-07 0.0000000000000000e+00  5.6918101487576424e-06 2.7871907749499986e-09 0.0000000000000000e+00  7.0331509868029548e-06 -1.6049421262792120e-07 0.0000000000000000e+00  2.0161910335905749e-06 -7.9425887001662604e-07 0.0000000000000000e+00  9.5185379878355407e-06 -1.4942115688725114e-07 0.0000000000000000e+00  6.1489738758443954e-06 -4.4441562709378139e-07 0.0000000000000000e+00  8.1594997936766268e-06 -1.1940872804255798e-07 0.0000000000000000e+00  1.0047743953868486e-05 -2.2493519016442039e-07 0.0000000000000000e+00  7.6700033892459485e-06 -2.9902722439136208e-07 0.0000000000000000e+00  4.2665657824206752e-06 -6.1704274171319138e-07 0.0000000000000000e+00  1.0316928722482632e-05 -1.9519945793426034e-07 0.0000000000000000e+00  8.8396674432105207e-06 -2.0222004270614129e-07 0.0000000000000000e+00  1.0300846572599650e-05 -8.2216083622620710e-08 0.0000000000000000e+00  9.6581962996944098e-06 -2.3171466503474281e-07 0.0000000000000000e+00  1.0075707274317796e-05 -1.5016591368021894e-07 0.0000000000000000e+00  8.8737198274631909e-06 -2.4556386535954725e-07 0.0000000000000000e+00  -9.9039383010523950e-06 -1.2715981399846918e-06 0.0000000000000000e+00  4.4376768902567540e-06 -3.8001594725832678e-08 0.0000000000000000e+00  -1.4904758419614628e-05 -1.3974863807495461e-07 0.0000000000000000e+00  3.7380991967711153e-07 2.8308500003370049e-06 0.0000000000000000e+00  -2.0862350414402250e-06 2.8613738003223597e-07 0.0000000000000000e+00  -5.2609409486826346e-06 1.0344773070630582e-07 0.0000000000000000e+00  2.3867804554855071e-06 -2.6136915146391190e-06 0.0000000000000000e+00  6.3786306705754232e-06 -2.2006102546905380e-06 0.0000000000000000e+00  5.2156988846294527e-06 9.8508749053945521e-07 0.0000000000000000e+00  7.1523342795512258e-07 5.1089062485089322e-07 0.0000000000000000e+00  9.8017482537564048e-06 -2.1612087426753808e-06 0.0000000000000000e+00  6.9219166956587577e-06 1.2098585887042200e-06 0.0000000000000000e+00  7.6500595627112759e-06 -2.2264546013233173e-06 0.0000000000000000e+00  1.0206880200708520e-05 -2.0912673201739427e-06 0.0000000000000000e+00  8.2721888811891806e-06 1.3910456813963897e-06 0.0000000000000000e+00  3.1463211916582430e-06 7.4775692119061182e-07 0.0000000000000000e+00  1.0330317925470334e-05 -2.4135102631122157e-06 0.0000000000000000e+00  9.2808354867755471e-06 1.5184718488954583e-06 0.0000000000000000e+00  -1.3173378892563107e-06 -1.6656049727405378e-06 0.0000000000000000e+00  -1.2972331685843785e-06 1.5038230120228343e-06 0.0000000000000000e+00  -1.8766523653057818e-05 -2.3939755531296638e-06 0.0000000000000000e+00  3.9863884436073367e-07 -3.1235276855424617e-06 0.0000000000000000e+00  9.8900709376529856e-06 2.00