<?xml version="1.0"?>
<VTKFile type="UnstructuredGrid"  version="0.1"  >
<UnstructuredGrid>
<Piece  NumberOfPoints="1419" NumberOfCells="2698">
<Points>
<DataArray  type="Float64"  NumberOfComponents="3"  format="ascii">0 0 0  0 0.41 0  2.5 0 0  2.5 0.41 0  0.6 0.19 0  0.6 0.21 0  0.25 0.2 0  0.15 0.2 0  0.2489897948556636 0.21 0  0.2489897948556636 0.19 0  0.6 0.2 0  0 0.3807142857143437 0  0 0.3514285714286952 0  0 0.3221428571430699 0  0 0.29285714285744 0  0 0.2635714285718054 0  0 0.2342857142861561 0  0 0.2050000000005308 0  0 0.175714285714732 0  0 0.1464285714289574 0  0 0.1171428571431897 0  0 0.08785714285737878 0  0 0.05857142857161107 0  0 0.02928571428580012 0  0.03015443760436003 0 0  0.06140001986583606 0 0  0.09377624077125973 0 0  0.1273239957535082 0 0  0.1620856860351972 0 0  0.1981052433264291 0 0  0.235428184091502 0 0  0.2741016576309132 0 0  0.3141745521465447 0 0  0.3556974926295285 0 0  0.3987229542472677 0 0  0.4433053055141081 0 0  0.4895008759286886 0 0  0.5373680609405097 0 0  0.5869673343216626 0 0  0.6383613676634521 0 0  0.6916151138468254 0 0  0.7467958595648856 0 0  0.8039733463919316 0 0  0.8632198139502143 0 0  0.9246101326867038 0 0  0.9882218810934433 0 0  1.054135445558498 0 0  1.122434100542598 0 0  1.193204177141305 0 0  1.266535089879536 0 0  1.342519516046404 0 0  1.421253448503939 0 0  1.502836389106271 0 0  1.587371439758838 0 0  1.674965418777374 0 0  1.765729001825544 0 0  1.859776908880082 0 0  1.957227977487062 0 0  2.058205329869943 0 0  2.162836591189951 0 0  2.271253957290865 0 0  2.383594446803425 0 0  2.5 0.1024999999997612 0  2.5 0.2049999999994743 0  2.5 0.3074999999997183 0  2.383594446803656 0.41 0  2.271253957291315 0.41 0  2.162836591190598 0.41 0  2.058205329870775 0.41 0  1.957227977488067 0.41 0  1.859776908881246 0.41 0  1.765729001826854 0.41 0  1.674965418778818 0.41 0  1.58737143976041 0.41 0  1.502836389107956 0.41 0  1.421253448505726 0.41 0  1.342519516048286 0.41 0  1.266535089881505 0.41 0  1.193204177143353 0.41 0  1.122434100544716 0.41 0  1.05413544556068 0.41 0  0.9882218810956305 0.41 0  0.9246101326886647 0.41 0  0.8632198139519631 0.41 0  0.8039733463934788 0.41 0  0.7467958595662458 0.41 0  0.6916151138480078 0.41 0  0.6383613676644679 0.41 0  0.5869673343225223 0.41 0  0.5373680609412221 0.41 0  0.4895008759292634 0.41 0  0.4433053055145528 0.41 0  0.3987229542475914 0.41 0  0.3556974926297398 0.41 0  0.3141745521466497 0.41 0  0.2741016576310038 0.41 0  0.2354281840915826 0.41 0  0.1981052433265003 0.41 0  0.1620856860352591 0.41 0  0.1273239957535623 0.41 0  0.09377624077128965 0.41 0  0.06140001986584975 0.41 0  0.03015443760436654 0.41 0  0.2497468076502589 0.2050254481002335 0  0.2497468076502614 0.1949745518997913 0  0.2469965252529372 0.1829317073451959 0  0.2439893735792749 0.1762316384219906 0  0.2400332147834255 0.1700443375285386 0  0.2352133972704371 0.1645032867342007 0  0.2296339016332438 0.1597280261969788 0  0.2234150974217223 0.1558215752574715 0  0.2166911463437691 0.1528682099456123 0  0.2096071079204251 0.1509316448471593 0  0.2023158100364996 0.1500536585536553 0  0.194974551899914 0.1502531923497262 0  0.1877417105387872 0.1515259415822739 0  0.1807733240461124 0.153844448527136 0  0.1742197252835808 0.15715869474974 0  0.1682222986673531 0.1613971801805478 0  0.162910430003803 0.1664684656256651 0  0.1583987151779087 0.1722631454351573 0  0.1547844879126891 0.178656207771761 0  0.1521457199348551 0.1855097315605723 0  0.1505393388476355 0.1926758619366523 0  0.1505393388476328 0.2073241380633295 0  0.1521457199348437 0.2144902684393899 0  0.1547844879126531 0.221343792228163 0  0.1583987151778488 0.2277368545647528 0  0.1629104300036858 0.2335315343742052 0  0.1682222986671726 0.2386028198193036 0  0.1742197252833576 0.2428413052501257 0  0.1807733240458683 0.2461555514727623 0  0.1877417105384929 0.2484740584176516 0  0.1949745518995776 0.2497468076502398 0  0.202315810036185 0.2499463414463592 0  0.2096071079201568 0.2490683551528932 0  0.2166911463435495 0.2471317900544655 0  0.2234150974215506 0.2441784247426195 0  0.2296339016331197 0.2402719738031125 0  0.2352133972703547 0.2354967132658811 0  0.2400332147833751 0.2299556624715287 0  0.2439893735792577 0.2237683615780412 0  0.246996525252926 0.2170682926548348 0  0.25645809709277 0.21 0  0.2639263993298655 0.21 0  0.271394701566961 0.21 0  0.2788630038040554 0.21 0  0.2863313060411479 0.21 0  0.2937996082782405 0.21 0  0.301267910515333 0.21 0  0.3087362127524279 0.21 0  0.3162045149895234 0.21 0  0.3236728172265972 0.21 0  0.3311411194636928 0.21 0  0.3386094217007701 0.21 0  0.3460777239378666 0.21 0  0.3535460261749672 0.21 0  0.3610143284120516 0.21 0  0.3684826306491596 0.21 0  0.3759509328862226 0.21 0  0.383419235123329 0.21 0  0.3908875373604028 0.21 0  0.3983558395975142 0.21 0  0.4058241418345938 0.21 0  0.4132924440716992 0.21 0  0.4207607463087888 0.21 0  0.4282290485459029 0.21 0  0.4356973507830418 0.21 0  0.4431656530201649 0.21 0  0.4506339552573136 0.21 0  0.4581022574944306 0.21 0  0.4655705597315852 0.21 0  0.4730388619686996 0.21 0  0.480507164205851 0.21 0  0.4879754664429498 0.21 0  0.4954437686800938 0.21 0  0.502912070917267 0.21 0  0.5103803731544119 0.21 0  0.5178486753915261 0.21 0  0.5253169776286404 0.21 0  0.5327852798657868 0.21 0  0.5402535821029386 0.21 0  0.54772188434007 0.21 0  0.5551901865771842 0.21 0  0.5626584888143201 0.21 0  0.5701267910514778 0.21 0  0.5775950932886138 0.21 0  0.5850633955257281 0.21 0  0.5925316977628483 0.21 0  0.6 0.2050000000000054 0  0.6 0.1950000000000217 0  0.5925316977628897 0.19 0  0.5850633955257988 0.19 0  0.5775950932887378 0.19 0  0.5701267910515998 0.19 0  0.5626584888145268 0.19 0  0.5551901865773963 0.19 0  0.547721884340339 0.19 0  0.5402535821032429 0.19 0  0.5327852798661811 0.19 0  0.5253169776290537 0.19 0  0.5178486753919799 0.19 0  0.5103803731549078 0.19 0  0.502912070917822 0.19 0  0.4954437686807294 0.19 0  0.4879754664436223 0.19 0  0.4805071642065402 0.19 0  0.4730388619694271 0.19 0  0.4655705597323621 0.19 0  0.4581022574952563 0.19 0  0.4506339552581777 0.19 0  0.4431656530210671 0.19 0  0.4356973507839815 0.19 0  0.4282290485468779 0.19 0  0.4207607463097617 0.19 0  0.4132924440726327 0.19 0  0.4058241418354857 0.19 0  0.3983558395983636 0.19 0  0.3908875373612097 0.19 0  0.3834192351240934 0.19 0  0.3759509328869369 0.19 0  0.3684826306498175 0.19 0  0.361014328412667 0.19 0  0.3535460261755617 0.19 0  0.3460777239384295 0.19 0  0.3386094217012945 0.19 0  0.3311411194641595 0.19 0  0.3236728172270245 0.19 0  0.3162045149898895 0.19 0  0.3087362127527544 0.19 0  0.3012679105156187 0.19 0  0.2937996082784807 0.19 0  0.2863313060413428 0.19 0  0.2788630038042048 0.19 0  0.2713947015670686 0.19 0  0.2639263993299336 0.19 0  0.2564580970927985 0.19 0  0.2607803159922026 0.2000727136295815 0  0.5887803774232762 0.2001272386983733 0  0.5745072403740523 0.2002044435018727 0  0.5511891430099709 0.2001122610077113 0  0.2751288526855082 0.20000000000002 0  0.5365194309847112 0.1999999999999436 0  0.2894621222999649 0.1998691686390484 0  0.5215828265105155 0.1999999999999228 0  0.3127789816668748 0.1998657885438805 0  0.3274069683451451 0.2000000000000796 0  0.5066462220363641 0.199999999999908 0  0.3650630746574081 0.199866017807523 0  0.476773013087985 0.1999999999998713 0  0.3417402379596385 0.1998691686391011 0  0.3796850840047755 0.200000000000134 0  0.4618364086138087 0.1999999999998546 0  0.4917096175621762 0.1999999999998808 0  0.3946216884789568 0.2000000000001512 0  0.446899804139621 0.1999999999998389 0  0.4089549580935208 0.1998691686391595 0  0.4322718174608562 0.200127451265745 0  0.4201487168029707 0.1999966199048527 0  0.3528922713220932 0.2000185703532356 0  0.5633122436674589 0.1999814296467508 0  0.3006558810093873 0.1999966199048318 0  0.5815926498168407 0.1966545283159175 0  0.2677053789419034 0.1964246479135325 0  0.5290511287476175 0.1970915826863981 0  0.5439877332217911 0.197091582686394 0  0.2825131256993216 0.2035478995978015 0  0.3199386661080599 0.202908417313604 0  0.4842413153250809 0.1970915826863873 0  0.5141145242734466 0.1970915826863843 0  0.3722167817676917 0.2029084173136195 0  0.4693047108508938 0.1970915826863783 0  0.3348752705822316 0.202908417313609 0  0.3871533862418661 0.2029084173136212 0  0.4543681063767183 0.1970915826863795 0  0.4991779197992749 0.1970915826863902 0  0.4020059614928624 0.203547899597858 0  0.4394315019025246 0.1970915826863714 0  0.2550657455369551 0.2034088125358657 0  0.2548908499171161 0.1966940311614271 0  0.5946539510196798 0.2024302972968126 0  0.267698176732111 0.2039977513680092 0  0.4261685417851465 0.196409292431739 0  0.3590076176283495 0.196411355804271 0  0.5571672426447437 0.2036011176410121 0  0.3066757059912147 0.1964092924317024 0  0.594380730180568 0.1966558399668133 0  0.4842413153245942 0.2040749161535287 0  0.4693047108503577 0.2040749161535231 0  0.3871533862424271 0.1959250838464788 0  0.372246743208829 0.1959123236376545 0  0.5141145242731028 0.2040749161535395 0  0.4543681063761134 0.2040749161535186 0  0.4019979587101454 0.1959834479682427 0  0.4394608940728603 0.2040870543693135 0  0.5439623148931173 0.2040856076781014 0  0.5290511287473298 0.2040749161535501 0  0.4991779197988497 0.2040749161535382 0  0.3347912413592433 0.1959225448935183 0  0.3199680582793816 0.1959123018030061 0  0.2825051229162361 0.1959834479681729 0  0.3590471196690275 0.2036304442587945 0  0.5571594006495384 0.1963685282145804 0  0.3067669986803285 0.203627750582736 0  0.4262598344738712 0.2036568242185335 0  0.5814408164431408 0.2041285596160068 0  0.5688286748170428 0.1961819304477386 0  0.4145905603063645 0.2038180695522843 0  0.3473758401724931 0.2038180695522752 0  0.2950977245128307 0.2038180695522663 0  0.5688286748170693 0.203818069552238 0  0.2950977245127906 0.1961819304477774 0  0.3473758401723931 0.1961819304478349 0  0.4145905603061963 0.1961819304479011 0  0.2601812407614425 0.2056861609747042
[...]
<PointData  Vectors="f_40-0"> 
<DataArray  type="Float64"  Name="f_40-0"  NumberOfComponents="3" format="ascii">0.0000000000000000e+00 0.0000000000000000e+00 0.0000000000000000e+00  0.0000000000000000e+00 0.0000000000000000e+00 0.0000000000000000e+00  0.0000000000000000e+00 0.0000000000000000e+00 0.0000000000000000e+00  0.0000000000000000e+00 0.0000000000000000e+00 0.0000000000000000e+00  -6.3315387761704395e-06 -1.0088392695177778e-03 0.0000000000000000e+00  7.4404109260127653e-05 -1.0131532634327317e-03 0.0000000000000000e+00  0.0000000000000000e+00 0.0000000000000000e+00 0.0000000000000000e+00  0.0000000000000000e+00 0.0000000000000000e+00 0.0000000000000000e+00  0.0000000000000000e+00 0.0000000000000000e+00 0.0000000000000000e+00  0.0000000000000000e+00 0.0000000000000000e+00 0.0000000000000000e+00  3.3423701174865933e-05 -1.0109774576806947e-03 0.0000000000000000e+00  1.5158506098864344e-01 0.0000000000000000e+00 0.0000000000000000e+00  2.7984934336366801e-01 0.0000000000000000e+00 0.0000000000000000e+00  3.8479284712504352e-01 0.0000000000000000e+00 0.0000000000000000e+00  4.6641557227289160e-01 0.0000000000000000e+00 0.0000000000000000e+00  5.2471751880720163e-01 0.0000000000000000e+00 0.0000000000000000e+00  5.5969868672796996e-01 0.0000000000000000e+00 0.0000000000000000e+00  5.7135907603516201e-01 0.0000000000000000e+00 0.0000000000000000e+00  5.5969868672867729e-01 0.0000000000000000e+00 0.0000000000000000e+00  5.2471751880841644e-01 0.0000000000000000e+00 0.0000000000000000e+00  4.6641557227439617e-01 0.0000000000000000e+00 0.0000000000000000e+00  3.8479284712647283e-01 0.0000000000000000e+00 0.0000000000000000e+00  2.7984934336488754e-01 0.0000000000000000e+00 0.0000000000000000e+00  1.5158506098933064e-01 0.0000000000000000e+00 0.0000000000000000e+00  0.0000000000000000e+00 0.0000000000000000e+00 0.0000000000000000e+00  0.0000000000000000e+00 0.0000000000000000e+00 0.0000000000000000e+00  0.0000000000000000e+00 0.0000000000000000e+00 0.0000000000000000e+00  0.0000000000000000e+00 0.0000000000000000e+00 0.0000000000000000e+00  0.0000000000000000e+00 0.0000000000000000e+00 0.0000000000000000e+00  0.0000000000000000e+00 0.0000000000000000e+00 0.0000000000000000e+00  0.0000000000000000e+00 0.0000000000000000e+00 0.0000000000000000e+00  0.0000000000000000e+00 0.0000000000000000e+00 0.0000000000000000e+00  0.0000000000000000e+00 0.0000000000000000e+00 0.0000000000000000e+00  0.0000000000000000e+00 0.0000000000000000e+00 0.0000000000000000e+00  0.0000000000000000e+00 0.0000000000000000e+00 0.0000000000000000e+00  0.0000000000000000e+00 0.0000000000000000e+00 0.0000000000000000e+00  0.0000000000000000e+00 0.0000000000000000e+00 0.0000000000000000e+00  0.0000000000000000e+00 0.0000000000000000e+00 0.0000000000000000e+00  0.0000000000000000e+00 0.0000000000000000e+00 0.0000000000000000e+00  0.0000000000000000e+00 0.0000000000000000e+00 0.0000000000000000e+00  0.0000000000000000e+00 0.0000000000000000e+00 0.0000000000000000e+00  0.0000000000000000e+00 0.0000000000000000e+00 0.0000000000000000e+00  0.0000000000000000e+00 0.0000000000000000e+00 0.0000000000000000e+00  0.0000000000000000e+00 0.0000000000000000e+00 0.0000000000000000e+00  0.0000000000000000e+00 0.0000000000000000e+00 0.0000000000000000e+00  0.0000000000000000e+00 0.0000000000000000e+00 0.0000000000000000e+00  0.0000000000000000e+00 0.0000000000000000e+00 0.0000000000000000e+00  0.0000000000000000e+00 0.0000000000000000e+00 0.0000000000000000e+00  0.0000000000000000e+00 0.0000000000000000e+00 0.0000000000000000e+00  0.0000000000000000e+00 0.0000000000000000e+00 0.0000000000000000e+00  0.0000000000000000e+00 0.0000000000000000e+00 0.0000000000000000e+00  0.0000000000000000e+00 0.0000000000000000e+00 0.0000000000000000e+00  0.0000000000000000e+00 0.0000000000000000e+00 0.0000000000000000e+00  0.0000000000000000e+00 0.0000000000000000e+00 0.0000000000000000e+00  0.0000000000000000e+00 0.0000000000000000e+00 0.0000000000000000e+00  0.0000000000000000e+00 0.0000000000000000e+00 0.0000000000000000e+00  0.0000000000000000e+00 0.0000000000000000e+00 0.0000000000000000e+00  0.0000000000000000e+00 0.0000000000000000e+00 0.0000000000000000e+00  0.0000000000000000e+00 0.0000000000000000e+00 0.0000000000000000e+00  0.0000000000000000e+00 0.0000000000000000e+00 0.0000000000000000e+00  0.0000000000000000e+00 0.0000000000000000e+00 0.0000000000000000e+00  0.0000000000000000e+00 0.0000000000000000e+00 0.0000000000000000e+00  5.4900283950865136e-01 1.2866051363943625e-02 0.0000000000000000e+00  3.8363923142471307e-01 -2.3200209929274147e-03 0.0000000000000000e+00  5.4813038821987692e-01 -7.0261108226125878e-03 0.0000000000000000e+00  0.0000000000000000e+00 0.0000000000000000e+00 0.0000000000000000e+00  0.0000000000000000e+00 0.0000000000000000e+00 0.0000000000000000e+00  0.0000000000000000e+00 0.0000000000000000e+00 0.0000000000000000e+00  0.0000000000000000e+00 0.0000000000000000e+00 0.0000000000000000e+00  0.0000000000000000e+00 0.0000000000000000e+00 0.0000000000000000e+00  0.0000000000000000e+00 0.0000000000000000e+00 0.0000000000000000e+00  0.0000000000000000e+00 0.0000000000000000e+00 0.0000000000000000e+00  0.0000000000000000e+00 0.0000000000000000e+00 0.0000000000000000e+00  0.0000000000000000e+00 0.0000000000000000e+00 0.0000000000000000e+00  0.0000000000000000e+00 0.0000000000000000e+00 0.0000000000000000e+00  0.0000000000000000e+00 0.0000000000000000e+00 0.0000000000000000e+00  0.0000000000000000e+00 0.0000000000000000e+00 0.0000000000000000e+00  0.0000000000000000e+00 0.0000000000000000e+00 0.0000000000000000e+00  0.0000000000000000e+00 0.0000000000000000e+00 0.0000000000000000e+00  0.0000000000000000e+00 0.0000000000000000e+00 0.0000000000000000e+00  0.0000000000000000e+00 0.0000000000000000e+00 0.0000000000000000e+00  0.0000000000000000e+00 0.0000000000000000e+00 0.0000000000000000e+00  0.0000000000000000e+00 0.0000000000000000e+00 0.0000000000000000e+00  0.0000000000000000e+00 0.0000000000000000e+00 0.0000000000000000e+00  0.0000000000000000e+00 0.0000000000000000e+00 0.0000000000000000e+00  0.0000000000000000e+00 0.0000000000000000e+00 0.0000000000000000e+00  0.0000000000000000e+00 0.0000000000000000e+00 0.0000000000000000e+00  0.0000000000000000e+00 0.0000000000000000e+00 0.0000000000000000e+00  0.0000000000000000e+00 0.0000000000000000e+00 0.0000000000000000e+00  0.0000000000000000e+00 0.0000000000000000e+00 0.0000000000000000e+00  0.0000000000000000e+00 0.0000000000000000e+00 0.0000000000000000e+00  0.0000000000000000e+00 0.0000000000000000e+00 0.0000000000000000e+00  0.0000000000000000e+00 0.0000000000000000e+00 0.0000000000000000e+00  0.0000000000000000e+00 0.0000000000000000e+00 0.0000000000000000e+00  0.0000000000000000e+00 0.0000000000000000e+00 0.0000000000000000e+00  0.0000000000000000e+00 0.0000000000000000e+00 0.0000000000000000e+00  0.0000000000000000e+00 0.0000000000000000e+00 0.0000000000000000e+00  0.0000000000000000e+00 0.0000000000000000e+00 0.0000000000000000e+00  0.0000000000000000e+00 0.0000000000000000e+00 0.0000000000000000e+00  0.0000000000000000e+00 0.0000000000000000e+00 0.0000000000000000e+00  0.0000000000000000e+00 0.0000000000000000e+00 0.0000000000000000e+00  0.0000000000000000e+00 0.0000000000000000e+00 0.0000000000000000e+00  0.0000000000000000e+00 0.0000000000000000e+00 0.0000000000000000e+00  0.0000000000000000e+00 0.0000000000000000e+00 0.0000000000000000e+00  0.0000000000000000e+00 0.0000000000000000e+00 0.0000000000000000e+00  0.0000000000000000e+00 0.0000000000000000e+00 0.0000000000000000e+00  0.0000000000000000e+00 0.0000000000000000e+00 0.0000000000000000e+00  0.0000000000000000e+00 0.0000000000000000e+00 0.0000000000000000e+00  0.0000000000000000e+00 0.0000000000000000e+00 0.0000000000000000e+00  0.0000000000000000e+00 0.0000000000000000e+00 0.0000000000000000e+00  0.0000000000000000e+00 0.0000000000000000e+00 0.0000000000000000e+00  0.0000000000000000e+00 0.0000000000000000e+00 0.0000000000000000e+00  0.0000000000000000e+00 0.0000000000000000e+00 0.0000000000000000e+00  0.0000000000000000e+00 0.0000000000000000e+00 0.0000000000000000e+00  0.0000000000000000e+00 0.0000000000000000e+00 0.0000000000000000e+00  0.0000000000000000e+00 0.0000000000000000e+00 0.0000000000000000e+00  0.0000000000000000e+00 0.0000000000000000e+00 0.0000000000000000e+00  0.0000000000000000e+00 0.0000000000000000e+00 0.0000000000000000e+00  0.0000000000000000e+00 0.0000000000000000e+00 0.0000000000000000e+00  0.0000000000000000e+00 0.0000000000000000e+00 0.0000000000000000e+00  0.0000000000000000e+00 0.0000000000000000e+00 0.0000000000000000e+00  0.0000000000000000e+00 0.0000000000000000e+00 0.0000000000000000e+00  0.0000000000000000e+00 0.0000000000000000e+00 0.0000000000000000e+00  0.0000000000000000e+00 0.0000000000000000e+00 0.0000000000000000e+00  0.0000000000000000e+00 0.0000000000000000e+00 0.0000000000000000e+00  0.0000000000000000e+00 0.0000000000000000e+00 0.0000000000000000e+00  0.0000000000000000e+00 0.0000000000000000e+00 0.0000000000000000e+00  0.0000000000000000e+00 0.0000000000000000e+00 0.0000000000000000e+00  0.0000000000000000e+00 0.0000000000000000e+00 0.0000000000000000e+00  0.0000000000000000e+00 0.0000000000000000e+00 0.0000000000000000e+00  0.0000000000000000e+00 0.0000000000000000e+00 0.0000000000000000e+00  0.0000000000000000e+00 0.0000000000000000e+00 0.0000000000000000e+00  0.0000000000000000e+00 0.0000000000000000e+00 0.0000000000000000e+00  0.0000000000000000e+00 0.0000000000000000e+00 0.0000000000000000e+00  0.0000000000000000e+00 0.0000000000000000e+00 0.0000000000000000e+00  0.0000000000000000e+00 0.0000000000000000e+00 0.0000000000000000e+00  0.0000000000000000e+00 0.0000000000000000e+00 0.0000000000000000e+00  0.0000000000000000e+00 0.0000000000000000e+00 0.0000000000000000e+00  0.0000000000000000e+00 0.0000000000000000e+00 0.0000000000000000e+00  0.0000000000000000e+00 0.0000000000000000e+00 0.0000000000000000e+00  0.0000000000000000e+00 0.0000000000000000e+00 0.0000000000000000e+00  0.0000000000000000e+00 0.0000000000000000e+00 0.0000000000000000e+00  0.0000000000000000e+00 0.0000000000000000e+00 0.0000000000000000e+00  2.7344705273959021e-06 -5.7654658602319968e-06 0.0000000000000000e+00  5.9402776207001992e-06 -8.2248482439589271e-06 0.0000000000000000e+00  9.2611640404443327e-06 -1.1936214785726359e-05 0.0000000000000000e+00  1.2963749876642029e-05 -1.7012443010882511e-05 0.0000000000000000e+00  1.6453629336491581e-05 -2.3458033713485784e-05 0.0000000000000000e+00  2.0287545693096047e-05 -3.1373842169850519e-05 0.0000000000000000e+00  2.3761882968126764e-05 -4.0375915697801702e-05 0.0000000000000000e+00  2.7231250822193640e-05 -5.0837384018276747e-05 0.0000000000000000e+00  3.0986084952984037e-05 -6.2418973102878317e-05 0.0000000000000000e+00  3.4258041417220541e-05 -7.5175143887966305e-05 0.0000000000000000e+00  3.7866900486983366e-05 -8.9132412298350639e-05 0.0000000000000000e+00  4.0963528770458158e-05 -1.0417000990023889e-04 0.0000000000000000e+00  4.4275501414293568e-05 -1.2030446744588794e-04 0.0000000000000000e+00  4.7186237208565804e-05 -1.3733045724376587e-04 0.0000000000000000e+00  4.9981024423790953e-05 -1.5545761198919344e-04 0.0000000000000000e+00  5.2899638514783062e-05 -1.7444897315825356e-04 0.0000000000000000e+00  5.5372862838419180e-05 -1.9428327440376984e-04 0.0000000000000000e+00  5.7996542674071782e-05 -2.1503454102562419e-04 0.0000000000000000e+00  6.0192291847562199e-05 -2.3650717207853974e-04 0.0000000000000000e+00  6.2498167055164390e-05 -2.5877074550509073e-04 0.0000000000000000e+00  6.4471488254649480e-05 -2.8169900761700214e-04 0.0000000000000000e+00  6.6455366885216706e-05 -3.0536009834900100e-04 0.0000000000000000e+00  6.8168024037295363e-05 -3.2954306572350814e-04 0.0000000000000000e+00  6.9754794223392277e-05 -3.5439047186493027e-04 0.0000000000000000e+00  7.1360757499315045e-05 -3.7972382012127877e-04 0.0000000000000000e+00  7.2720288984074309e-05 -4.0557277738332735e-04 0.0000000000000000e+00  7.3997042719796210e-05 -4.3196456236484611e-04 0.0000000000000000e+00  7.5108960429364483e-05 -4.5872335076413569e-04 0.0000000000000000e+00  7.6131133247872337e-05 -4.8596395748612750e-04 0.0000000000000000e+00  7.6996371155871939e-05 -5.1351398731650920e-04 0.0000000000000000e+00  7.7769391158228753e-05 -5.4147383696570637e-04 0.0000000000000000e+00  7.8391037031509493e-05 -5.6967716913970472e-04 0.0000000000000000e+00  7.8923271393493809e-05 -5.9822523179464974e-04 0.0000000000000000e+00  7.9305523895982112e-05 -6.2695403152981770e-04 0.0000000000000000e+00  7.9587953924591278e-05 -6.5598331270907940e-04 0.0000000000000000e+00  7.9738469438660743e-05 -6.8513810226986094e-04 0.0000000000000000e+00  7.9790401242768090e-05 -7.1452610784002190e-04 0.0000000000000000e+00  7.9714243092779389e-05 -7.4399446694756535e-04 0.0000000000000000e+00  7.9535999076413237e-05 -7.7364910014738730e-04 0.0000000000000000e+00  7.9231620931789792e-05 -8.0334631467638047e-04 0.0000000000000000e+00  7.8819316753720210e-05 -8.3317056116504666e-04 0.0000000000000000e+00  7.8297981214813704e-05 -8.6302354349037096e-04 0.0000000000000000e+00  7.7656502150897974e-05 -8.9295049890676995e-04 0.0000000000000000e+00  7.6953404134041505e-05 -9.2289912546379704e-04 0.0000000000000000e+00  7.6115064047012118e-05 -9.5283129675771021e-04 0.0000000000000000e+00  7.5212286794956081e-05 -9.8283938090598048e-04 0.0000000000000000e+00  5.3700568097239177e-05 -1.0120435965837635e-03 0.0000000000000000e+00  1.3373504630369994e-05 -1.0099181000231760e-03 0.0000000000000000e+00  -5.4447160335561565e-06 -9.7884550039968013e-04 0.0000000000000000e+00  -4.4773514093645129e-06 -9.4861731096940562e-04 0.0000000000000000e+00  -3.5586456085117984e-06 -9.1836725201272743e-04 0.0000000000000000e+00  -2.7326319942295765e-06 -8.8819383596340257e-04 0.0000000000000000e+00  -1.9631616265910329e-06 -8.5805727077337764e-04 0.0000000000000000e+00  -1.2853519698430783e-06 -8.2798516180964765e-04 0.0000000000000000e+00  -6.4077440407202467e-07 -7.9798626710892275e-04 0.0000000000000000e+00  -9.9992022898778071e-08 -7.6805095993689781e-04 0.0000000000000000e+00  4.2090073948644033e-07 -7.3826393466493959e-04 0.0000000000000000e+00  8.3889906250547158e-07 -7.0855689253684895e-04 0.0000000000000000e+00  1.2582233715905106e-06 -6.7903724504207242e-04 0.0000000000000000e+00  1.5637078568003592e-06 -6.4964397275098207e-04 0.0000000000000000e+00  1.8908100750563124e-06 -6.2049367294337936e-04 0.0000000000000000e+00  2.0969132565762996e-06 -5.9152765102392173e-04 0.0000000000000000e+00  2.3490956485472108e-06 -5.6285533495548600e-04 0.0000000000000000e+00  2.4614404668895297e-06 -5.3442463655775966e-04 0.0000000000000000e+00  2.6461817161880234e-06 -5.0634137873446664e-04 0.0000000000000000e+00  2.6695328537128507e-06 -4.7855835028056884e-04 0.0000000000000000e+00  2.7855934873935093e-06 -4.5119563848095365e-04 0.0000000000000000e+00  2.7248783974699786e-06 -4.2420603009830292e-04 0.0000000000000000e+00  2.7897364839305703e-06 -3.9770170150307658e-04 0.0000000000000000e+00  2.6528418226118794e-06 -3.7163990128490527e-04 0.0000000000000000e+00  2.6409109654090405e-06 -3.4612127589198825e-04 0.0000000000000000e+00  2.4641534705182707e-06 -3.2109131196152505e-04 0.0000000000000000e+00  2.2315254543793852e-06 -2.9674041504506508e-04 0.0000000000000000e+00  2.1356762609638587e-06 -2.7290079390550922e-04 0.0000000000000000e+00  1.8841550891439595e-06 -2.4976936045997887e-04 0.0000000000000000e+00  1.6905287308509591e-06 -2.2735504019992709e-04 0.0000000000000000e+00  1.3885204274586029e-06 -2.0566078858879540e-04 0.0000000000000000e+00  1.1378059061746772e-06 -1.8478954285602452e-04 0.0000000000000000e+00  7.8202517286453310e-07 -1.6469680257961454e-04 0.0000000000000000e+00  5.7316284978705146e-07 -1.4562400683362659e-04 0.0000000000000000e+00  1.4200912826845852e-07 -1.2731572926793743e-04 0.0000000000000000e+00  -3.2363182231403989e-07 -1.1016768909918603e-04 0.0000000000000000e+00  -5.5621395018663901e-07 -9.3843926520990588e-05 0.0000000000000000e+00  -9.4827253534012851e-07 -7.8722518536156988e-05 0.0000000000000000e+00  -1.2278347708174495e-06 -6.4719276764979060e-05 0.0000000000000000e+00  -1.5911293382128884e-06 -5.1867870817773593e-05 0.0000000000000000e+00  -1.7007880465854426e-06 -4.0377609702987990e-05 0.0000000000000000e+00  -2.0432121418355850e-06 -2.9954192141456420e-05 0.0000000000000000e+00  -2.3378018368009452e-06 -2.1057725322189258e-05 0.0000000000000000e+00  -2.2434118692901009e-06 -1.3258243351846081e-05 0.0000000000000000e+00  -2.2858714498763493e-06 -6.9307744847111705e-06 0.0000000000000000e+00  -1.9320557921490785e-06 -2.0009229424271949e-06 0.0000000000000000e+00  -1.6538561443943219e-06 1.3449287864135770e-06 0.0000000000000000e+00  -7.9762071235894562e-07 3.0500949699565430e-06 0.0000000000000000e+00  8.2773991728369451e-07 -1.3936241592087468e-06 0.0000000000000000e+00  3.5641470233174420e-05 -9.6572127635560659e-04 0.0000000000000000e+00  3.7750879233734182e-05 -9.0821518438426272e-04 0.0000000000000000e+00  3.9414421157885943e-05 -8.1451781894471408e-04 0.0000000000000000e+00  4.4636722455972439e-06 -8.3662678876512971e-06 0.0000000000000000e+00  3.9791290464077018e-05 -7.5589722999579027e-04 0.0000000000000000e+00  7.7584552294235364e-06 -2.0504057675152030e-05 0.0000000000000000e+00  4.0306893139605442e-05 -6.9668748676067970e-04 0.0000000000000000e+00  1.3541565898375888e-05 -5.0816058405970316e-05 0.0000000000000000e+00  1.7424988259729667e-05 -7.6059919637133777e-05 0.0000000000000000e+00  4.0488179468219510e-05 -6.3810472095401905e-04 0.0000000000000000e+00  2.5698049557166154e-05 -1.6007662861608664e-04 0.0000000000000000e+00  3.9870409965292626e-05 -5.2368095771315422e-04 0.0000000000000000e+00  2.0618267924933309e-05 -1.0489740835152985e-04 0.0000000000000000e+00  2.8884914788405955e-05 -1.9931076138442912e-04 0.0000000000000000e+00  3.9076496565658895e-05 -4.6830472395108767e-04 0.0000000000000000e+00  4.0341549206596791e-05 -5.8036077812745996e-04 0.0000000000000000e+00  3.1481091107069364e-05 -2.4252865409323868e-04 0.0000000000000000e+00  3.7956620451881496e-05 -4.1450458803569680e-04 0.0000000000000000e+00  3.3255451195218807e-05 -2.8667448773517386e-04 0.0000000000000000e+00  3.6993891883783430e-05 -3.6365144882407404e-04 0.0000000000000000e+00  3.5112574689607783e-05 -3.2301620257540250e-04 0.0000000000000000e+00  2.3454690348740148e-05 -1.3032245349624603e-04 0.0000000000000000e+00  3.7904347363617235e-05 -8.6313529548402517e-04 0.0000000000000000e+00  1.0665366126311494e-05 -3.3756850472335020e-05 0.0000000000000000e+00  2.2621820354397493e-05 -9.3600314781886861e-04 0.0000000000000000e+00  9.7394026485403521e-07 -2.4148690258036332e-06 0.0000000000000000e+00  2.8589469722327041e-05 -7.2538882546977065e-04 0.0000000000000000e+00  2.7815874464204116e-05 -7.8489306952990987e-04 0.0000000000000000e+00  9.1863767624592825e-06 -1.5963865261202646e-05 0.0000000000000000e+00  2.0526674433544490e-05 -6.4266206270602633e-05 0.0000000000000000e+00  2.9146894875601916e-05 -5.5089339731845190e-04 0.0000000000000000e+00  2.9064509138428993e-05 -6.6641832891374227e-04 0.0000000000000000e+00  3.5209722830153427e-05 -1.8036554182262232e-04 0.0000000000000000e+00  2.8772764818106736e-05 -4.9478602034747304e-04 0.0000000000000000e+00  2.5068201941434550e-05 -9.2223172776408118e-05 0.0000000000000000e+00  3.8583976552731082e-05 -2.2195676800710863e-04 0.0000000000000000e+00  2.8122375557239356e-05 -4.4011727058954325e-04 0.0000000000000000e+00  2.9246009138039369e-05 -6.0817857430635379e-04 0.0000000000000000e+00  4.3528074136889567e-05 -2.6664618099372765e-04 0.0000000000000000e+00  2.7196789665518527e-05 -3.8716214525892482e-04 0.0000000000000000e+00  1.7814596011309579e-07 -1.3287463871181227e-06 0.0000000000000000e+00  -4.2506214393649764e-07 7.4839032101873536e-07 0.0000000000000000e+00  4.4062973198544043e-05 -9.8987138052717555e-04 0.0000000000000000e+00  4.5835630714495746e-06 -6.2985034710081988e-06 0.000000