<?xml version="1.0"?>
<VTKFile type="UnstructuredGrid"  version="0.1"  >
<UnstructuredGrid>
<Piece  NumberOfPoints="1419" NumberOfCells="2698">
<Points>
<DataArray  type="Float64"  NumberOfComponents="3"  format="ascii">0 0 0  0 0.41 0  2.5 0 0  2.5 0.41 0  0.6 0.19 0  0.6 0.21 0  0.25 0.2 0  0.15 0.2 0  0.2489897948556636 0.21 0  0.2489897948556636 0.19 0  0.6 0.2 0  0 0.3807142857143437 0  0 0.3514285714286952 0  0 0.3221428571430699 0  0 0.29285714285744 0  0 0.2635714285718054 0  0 0.2342857142861561 0  0 0.2050000000005308 0  0 0.175714285714732 0  0 0.1464285714289574 0  0 0.1171428571431897 0  0 0.08785714285737878 0  0 0.05857142857161107 0  0 0.02928571428580012 0  0.03015443760436003 0 0  0.06140001986583606 0 0  0.09377624077125973 0 0  0.1273239957535082 0 0  0.1620856860351972 0 0  0.1981052433264291 0 0  0.235428184091502 0 0  0.2741016576309132 0 0  0.3141745521465447 0 0  0.3556974926295285 0 0  0.3987229542472677 0 0  0.4433053055141081 0 0  0.4895008759286886 0 0  0.5373680609405097 0 0  0.5869673343216626 0 0  0.6383613676634521 0 0  0.6916151138468254 0 0  0.7467958595648856 0 0  0.8039733463919316 0 0  0.8632198139502143 0 0  0.9246101326867038 0 0  0.9882218810934433 0 0  1.054135445558498 0 0  1.122434100542598 0 0  1.193204177141305 0 0  1.266535089879536 0 0  1.342519516046404 0 0  1.421253448503939 0 0  1.502836389106271 0 0  1.587371439758838 0 0  1.674965418777374 0 0  1.765729001825544 0 0  1.859776908880082 0 0  1.957227977487062 0 0  2.058205329869943 0 0  2.162836591189951 0 0  2.271253957290865 0 0  2.383594446803425 0 0  2.5 0.1024999999997612 0  2.5 0.2049999999994743 0  2.5 0.3074999999997183 0  2.383594446803656 0.41 0  2.271253957291315 0.41 0  2.162836591190598 0.41 0  2.058205329870775 0.41 0  1.957227977488067 0.41 0  1.859776908881246 0.41 0  1.765729001826854 0.41 0  1.674965418778818 0.41 0  1.58737143976041 0.41 0  1.502836389107956 0.41 0  1.421253448505726 0.41 0  1.342519516048286 0.41 0  1.266535089881505 0.41 0  1.193204177143353 0.41 0  1.122434100544716 0.41 0  1.05413544556068 0.41 0  0.9882218810956305 0.41 0  0.9246101326886647 0.41 0  0.8632198139519631 0.41 0  0.8039733463934788 0.41 0  0.7467958595662458 0.41 0  0.6916151138480078 0.41 0  0.6383613676644679 0.41 0  0.5869673343225223 0.41 0  0.5373680609412221 0.41 0  0.4895008759292634 0.41 0  0.4433053055145528 0.41 0  0.3987229542475914 0.41 0  0.3556974926297398 0.41 0  0.3141745521466497 0.41 0  0.2741016576310038 0.41 0  0.2354281840915826 0.41 0  0.1981052433265003 0.41 0  0.1620856860352591 0.41 0  0.1273239957535623 0.41 0  0.09377624077128965 0.41 0  0.06140001986584975 0.41 0  0.03015443760436654 0.41 0  0.2497468076502589 0.2050254481002335 0  0.2497468076502614 0.1949745518997913 0  0.2469965252529372 0.1829317073451959 0  0.2439893735792749 0.1762316384219906 0  0.2400332147834255 0.1700443375285386 0  0.2352133972704371 0.1645032867342007 0  0.2296339016332438 0.1597280261969788 0  0.2234150974217223 0.1558215752574715 0  0.2166911463437691 0.1528682099456123 0  0.2096071079204251 0.1509316448471593 0  0.2023158100364996 0.1500536585536553 0  0.194974551899914 0.1502531923497262 0  0.1877417105387872 0.1515259415822739 0  0.1807733240461124 0.153844448527136 0  0.1742197252835808 0.15715869474974 0  0.1682222986673531 0.1613971801805478 0  0.162910430003803 0.1664684656256651 0  0.1583987151779087 0.1722631454351573 0  0.1547844879126891 0.178656207771761 0  0.1521457199348551 0.1855097315605723 0  0.1505393388476355 0.1926758619366523 0  0.1505393388476328 0.2073241380633295 0  0.1521457199348437 0.2144902684393899 0  0.1547844879126531 0.221343792228163 0  0.1583987151778488 0.2277368545647528 0  0.1629104300036858 0.2335315343742052 0  0.1682222986671726 0.2386028198193036 0  0.1742197252833576 0.2428413052501257 0  0.1807733240458683 0.2461555514727623 0  0.1877417105384929 0.2484740584176516 0  0.1949745518995776 0.2497468076502398 0  0.202315810036185 0.2499463414463592 0  0.2096071079201568 0.2490683551528932 0  0.2166911463435495 0.2471317900544655 0  0.2234150974215506 0.2441784247426195 0  0.2296339016331197 0.2402719738031125 0  0.2352133972703547 0.2354967132658811 0  0.2400332147833751 0.2299556624715287 0  0.2439893735792577 0.2237683615780412 0  0.246996525252926 0.2170682926548348 0  0.25645809709277 0.21 0  0.2639263993298655 0.21 0  0.271394701566961 0.21 0  0.2788630038040554 0.21 0  0.2863313060411479 0.21 0  0.2937996082782405 0.21 0  0.301267910515333 0.21 0  0.3087362127524279 0.21 0  0.3162045149895234 0.21 0  0.3236728172265972 0.21 0  0.3311411194636928 0.21 0  0.3386094217007701 0.21 0  0.3460777239378666 0.21 0  0.3535460261749672 0.21 0  0.3610143284120516 0.21 0  0.3684826306491596 0.21 0  0.3759509328862226 0.21 0  0.383419235123329 0.21 0  0.3908875373604028 0.21 0  0.3983558395975142 0.21 0  0.4058241418345938 0.21 0  0.4132924440716992 0.21 0  0.4207607463087888 0.21 0  0.4282290485459029 0.21 0  0.4356973507830418 0.21 0  0.4431656530201649 0.21 0  0.4506339552573136 0.21 0  0.4581022574944306 0.21 0  0.4655705597315852 0.21 0  0.4730388619686996 0.21 0  0.480507164205851 0.21 0  0.4879754664429498 0.21 0  0.4954437686800938 0.21 0  0.502912070917267 0.21 0  0.5103803731544119 0.21 0  0.5178486753915261 0.21 0  0.5253169776286404 0.21 0  0.5327852798657868 0.21 0  0.5402535821029386 0.21 0  0.54772188434007 0.21 0  0.5551901865771842 0.21 0  0.5626584888143201 0.21 0  0.5701267910514778 0.21 0  0.5775950932886138 0.21 0  0.5850633955257281 0.21 0  0.5925316977628483 0.21 0  0.6 0.2050000000000054 0  0.6 0.1950000000000217 0  0.5925316977628897 0.19 0  0.5850633955257988 0.19 0  0.5775950932887378 0.19 0  0.5701267910515998 0.19 0  0.5626584888145268 0.19 0  0.5551901865773963 0.19 0  0.547721884340339 0.19 0  0.5402535821032429 0.19 0  0.5327852798661811 0.19 0  0.5253169776290537 0.19 0  0.5178486753919799 0.19 0  0.5103803731549078 0.19 0  0.502912070917822 0.19 0  0.4954437686807294 0.19 0  0.4879754664436223 0.19 0  0.4805071642065402 0.19 0  0.4730388619694271 0.19 0  0.4655705597323621 0.19 0  0.4581022574952563 0.19 0  0.4506339552581777 0.19 0  0.4431656530210671 0.19 0  0.4356973507839815 0.19 0  0.4282290485468779 0.19 0  0.4207607463097617 0.19 0  0.4132924440726327 0.19 0  0.4058241418354857 0.19 0  0.3983558395983636 0.19 0  0.3908875373612097 0.19 0  0.3834192351240934 0.19 0  0.3759509328869369 0.19 0  0.3684826306498175 0.19 0  0.361014328412667 0.19 0  0.3535460261755617 0.19 0  0.3460777239384295 0.19 0  0.3386094217012945 0.19 0  0.3311411194641595 0.19 0  0.3236728172270245 0.19 0  0.3162045149898895 0.19 0  0.3087362127527544 0.19 0  0.3012679105156187 0.19 0  0.2937996082784807 0.19 0  0.2863313060413428 0.19 0  0.2788630038042048 0.19 0  0.2713947015670686 0.19 0  0.2639263993299336 0.19 0  0.2564580970927985 0.19 0  0.2607803159922026 0.2000727136295815 0  0.5887803774232762 0.2001272386983733 0  0.5745072403740523 0.2002044435018727 0  0.5511891430099709 0.2001122610077113 0  0.2751288526855082 0.20000000000002 0  0.5365194309847112 0.1999999999999436 0  0.2894621222999649 0.1998691686390484 0  0.5215828265105155 0.1999999999999228 0  0.3127789816668748 0.1998657885438805 0  0.3274069683451451 0.2000000000000796 0  0.5066462220363641 0.199999999999908 0  0.3650630746574081 0.199866017807523 0  0.476773013087985 0.1999999999998713 0  0.3417402379596385 0.1998691686391011 0  0.3796850840047755 0.200000000000134 0  0.4618364086138087 0.1999999999998546 0  0.4917096175621762 0.1999999999998808 0  0.3946216884789568 0.2000000000001512 0  0.446899804139621 0.1999999999998389 0  0.4089549580935208 0.1998691686391595 0  0.4322718174608562 0.200127451265745 0  0.4201487168029707 0.1999966199048527 0  0.3528922713220932 0.2000185703532356 0  0.5633122436674589 0.1999814296467508 0  0.3006558810093873 0.1999966199048318 0  0.5815926498168407 0.1966545283159175 0  0.2677053789419034 0.1964246479135325 0  0.5290511287476175 0.1970915826863981 0  0.5439877332217911 0.197091582686394 0  0.2825131256993216 0.2035478995978015 0  0.3199386661080599 0.202908417313604 0  0.4842413153250809 0.1970915826863873 0  0.5141145242734466 0.1970915826863843 0  0.3722167817676917 0.2029084173136195 0  0.4693047108508938 0.1970915826863783 0  0.3348752705822316 0.202908417313609 0  0.3871533862418661 0.2029084173136212 0  0.4543681063767183 0.1970915826863795 0  0.4991779197992749 0.1970915826863902 0  0.4020059614928624 0.203547899597858 0  0.4394315019025246 0.1970915826863714 0  0.2550657455369551 0.2034088125358657 0  0.2548908499171161 0.1966940311614271 0  0.5946539510196798 0.2024302972968126 0  0.267698176732111 0.2039977513680092 0  0.4261685417851465 0.196409292431739 0  0.3590076176283495 0.196411355804271 0  0.5571672426447437 0.2036011176410121 0  0.3066757059912147 0.1964092924317024 0  0.594380730180568 0.1966558399668133 0  0.4842413153245942 0.2040749161535287 0  0.4693047108503577 0.2040749161535231 0  0.3871533862424271 0.1959250838464788 0  0.372246743208829 0.1959123236376545 0  0.5141145242731028 0.2040749161535395 0  0.4543681063761134 0.2040749161535186 0  0.4019979587101454 0.1959834479682427 0  0.4394608940728603 0.2040870543693135 0  0.5439623148931173 0.2040856076781014 0  0.5290511287473298 0.2040749161535501 0  0.4991779197988497 0.2040749161535382 0  0.3347912413592433 0.1959225448935183 0  0.3199680582793816 0.1959123018030061 0  0.2825051229162361 0.1959834479681729 0  0.3590471196690275 0.2036304442587945 0  0.5571594006495384 0.1963685282145804 0  0.3067669986803285 0.203627750582736 0  0.4262598344738712 0.2036568242185335 0  0.5814408164431408 0.2041285596160068 0  0.5688286748170428 0.1961819304477386 0  0.4145905603063645 0.2038180695522843 0  0.3473758401724931 0.2038180695522752 0  0.2950977245128307 0.2038180695522663 0  0.5688286748170693 0.203818069552238 0  0.2950977245127906 0.1961819304477774 0  0.3473758401723931 0.1961819304478349 0  0.4145905603061963 0.1961819304479011 0  0.2601812407614425 0.2056861609747042
[...]
<PointData  Vectors="f_40-0"> 
<DataArray  type="Float64"  Name="f_40-0"  NumberOfComponents="3" format="ascii">0.0000000000000000e+00 0.0000000000000000e+00 0.0000000000000000e+00  0.0000000000000000e+00 0.0000000000000000e+00 0.0000000000000000e+00  0.0000000000000000e+00 0.0000000000000000e+00 0.0000000000000000e+00  0.0000000000000000e+00 0.0000000000000000e+00 0.0000000000000000e+00  -4.8153822034584502e-06 -8.0728125445386149e-04 0.0000000000000000e+00  5.9617349818816623e-05 -8.1202781066650321e-04 0.0000000000000000e+00  0.0000000000000000e+00 0.0000000000000000e+00 0.0000000000000000e+00  0.0000000000000000e+00 0.0000000000000000e+00 0.0000000000000000e+00  0.0000000000000000e+00 0.0000000000000000e+00 0.0000000000000000e+00  0.0000000000000000e+00 0.0000000000000000e+00 0.0000000000000000e+00  2.6790278500357696e-05 -8.0964164564122239e-04 0.0000000000000000e+00  1.2056572712709830e-01 0.0000000000000000e+00 0.0000000000000000e+00  2.2258288085004235e-01 0.0000000000000000e+00 0.0000000000000000e+00  3.0605146116880833e-01 0.0000000000000000e+00 0.0000000000000000e+00  3.7097146808349279e-01 0.0000000000000000e+00 0.0000000000000000e+00  4.1734290159408727e-01 0.0000000000000000e+00 0.0000000000000000e+00  4.4516576170058902e-01 0.0000000000000000e+00 0.0000000000000000e+00  4.5444004840297036e-01 0.0000000000000000e+00 0.0000000000000000e+00  4.4516576170115152e-01 0.0000000000000000e+00 0.0000000000000000e+00  4.1734290159505344e-01 0.0000000000000000e+00 0.0000000000000000e+00  3.7097146808468934e-01 0.0000000000000000e+00 0.0000000000000000e+00  3.0605146116994508e-01 0.0000000000000000e+00 0.0000000000000000e+00  2.2258288085101241e-01 0.0000000000000000e+00 0.0000000000000000e+00  1.2056572712764485e-01 0.0000000000000000e+00 0.0000000000000000e+00  0.0000000000000000e+00 0.0000000000000000e+00 0.0000000000000000e+00  0.0000000000000000e+00 0.0000000000000000e+00 0.0000000000000000e+00  0.0000000000000000e+00 0.0000000000000000e+00 0.0000000000000000e+00  0.0000000000000000e+00 0.0000000000000000e+00 0.0000000000000000e+00  0.0000000000000000e+00 0.0000000000000000e+00 0.0000000000000000e+00  0.0000000000000000e+00 0.0000000000000000e+00 0.0000000000000000e+00  0.0000000000000000e+00 0.0000000000000000e+00 0.0000000000000000e+00  0.0000000000000000e+00 0.0000000000000000e+00 0.0000000000000000e+00  0.0000000000000000e+00 0.0000000000000000e+00 0.0000000000000000e+00  0.0000000000000000e+00 0.0000000000000000e+00 0.0000000000000000e+00  0.0000000000000000e+00 0.0000000000000000e+00 0.0000000000000000e+00  0.0000000000000000e+00 0.0000000000000000e+00 0.0000000000000000e+00  0.0000000000000000e+00 0.0000000000000000e+00 0.0000000000000000e+00  0.0000000000000000e+00 0.0000000000000000e+00 0.0000000000000000e+00  0.0000000000000000e+00 0.0000000000000000e+00 0.0000000000000000e+00  0.0000000000000000e+00 0.0000000000000000e+00 0.0000000000000000e+00  0.0000000000000000e+00 0.0000000000000000e+00 0.0000000000000000e+00  0.0000000000000000e+00 0.0000000000000000e+00 0.0000000000000000e+00  0.0000000000000000e+00 0.0000000000000000e+00 0.0000000000000000e+00  0.0000000000000000e+00 0.0000000000000000e+00 0.0000000000000000e+00  0.0000000000000000e+00 0.0000000000000000e+00 0.0000000000000000e+00  0.0000000000000000e+00 0.0000000000000000e+00 0.0000000000000000e+00  0.0000000000000000e+00 0.0000000000000000e+00 0.0000000000000000e+00  0.0000000000000000e+00 0.0000000000000000e+00 0.0000000000000000e+00  0.0000000000000000e+00 0.0000000000000000e+00 0.0000000000000000e+00  0.0000000000000000e+00 0.0000000000000000e+00 0.0000000000000000e+00  0.0000000000000000e+00 0.0000000000000000e+00 0.0000000000000000e+00  0.0000000000000000e+00 0.0000000000000000e+00 0.0000000000000000e+00  0.0000000000000000e+00 0.0000000000000000e+00 0.0000000000000000e+00  0.0000000000000000e+00 0.0000000000000000e+00 0.0000000000000000e+00  0.0000000000000000e+00 0.0000000000000000e+00 0.0000000000000000e+00  0.0000000000000000e+00 0.0000000000000000e+00 0.0000000000000000e+00  0.0000000000000000e+00 0.0000000000000000e+00 0.0000000000000000e+00  0.0000000000000000e+00 0.0000000000000000e+00 0.0000000000000000e+00  0.0000000000000000e+00 0.0000000000000000e+00 0.0000000000000000e+00  0.0000000000000000e+00 0.0000000000000000e+00 0.0000000000000000e+00  0.0000000000000000e+00 0.0000000000000000e+00 0.0000000000000000e+00  0.0000000000000000e+00 0.0000000000000000e+00 0.0000000000000000e+00  4.3617439590972662e-01 1.3095559771659594e-02 0.0000000000000000e+00  3.0486054861173006e-01 -2.6917667511227759e-03 0.0000000000000000e+00  4.3676224053054441e-01 -9.0849200261738459e-03 0.0000000000000000e+00  0.0000000000000000e+00 0.0000000000000000e+00 0.0000000000000000e+00  0.0000000000000000e+00 0.0000000000000000e+00 0.0000000000000000e+00  0.0000000000000000e+00 0.0000000000000000e+00 0.0000000000000000e+00  0.0000000000000000e+00 0.0000000000000000e+00 0.0000000000000000e+00  0.0000000000000000e+00 0.0000000000000000e+00 0.0000000000000000e+00  0.0000000000000000e+00 0.0000000000000000e+00 0.0000000000000000e+00  0.0000000000000000e+00 0.0000000000000000e+00 0.0000000000000000e+00  0.0000000000000000e+00 0.0000000000000000e+00 0.0000000000000000e+00  0.0000000000000000e+00 0.0000000000000000e+00 0.0000000000000000e+00  0.0000000000000000e+00 0.0000000000000000e+00 0.0000000000000000e+00  0.0000000000000000e+00 0.0000000000000000e+00 0.0000000000000000e+00  0.0000000000000000e+00 0.0000000000000000e+00 0.0000000000000000e+00  0.0000000000000000e+00 0.0000000000000000e+00 0.0000000000000000e+00  0.0000000000000000e+00 0.0000000000000000e+00 0.0000000000000000e+00  0.0000000000000000e+00 0.0000000000000000e+00 0.0000000000000000e+00  0.0000000000000000e+00 0.0000000000000000e+00 0.0000000000000000e+00  0.0000000000000000e+00 0.0000000000000000e+00 0.0000000000000000e+00  0.0000000000000000e+00 0.0000000000000000e+00 0.0000000000000000e+00  0.0000000000000000e+00 0.0000000000000000e+00 0.0000000000000000e+00  0.0000000000000000e+00 0.0000000000000000e+00 0.0000000000000000e+00  0.0000000000000000e+00 0.0000000000000000e+00 0.0000000000000000e+00  0.0000000000000000e+00 0.0000000000000000e+00 0.0000000000000000e+00  0.0000000000000000e+00 0.0000000000000000e+00 0.0000000000000000e+00  0.0000000000000000e+00 0.0000000000000000e+00 0.0000000000000000e+00  0.0000000000000000e+00 0.0000000000000000e+00 0.0000000000000000e+00  0.0000000000000000e+00 0.0000000000000000e+00 0.0000000000000000e+00  0.0000000000000000e+00 0.0000000000000000e+00 0.0000000000000000e+00  0.0000000000000000e+00 0.0000000000000000e+00 0.0000000000000000e+00  0.0000000000000000e+00 0.0000000000000000e+00 0.0000000000000000e+00  0.0000000000000000e+00 0.0000000000000000e+00 0.0000000000000000e+00  0.0000000000000000e+00 0.0000000000000000e+00 0.0000000000000000e+00  0.0000000000000000e+00 0.0000000000000000e+00 0.0000000000000000e+00  0.0000000000000000e+00 0.0000000000000000e+00 0.0000000000000000e+00  0.0000000000000000e+00 0.0000000000000000e+00 0.0000000000000000e+00  0.0000000000000000e+00 0.0000000000000000e+00 0.0000000000000000e+00  0.0000000000000000e+00 0.0000000000000000e+00 0.0000000000000000e+00  0.0000000000000000e+00 0.0000000000000000e+00 0.0000000000000000e+00  0.0000000000000000e+00 0.0000000000000000e+00 0.0000000000000000e+00  0.0000000000000000e+00 0.0000000000000000e+00 0.0000000000000000e+00  0.0000000000000000e+00 0.0000000000000000e+00 0.0000000000000000e+00  0.0000000000000000e+00 0.0000000000000000e+00 0.0000000000000000e+00  0.0000000000000000e+00 0.0000000000000000e+00 0.0000000000000000e+00  0.0000000000000000e+00 0.0000000000000000e+00 0.0000000000000000e+00  0.0000000000000000e+00 0.0000000000000000e+00 0.0000000000000000e+00  0.0000000000000000e+00 0.0000000000000000e+00 0.0000000000000000e+00  0.0000000000000000e+00 0.0000000000000000e+00 0.0000000000000000e+00  0.0000000000000000e+00 0.0000000000000000e+00 0.0000000000000000e+00  0.0000000000000000e+00 0.0000000000000000e+00 0.0000000000000000e+00  0.0000000000000000e+00 0.0000000000000000e+00 0.0000000000000000e+00  0.0000000000000000e+00 0.0000000000000000e+00 0.0000000000000000e+00  0.0000000000000000e+00 0.0000000000000000e+00 0.0000000000000000e+00  0.0000000000000000e+00 0.0000000000000000e+00 0.0000000000000000e+00  0.0000000000000000e+00 0.0000000000000000e+00 0.0000000000000000e+00  0.0000000000000000e+00 0.0000000000000000e+00 0.0000000000000000e+00  0.0000000000000000e+00 0.0000000000000000e+00 0.0000000000000000e+00  0.0000000000000000e+00 0.0000000000000000e+00 0.0000000000000000e+00  0.0000000000000000e+00 0.0000000000000000e+00 0.0000000000000000e+00  0.0000000000000000e+00 0.0000000000000000e+00 0.0000000000000000e+00  0.0000000000000000e+00 0.0000000000000000e+00 0.0000000000000000e+00  0.0000000000000000e+00 0.0000000000000000e+00 0.0000000000000000e+00  0.0000000000000000e+00 0.0000000000000000e+00 0.0000000000000000e+00  0.0000000000000000e+00 0.0000000000000000e+00 0.0000000000000000e+00  0.0000000000000000e+00 0.0000000000000000e+00 0.0000000000000000e+00  0.0000000000000000e+00 0.0000000000000000e+00 0.0000000000000000e+00  0.0000000000000000e+00 0.0000000000000000e+00 0.0000000000000000e+00  0.0000000000000000e+00 0.0000000000000000e+00 0.0000000000000000e+00  0.0000000000000000e+00 0.0000000000000000e+00 0.0000000000000000e+00  0.0000000000000000e+00 0.0000000000000000e+00 0.0000000000000000e+00  0.0000000000000000e+00 0.0000000000000000e+00 0.0000000000000000e+00  0.0000000000000000e+00 0.0000000000000000e+00 0.0000000000000000e+00  0.0000000000000000e+00 0.0000000000000000e+00 0.0000000000000000e+00  0.0000000000000000e+00 0.0000000000000000e+00 0.0000000000000000e+00  0.0000000000000000e+00 0.0000000000000000e+00 0.0000000000000000e+00  0.0000000000000000e+00 0.0000000000000000e+00 0.0000000000000000e+00  0.0000000000000000e+00 0.0000000000000000e+00 0.0000000000000000e+00  0.0000000000000000e+00 0.0000000000000000e+00 0.0000000000000000e+00  0.0000000000000000e+00 0.0000000000000000e+00 0.0000000000000000e+00  0.0000000000000000e+00 0.0000000000000000e+00 0.0000000000000000e+00  2.5080636407548919e-06 -6.1421217318585553e-06 0.0000000000000000e+00  5.4502574695807138e-06 -8.2760452229825345e-06 0.0000000000000000e+00  8.5527480570291325e-06 -1.1333385237192017e-05 0.0000000000000000e+00  1.1980918109323104e-05 -1.5449772756947875e-05 0.0000000000000000e+00  1.5216443856290302e-05 -2.0649733861422679e-05 0.0000000000000000e+00  1.8683072890853225e-05 -2.7048891032220855e-05 0.0000000000000000e+00  2.1825477506019915e-05 -3.4313003680414976e-05 0.0000000000000000e+00  2.4908265446293509e-05 -4.2748761610164791e-05 0.0000000000000000e+00  2.8182722607732137e-05 -5.2088402491828820e-05 0.0000000000000000e+00  3.1027038773749137e-05 -6.2359563970590393e-05 0.0000000000000000e+00  3.4099237514021749e-05 -7.3611519159264661e-05 0.0000000000000000e+00  3.6733134816640838e-05 -8.5710103583138097e-05 0.0000000000000000e+00  3.9501257800399416e-05 -9.8694601530502615e-05 0.0000000000000000e+00  4.1935594305023424e-05 -1.1239102912117117e-04 0.0000000000000000e+00  4.4251762195148996e-05 -1.2695679053123445e-04 0.0000000000000000e+00  4.6651357948355531e-05 -1.4221298192994809e-04 0.0000000000000000e+00  4.8679550260973376e-05 -1.5812603204273589e-04 0.0000000000000000e+00  5.0810375027493445e-05 -1.7477371783166634e-04 0.0000000000000000e+00  5.2590201138447277e-05 -1.9197828082702376e-04 0.0000000000000000e+00  5.4443620931319695e-05 -2.0981578273859854e-04 0.0000000000000000e+00  5.6021659697179470e-05 -2.2816674434715151e-04 0.0000000000000000e+00  5.7593001430486848e-05 -2.4709991528311219e-04 0.0000000000000000e+00  5.8941360719831159e-05 -2.6644430647080762e-04 0.0000000000000000e+00  6.0175674111921204e-05 -2.8630930769435253e-04 0.0000000000000000e+00  6.1414990902541584e-05 -3.0656254039720623e-04 0.0000000000000000e+00  6.2444682920756933e-05 -3.2721375997471307e-04 0.0000000000000000e+00  6.3394318170684864e-05 -3.4830337994944084e-04 0.0000000000000000e+00  6.4201272376946278e-05 -3.6967167778853224e-04 0.0000000000000000e+00  6.4922749543912559e-05 -3.9142834029989800e-04 0.0000000000000000e+00  6.5507318437256498e-05 -4.1342038627012435e-04 0.0000000000000000e+00  6.6005516271829706e-05 -4.3574273513518431e-04 0.0000000000000000e+00  6.6369968520778837e-05 -4.5824831289621314e-04 0.0000000000000000e+00  6.6651094599847930e-05 -4.8103438244697814e-04 0.0000000000000000e+00  6.6798495572882745e-05 -5.0395318308514504e-04 0.0000000000000000e+00  6.6851792455646053e-05 -5.2712003595456621e-04 0.0000000000000000e+00  6.6787010569772389e-05 -5.5037622529010048e-04 0.0000000000000000e+00  6.6629707978160704e-05 -5.7382513467045982e-04 0.0000000000000000e+00  6.6356411908598769e-05 -5.9732806206963486e-04 0.0000000000000000e+00  6.5987158607609065e-05 -6.2098569467748904e-04 0.0000000000000000e+00  6.5502136760178957e-05 -6.4466723330053885e-04 0.0000000000000000e+00  6.4914529710342005e-05 -6.6845273886170591e-04 0.0000000000000000e+00  6.4228748646069598e-05 -6.9225656448513239e-04 0.0000000000000000e+00  6.3429943112176834e-05 -7.1611911389915051e-04 0.0000000000000000e+00  6.2572604529088094e-05 -7.3999675239155448e-04 0.0000000000000000e+00  6.1590046050209705e-05 -7.6385442349576689e-04 0.0000000000000000e+00  6.0553278418487349e-05 -7.8778570057481219e-04 0.0000000000000000e+00  4.2993114346999500e-05 -8.1081417073002482e-04 0.0000000000000000e+00  1.0813731482653691e-05 -8.0847416950008150e-04 0.0000000000000000e+00  -3.8127162757871221e-06 -7.8340092774037515e-04 0.0000000000000000e+00  -2.7216275527276453e-06 -7.5926273165726268e-04 0.0000000000000000e+00  -1.6742930267623027e-06 -7.3509756563747543e-04 0.0000000000000000e+00  -7.2066503734219946e-07 -7.1100084199856228e-04 0.0000000000000000e+00  1.7843293718951018e-07 -6.8693408727281999e-04 0.0000000000000000e+00  9.8555959945036172e-07 -6.6291763624623285e-04 0.0000000000000000e+00  1.7535112659227263e-06 -6.3896006685342432e-04 0.0000000000000000e+00  2.4221910549497262e-06 -6.1504718136789268e-04 0.0000000000000000e+00  3.0602402206442610e-06 -5.9125839391403789e-04 0.0000000000000000e+00  3.6023455154425148e-06 -5.6752315275432254e-04 0.0000000000000000e+00  4.1306210158879434e-06 -5.4394387258187380e-04 0.0000000000000000e+00  4.5546571271787458e-06 -5.2045575304586445e-04 0.0000000000000000e+00  4.9809552510262866e-06 -4.9716795456194746e-04 0.0000000000000000e+00  5.2975123845622839e-06 -4.7401767579363619e-04 0.0000000000000000e+00  5.6355867205280378e-06 -4.5110877435013190e-04 0.0000000000000000e+00  5.8495515918604043e-06 -4.2838201464846592e-04 0.0000000000000000e+00  6.1061161499951179e-06 -4.0593738530313574e-04 0.0000000000000000e+00  6.2215376159633478e-06 -3.8372018789211484e-04 0.0000000000000000e+00  6.3956814794629330e-06 -3.6184261588129520e-04 0.0000000000000000e+00  6.4171506586994702e-06 -3.4025091179817418e-04 0.0000000000000000e+00  6.5238319623751109e-06 -3.1905007260429744e-04 0.0000000000000000e+00  6.4581657263413058e-06 -2.9819013724828629e-04 0.0000000000000000e+00  6.4754218541811869e-06 -2.7776334804619716e-04 0.0000000000000000e+00  6.3521741234874863e-06 -2.5772048398480993e-04 0.0000000000000000e+00  6.1689212357555606e-06 -2.3821279547387906e-04 0.0000000000000000e+00  6.0843908494251943e-06 -2.1911056150399969e-04 0.0000000000000000e+00  5.8612174413471606e-06 -2.0055980436804334e-04 0.0000000000000000e+00  5.6704768733899532e-06 -1.8258252435500788e-04 0.0000000000000000e+00  5.3812538507383346e-06 -1.6516056381599294e-04 0.0000000000000000e+00  5.1186622541879307e-06 -1.4839498037482545e-04 0.0000000000000000e+00  4.7585112872225285e-06 -1.3222916842422548e-04 0.0000000000000000e+00  4.4967305646582174e-06 -1.1687403718037650e-04 0.0000000000000000e+00  4.0489623208036922e-06 -1.0211367016405282e-04 0.0000000000000000e+00  3.5515282273567925e-06 -8.8271124534118324e-05 0.0000000000000000e+00  3.2282811404521647e-06 -7.5075453697211672e-05 0.0000000000000000e+00  2.7452491932740592e-06 -6.2822567293681556e-05 0.0000000000000000e+00  2.3263292686957812e-06 -5.1470002604171158e-05 0.0000000000000000e+00  1.8038987489300243e-06 -4.1013160982725104e-05 0.0000000000000000e+00  1.4460186537222428e-06 -3.1650969834602150e-05 0.0000000000000000e+00  8.7113399640421935e-07 -2.3136126558046239e-05 0.0000000000000000e+00  2.8585257270274887e-07 -1.5846917120064829e-05 0.0000000000000000e+00  -1.3401672059145880e-08 -9.4480074290539473e-06 0.0000000000000000e+00  -4.6163950648509244e-07 -4.2255066739582471e-06 0.0000000000000000e+00  -5.9918200822786740e-07 -1.5509258586507226e-07 0.0000000000000000e+00  -7.7328352303650841e-07 2.5766104322700885e-06 0.0000000000000000e+00  -3.9989919173809933e-07 3.8764959802745965e-06 0.0000000000000000e+00  8.4610065527820181e-07 -1.1783326305296859e-06 0.0000000000000000e+00  2.9092097951812821e-05 -7.7353299936731227e-04 0.0000000000000000e+00  3.1399805484909785e-05 -7.2765146101260456e-04 0.0000000000000000e+00  3.3592529151444463e-05 -6.5287733885696696e-04 0.0000000000000000e+00  4.8108797162969982e-06 -6.8964963068836204e-06 0.0000000000000000e+00  3.4361094057225372e-05 -6.0608229634550996e-04 0.0000000000000000e+00  8.2689589678242823e-06 -1.6785519993444448e-05 0.0000000000000000e+00  3.5193992416933930e-05 -5.5881706021755422e-04 0.0000000000000000e+00  1.3922733827822453e-05 -4.1414929581436071e-05 0.0000000000000000e+00  1.7475359284091398e-05 -6.1866655828130525e-05 0.0000000000000000e+00  3.5703671672832764e-05 -5.1204519146207041e-04 0.0000000000000000e+00  2.4741883561774312e-05 -1.2958070416713198e-04 0.0000000000000000e+00  3.5775348996658553e-05 -4.2066768866035585e-04 0.0000000000000000e+00  2.0348729373937094e-05 -8.5139513436791793e-05 0.0000000000000000e+00  2.7412378896242639e-05 -1.6111670589268452e-04 0.0000000000000000e+00  3.5344178482564739e-05 -3.7642522082817769e-04 0.0000000000000000e+00  3.5896125869118205e-05 -4.6593617687671918e-04 0.0000000000000000e+00  2.9560314017152702e-05 -1.9578389777597031e-04 0.0000000000000000e+00  3.4600632219690676e-05 -3.3342374203901195e-04 0.0000000000000000e+00  3.1002415095861898e-05 -2.3113910194437097e-04 0.0000000000000000e+00  3.3932085257322103e-05 -2.9276965002845529e-04 0.0000000000000000e+00  3.2468798226369987e-05 -2.6024425331910850e-04 0.0000000000000000e+00  2.2793556743283904e-05 -1.0564950362103483e-04 0.0000000000000000e+00  3.1950069109573272e-05 -6.9166533408260831e-04 0.0000000000000000e+00  1.1125043621461938e-05 -2.7585841648719032e-05 0.0000000000000000e+00  1.9027861422681636e-05 -7.4960473892150359e-04 0.0000000000000000e+00  1.4888121636814647e-06 -1.4473440796955149e-06 0.0000000000000000e+00  2.5636797122203724e-05 -5.8150884356660557e-04 0.0000000000000000e+00  2.4571077760533512e-05 -6.2901485075557027e-04 0.0000000000000000e+00  9.0726045416764122e-06 -1.3623399016166714e-05 0.0000000000000000e+00  1.9791257554419578e-05 -5.2685589114408638e-05 0.0000000000000000e+00  2.7088826969693427e-05 -4.4215394702796991e-04 0.0000000000000000e+00  2.6407588618239077e-05 -5.3442106849999386e-04 0.0000000000000000e+00  3.2444364777624376e-05 -1.4621041765010962e-04 0.0000000000000000e+00  2.7016488205084717e-05 -3.9732637742493970e-04 0.0000000000000000e+00  2.3812108394047164e-05 -7.5265499788759063e-05 0.0000000000000000e+00  3.5232516480855877e-05 -1.7958917358219340e-04 0.0000000000000000e+00  2.6670343799558643e-05 -3.5363107553137838e-04 0.0000000000000000e+00  2.6887837057580759e-05 -4.8790983536691580e-04 0.0000000000000000e+00  3.9229922664270690e-05 -2.1546960340408650e-04 0.0000000000000000e+00  2.6052804477495132e-05 -3.1128616229436423e-04 0.0000000000000000e+00  6.0489976465275463e-08 -1.4419873302473649e-06 0.0000000000000000e+00  -4.3618141903589577e-07 9.0846613931588956e-07 0.0000000000000000e+00  3.5536470127558187e-05 -7.9294258252940995e-04 0.0000000000000000e+00  4.4476237485392328e-06 -5.8308978015583517e-06 0.0000000000000000e+