<?xml version="1.0"?>
<VTKFile type="UnstructuredGrid"  version="0.1"  >
<UnstructuredGrid>
<Piece  NumberOfPoints="1419" NumberOfCells="2698">
<Points>
<DataArray  type="Float64"  NumberOfComponents="3"  format="ascii">0 0 0  0 0.41 0  2.5 0 0  2.5 0.41 0  0.6 0.19 0  0.6 0.21 0  0.25 0.2 0  0.15 0.2 0  0.2489897948556636 0.21 0  0.2489897948556636 0.19 0  0.6 0.2 0  0 0.3807142857143437 0  0 0.3514285714286952 0  0 0.3221428571430699 0  0 0.29285714285744 0  0 0.2635714285718054 0  0 0.2342857142861561 0  0 0.2050000000005308 0  0 0.175714285714732 0  0 0.1464285714289574 0  0 0.1171428571431897 0  0 0.08785714285737878 0  0 0.05857142857161107 0  0 0.02928571428580012 0  0.03015443760436003 0 0  0.06140001986583606 0 0  0.09377624077125973 0 0  0.1273239957535082 0 0  0.1620856860351972 0 0  0.1981052433264291 0 0  0.235428184091502 0 0  0.2741016576309132 0 0  0.3141745521465447 0 0  0.3556974926295285 0 0  0.3987229542472677 0 0  0.4433053055141081 0 0  0.4895008759286886 0 0  0.5373680609405097 0 0  0.5869673343216626 0 0  0.6383613676634521 0 0  0.6916151138468254 0 0  0.7467958595648856 0 0  0.8039733463919316 0 0  0.8632198139502143 0 0  0.9246101326867038 0 0  0.9882218810934433 0 0  1.054135445558498 0 0  1.122434100542598 0 0  1.193204177141305 0 0  1.266535089879536 0 0  1.342519516046404 0 0  1.421253448503939 0 0  1.502836389106271 0 0  1.587371439758838 0 0  1.674965418777374 0 0  1.765729001825544 0 0  1.859776908880082 0 0  1.957227977487062 0 0  2.058205329869943 0 0  2.162836591189951 0 0  2.271253957290865 0 0  2.383594446803425 0 0  2.5 0.1024999999997612 0  2.5 0.2049999999994743 0  2.5 0.3074999999997183 0  2.383594446803656 0.41 0  2.271253957291315 0.41 0  2.162836591190598 0.41 0  2.058205329870775 0.41 0  1.957227977488067 0.41 0  1.859776908881246 0.41 0  1.765729001826854 0.41 0  1.674965418778818 0.41 0  1.58737143976041 0.41 0  1.502836389107956 0.41 0  1.421253448505726 0.41 0  1.342519516048286 0.41 0  1.266535089881505 0.41 0  1.193204177143353 0.41 0  1.122434100544716 0.41 0  1.05413544556068 0.41 0  0.9882218810956305 0.41 0  0.9246101326886647 0.41 0  0.8632198139519631 0.41 0  0.8039733463934788 0.41 0  0.7467958595662458 0.41 0  0.6916151138480078 0.41 0  0.6383613676644679 0.41 0  0.5869673343225223 0.41 0  0.5373680609412221 0.41 0  0.4895008759292634 0.41 0  0.4433053055145528 0.41 0  0.3987229542475914 0.41 0  0.3556974926297398 0.41 0  0.3141745521466497 0.41 0  0.2741016576310038 0.41 0  0.2354281840915826 0.41 0  0.1981052433265003 0.41 0  0.1620856860352591 0.41 0  0.1273239957535623 0.41 0  0.09377624077128965 0.41 0  0.06140001986584975 0.41 0  0.03015443760436654 0.41 0  0.2497468076502589 0.2050254481002335 0  0.2497468076502614 0.1949745518997913 0  0.2469965252529372 0.1829317073451959 0  0.2439893735792749 0.1762316384219906 0  0.2400332147834255 0.1700443375285386 0  0.2352133972704371 0.1645032867342007 0  0.2296339016332438 0.1597280261969788 0  0.2234150974217223 0.1558215752574715 0  0.2166911463437691 0.1528682099456123 0  0.2096071079204251 0.1509316448471593 0  0.2023158100364996 0.1500536585536553 0  0.194974551899914 0.1502531923497262 0  0.1877417105387872 0.1515259415822739 0  0.1807733240461124 0.153844448527136 0  0.1742197252835808 0.15715869474974 0  0.1682222986673531 0.1613971801805478 0  0.162910430003803 0.1664684656256651 0  0.1583987151779087 0.1722631454351573 0  0.1547844879126891 0.178656207771761 0  0.1521457199348551 0.1855097315605723 0  0.1505393388476355 0.1926758619366523 0  0.1505393388476328 0.2073241380633295 0  0.1521457199348437 0.2144902684393899 0  0.1547844879126531 0.221343792228163 0  0.1583987151778488 0.2277368545647528 0  0.1629104300036858 0.2335315343742052 0  0.1682222986671726 0.2386028198193036 0  0.1742197252833576 0.2428413052501257 0  0.1807733240458683 0.2461555514727623 0  0.1877417105384929 0.2484740584176516 0  0.1949745518995776 0.2497468076502398 0  0.202315810036185 0.2499463414463592 0  0.2096071079201568 0.2490683551528932 0  0.2166911463435495 0.2471317900544655 0  0.2234150974215506 0.2441784247426195 0  0.2296339016331197 0.2402719738031125 0  0.2352133972703547 0.2354967132658811 0  0.2400332147833751 0.2299556624715287 0  0.2439893735792577 0.2237683615780412 0  0.246996525252926 0.2170682926548348 0  0.25645809709277 0.21 0  0.2639263993298655 0.21 0  0.271394701566961 0.21 0  0.2788630038040554 0.21 0  0.2863313060411479 0.21 0  0.2937996082782405 0.21 0  0.301267910515333 0.21 0  0.3087362127524279 0.21 0  0.3162045149895234 0.21 0  0.3236728172265972 0.21 0  0.3311411194636928 0.21 0  0.3386094217007701 0.21 0  0.3460777239378666 0.21 0  0.3535460261749672 0.21 0  0.3610143284120516 0.21 0  0.3684826306491596 0.21 0  0.3759509328862226 0.21 0  0.383419235123329 0.21 0  0.3908875373604028 0.21 0  0.3983558395975142 0.21 0  0.4058241418345938 0.21 0  0.4132924440716992 0.21 0  0.4207607463087888 0.21 0  0.4282290485459029 0.21 0  0.4356973507830418 0.21 0  0.4431656530201649 0.21 0  0.4506339552573136 0.21 0  0.4581022574944306 0.21 0  0.4655705597315852 0.21 0  0.4730388619686996 0.21 0  0.480507164205851 0.21 0  0.4879754664429498 0.21 0  0.4954437686800938 0.21 0  0.502912070917267 0.21 0  0.5103803731544119 0.21 0  0.5178486753915261 0.21 0  0.5253169776286404 0.21 0  0.5327852798657868 0.21 0  0.5402535821029386 0.21 0  0.54772188434007 0.21 0  0.5551901865771842 0.21 0  0.5626584888143201 0.21 0  0.5701267910514778 0.21 0  0.5775950932886138 0.21 0  0.5850633955257281 0.21 0  0.5925316977628483 0.21 0  0.6 0.2050000000000054 0  0.6 0.1950000000000217 0  0.5925316977628897 0.19 0  0.5850633955257988 0.19 0  0.5775950932887378 0.19 0  0.5701267910515998 0.19 0  0.5626584888145268 0.19 0  0.5551901865773963 0.19 0  0.547721884340339 0.19 0  0.5402535821032429 0.19 0  0.5327852798661811 0.19 0  0.5253169776290537 0.19 0  0.5178486753919799 0.19 0  0.5103803731549078 0.19 0  0.502912070917822 0.19 0  0.4954437686807294 0.19 0  0.4879754664436223 0.19 0  0.4805071642065402 0.19 0  0.4730388619694271 0.19 0  0.4655705597323621 0.19 0  0.4581022574952563 0.19 0  0.4506339552581777 0.19 0  0.4431656530210671 0.19 0  0.4356973507839815 0.19 0  0.4282290485468779 0.19 0  0.4207607463097617 0.19 0  0.4132924440726327 0.19 0  0.4058241418354857 0.19 0  0.3983558395983636 0.19 0  0.3908875373612097 0.19 0  0.3834192351240934 0.19 0  0.3759509328869369 0.19 0  0.3684826306498175 0.19 0  0.361014328412667 0.19 0  0.3535460261755617 0.19 0  0.3460777239384295 0.19 0  0.3386094217012945 0.19 0  0.3311411194641595 0.19 0  0.3236728172270245 0.19 0  0.3162045149898895 0.19 0  0.3087362127527544 0.19 0  0.3012679105156187 0.19 0  0.2937996082784807 0.19 0  0.2863313060413428 0.19 0  0.2788630038042048 0.19 0  0.2713947015670686 0.19 0  0.2639263993299336 0.19 0  0.2564580970927985 0.19 0  0.2607803159922026 0.2000727136295815 0  0.5887803774232762 0.2001272386983733 0  0.5745072403740523 0.2002044435018727 0  0.5511891430099709 0.2001122610077113 0  0.2751288526855082 0.20000000000002 0  0.5365194309847112 0.1999999999999436 0  0.2894621222999649 0.1998691686390484 0  0.5215828265105155 0.1999999999999228 0  0.3127789816668748 0.1998657885438805 0  0.3274069683451451 0.2000000000000796 0  0.5066462220363641 0.199999999999908 0  0.3650630746574081 0.199866017807523 0  0.476773013087985 0.1999999999998713 0  0.3417402379596385 0.1998691686391011 0  0.3796850840047755 0.200000000000134 0  0.4618364086138087 0.1999999999998546 0  0.4917096175621762 0.1999999999998808 0  0.3946216884789568 0.2000000000001512 0  0.446899804139621 0.1999999999998389 0  0.4089549580935208 0.1998691686391595 0  0.4322718174608562 0.200127451265745 0  0.4201487168029707 0.1999966199048527 0  0.3528922713220932 0.2000185703532356 0  0.5633122436674589 0.1999814296467508 0  0.3006558810093873 0.1999966199048318 0  0.5815926498168407 0.1966545283159175 0  0.2677053789419034 0.1964246479135325 0  0.5290511287476175 0.1970915826863981 0  0.5439877332217911 0.197091582686394 0  0.2825131256993216 0.2035478995978015 0  0.3199386661080599 0.202908417313604 0  0.4842413153250809 0.1970915826863873 0  0.5141145242734466 0.1970915826863843 0  0.3722167817676917 0.2029084173136195 0  0.4693047108508938 0.1970915826863783 0  0.3348752705822316 0.202908417313609 0  0.3871533862418661 0.2029084173136212 0  0.4543681063767183 0.1970915826863795 0  0.4991779197992749 0.1970915826863902 0  0.4020059614928624 0.203547899597858 0  0.4394315019025246 0.1970915826863714 0  0.2550657455369551 0.2034088125358657 0  0.2548908499171161 0.1966940311614271 0  0.5946539510196798 0.2024302972968126 0  0.267698176732111 0.2039977513680092 0  0.4261685417851465 0.196409292431739 0  0.3590076176283495 0.196411355804271 0  0.5571672426447437 0.2036011176410121 0  0.3066757059912147 0.1964092924317024 0  0.594380730180568 0.1966558399668133 0  0.4842413153245942 0.2040749161535287 0  0.4693047108503577 0.2040749161535231 0  0.3871533862424271 0.1959250838464788 0  0.372246743208829 0.1959123236376545 0  0.5141145242731028 0.2040749161535395 0  0.4543681063761134 0.2040749161535186 0  0.4019979587101454 0.1959834479682427 0  0.4394608940728603 0.2040870543693135 0  0.5439623148931173 0.2040856076781014 0  0.5290511287473298 0.2040749161535501 0  0.4991779197988497 0.2040749161535382 0  0.3347912413592433 0.1959225448935183 0  0.3199680582793816 0.1959123018030061 0  0.2825051229162361 0.1959834479681729 0  0.3590471196690275 0.2036304442587945 0  0.5571594006495384 0.1963685282145804 0  0.3067669986803285 0.203627750582736 0  0.4262598344738712 0.2036568242185335 0  0.5814408164431408 0.2041285596160068 0  0.5688286748170428 0.1961819304477386 0  0.4145905603063645 0.2038180695522843 0  0.3473758401724931 0.2038180695522752 0  0.2950977245128307 0.2038180695522663 0  0.5688286748170693 0.203818069552238 0  0.2950977245127906 0.1961819304477774 0  0.3473758401723931 0.1961819304478349 0  0.4145905603061963 0.1961819304479011 0  0.2601812407614425 0.2056861609747042
[...]
<PointData  Vectors="f_40-0"> 
<DataArray  type="Float64"  Name="f_40-0"  NumberOfComponents="3" format="ascii">0.0000000000000000e+00 0.0000000000000000e+00 0.0000000000000000e+00  0.0000000000000000e+00 0.0000000000000000e+00 0.0000000000000000e+00  0.0000000000000000e+00 0.0000000000000000e+00 0.0000000000000000e+00  0.0000000000000000e+00 0.0000000000000000e+00 0.0000000000000000e+00  -4.8226278600373347e-06 -8.0638296006747747e-04 0.0000000000000000e+00  5.9535777183200755e-05 -8.1113142880381557e-04 0.0000000000000000e+00  0.0000000000000000e+00 0.0000000000000000e+00 0.0000000000000000e+00  0.0000000000000000e+00 0.0000000000000000e+00 0.0000000000000000e+00  0.0000000000000000e+00 0.0000000000000000e+00 0.0000000000000000e+00  0.0000000000000000e+00 0.0000000000000000e+00 0.0000000000000000e+00  2.6745882445893337e-05 -8.0874433661701195e-04 0.0000000000000000e+00  1.2043129011083507e-01 0.0000000000000000e+00 0.0000000000000000e+00  2.2233468943540258e-01 0.0000000000000000e+00 0.0000000000000000e+00  3.0571019797367860e-01 0.0000000000000000e+00 0.0000000000000000e+00  3.7055781572575963e-01 0.0000000000000000e+00 0.0000000000000000e+00  4.1687754269163729e-01 0.0000000000000000e+00 0.0000000000000000e+00  4.4466937887130881e-01 0.0000000000000000e+00 0.0000000000000000e+00  4.5393332426474647e-01 0.0000000000000000e+00 0.0000000000000000e+00  4.4466937887187069e-01 0.0000000000000000e+00 0.0000000000000000e+00  4.1687754269260247e-01 0.0000000000000000e+00 0.0000000000000000e+00  3.7055781572695490e-01 0.0000000000000000e+00 0.0000000000000000e+00  3.0571019797481408e-01 0.0000000000000000e+00 0.0000000000000000e+00  2.2233468943637155e-01 0.0000000000000000e+00 0.0000000000000000e+00  1.2043129011138104e-01 0.0000000000000000e+00 0.0000000000000000e+00  0.0000000000000000e+00 0.0000000000000000e+00 0.0000000000000000e+00  0.0000000000000000e+00 0.0000000000000000e+00 0.0000000000000000e+00  0.0000000000000000e+00 0.0000000000000000e+00 0.0000000000000000e+00  0.0000000000000000e+00 0.0000000000000000e+00 0.0000000000000000e+00  0.0000000000000000e+00 0.0000000000000000e+00 0.0000000000000000e+00  0.0000000000000000e+00 0.0000000000000000e+00 0.0000000000000000e+00  0.0000000000000000e+00 0.0000000000000000e+00 0.0000000000000000e+00  0.0000000000000000e+00 0.0000000000000000e+00 0.0000000000000000e+00  0.0000000000000000e+00 0.0000000000000000e+00 0.0000000000000000e+00  0.0000000000000000e+00 0.0000000000000000e+00 0.0000000000000000e+00  0.0000000000000000e+00 0.0000000000000000e+00 0.0000000000000000e+00  0.0000000000000000e+00 0.0000000000000000e+00 0.0000000000000000e+00  0.0000000000000000e+00 0.0000000000000000e+00 0.0000000000000000e+00  0.0000000000000000e+00 0.0000000000000000e+00 0.0000000000000000e+00  0.0000000000000000e+00 0.0000000000000000e+00 0.0000000000000000e+00  0.0000000000000000e+00 0.0000000000000000e+00 0.0000000000000000e+00  0.0000000000000000e+00 0.0000000000000000e+00 0.0000000000000000e+00  0.0000000000000000e+00 0.0000000000000000e+00 0.0000000000000000e+00  0.0000000000000000e+00 0.0000000000000000e+00 0.0000000000000000e+00  0.0000000000000000e+00 0.0000000000000000e+00 0.0000000000000000e+00  0.0000000000000000e+00 0.0000000000000000e+00 0.0000000000000000e+00  0.0000000000000000e+00 0.0000000000000000e+00 0.0000000000000000e+00  0.0000000000000000e+00 0.0000000000000000e+00 0.0000000000000000e+00  0.0000000000000000e+00 0.0000000000000000e+00 0.0000000000000000e+00  0.0000000000000000e+00 0.0000000000000000e+00 0.0000000000000000e+00  0.0000000000000000e+00 0.0000000000000000e+00 0.0000000000000000e+00  0.0000000000000000e+00 0.0000000000000000e+00 0.0000000000000000e+00  0.0000000000000000e+00 0.0000000000000000e+00 0.0000000000000000e+00  0.0000000000000000e+00 0.0000000000000000e+00 0.0000000000000000e+00  0.0000000000000000e+00 0.0000000000000000e+00 0.0000000000000000e+00  0.0000000000000000e+00 0.0000000000000000e+00 0.0000000000000000e+00  0.0000000000000000e+00 0.0000000000000000e+00 0.0000000000000000e+00  0.0000000000000000e+00 0.0000000000000000e+00 0.0000000000000000e+00  0.0000000000000000e+00 0.0000000000000000e+00 0.0000000000000000e+00  0.0000000000000000e+00 0.0000000000000000e+00 0.0000000000000000e+00  0.0000000000000000e+00 0.0000000000000000e+00 0.0000000000000000e+00  0.0000000000000000e+00 0.0000000000000000e+00 0.0000000000000000e+00  0.0000000000000000e+00 0.0000000000000000e+00 0.0000000000000000e+00  4.3568435235442426e-01 1.3092790763176654e-02 0.0000000000000000e+00  3.0452176648899659e-01 -2.6919704723496361e-03 0.0000000000000000e+00  4.3627805096691846e-01 -9.0905896531545648e-03 0.0000000000000000e+00  0.0000000000000000e+00 0.0000000000000000e+00 0.0000000000000000e+00  0.0000000000000000e+00 0.0000000000000000e+00 0.0000000000000000e+00  0.0000000000000000e+00 0.0000000000000000e+00 0.0000000000000000e+00  0.0000000000000000e+00 0.0000000000000000e+00 0.0000000000000000e+00  0.0000000000000000e+00 0.0000000000000000e+00 0.0000000000000000e+00  0.0000000000000000e+00 0.0000000000000000e+00 0.0000000000000000e+00  0.0000000000000000e+00 0.0000000000000000e+00 0.0000000000000000e+00  0.0000000000000000e+00 0.0000000000000000e+00 0.0000000000000000e+00  0.0000000000000000e+00 0.0000000000000000e+00 0.0000000000000000e+00  0.0000000000000000e+00 0.0000000000000000e+00 0.0000000000000000e+00  0.0000000000000000e+00 0.0000000000000000e+00 0.0000000000000000e+00  0.0000000000000000e+00 0.0000000000000000e+00 0.0000000000000000e+00  0.0000000000000000e+00 0.0000000000000000e+00 0.0000000000000000e+00  0.0000000000000000e+00 0.0000000000000000e+00 0.0000000000000000e+00  0.0000000000000000e+00 0.0000000000000000e+00 0.0000000000000000e+00  0.0000000000000000e+00 0.0000000000000000e+00 0.0000000000000000e+00  0.0000000000000000e+00 0.0000000000000000e+00 0.0000000000000000e+00  0.0000000000000000e+00 0.0000000000000000e+00 0.0000000000000000e+00  0.0000000000000000e+00 0.0000000000000000e+00 0.0000000000000000e+00  0.0000000000000000e+00 0.0000000000000000e+00 0.0000000000000000e+00  0.0000000000000000e+00 0.0000000000000000e+00 0.0000000000000000e+00  0.0000000000000000e+00 0.0000000000000000e+00 0.0000000000000000e+00  0.0000000000000000e+00 0.0000000000000000e+00 0.0000000000000000e+00  0.0000000000000000e+00 0.0000000000000000e+00 0.0000000000000000e+00  0.0000000000000000e+00 0.0000000000000000e+00 0.0000000000000000e+00  0.0000000000000000e+00 0.0000000000000000e+00 0.0000000000000000e+00  0.0000000000000000e+00 0.0000000000000000e+00 0.0000000000000000e+00  0.0000000000000000e+00 0.0000000000000000e+00 0.0000000000000000e+00  0.0000000000000000e+00 0.0000000000000000e+00 0.0000000000000000e+00  0.0000000000000000e+00 0.0000000000000000e+00 0.0000000000000000e+00  0.0000000000000000e+00 0.0000000000000000e+00 0.0000000000000000e+00  0.0000000000000000e+00 0.0000000000000000e+00 0.0000000000000000e+00  0.0000000000000000e+00 0.0000000000000000e+00 0.0000000000000000e+00  0.0000000000000000e+00 0.0000000000000000e+00 0.0000000000000000e+00  0.0000000000000000e+00 0.0000000000000000e+00 0.0000000000000000e+00  0.0000000000000000e+00 0.0000000000000000e+00 0.0000000000000000e+00  0.0000000000000000e+00 0.0000000000000000e+00 0.0000000000000000e+00  0.0000000000000000e+00 0.0000000000000000e+00 0.0000000000000000e+00  0.0000000000000000e+00 0.0000000000000000e+00 0.0000000000000000e+00  0.0000000000000000e+00 0.0000000000000000e+00 0.0000000000000000e+00  0.0000000000000000e+00 0.0000000000000000e+00 0.0000000000000000e+00  0.0000000000000000e+00 0.0000000000000000e+00 0.0000000000000000e+00  0.0000000000000000e+00 0.0000000000000000e+00 0.0000000000000000e+00  0.0000000000000000e+00 0.0000000000000000e+00 0.0000000000000000e+00  0.0000000000000000e+00 0.0000000000000000e+00 0.0000000000000000e+00  0.0000000000000000e+00 0.0000000000000000e+00 0.0000000000000000e+00  0.0000000000000000e+00 0.0000000000000000e+00 0.0000000000000000e+00  0.0000000000000000e+00 0.0000000000000000e+00 0.0000000000000000e+00  0.0000000000000000e+00 0.0000000000000000e+00 0.0000000000000000e+00  0.0000000000000000e+00 0.0000000000000000e+00 0.0000000000000000e+00  0.0000000000000000e+00 0.0000000000000000e+00 0.0000000000000000e+00  0.0000000000000000e+00 0.0000000000000000e+00 0.0000000000000000e+00  0.0000000000000000e+00 0.0000000000000000e+00 0.0000000000000000e+00  0.0000000000000000e+00 0.0000000000000000e+00 0.0000000000000000e+00  0.0000000000000000e+00 0.0000000000000000e+00 0.0000000000000000e+00  0.0000000000000000e+00 0.0000000000000000e+00 0.0000000000000000e+00  0.0000000000000000e+00 0.0000000000000000e+00 0.0000000000000000e+00  0.0000000000000000e+00 0.0000000000000000e+00 0.0000000000000000e+00  0.0000000000000000e+00 0.0000000000000000e+00 0.0000000000000000e+00  0.0000000000000000e+00 0.0000000000000000e+00 0.0000000000000000e+00  0.0000000000000000e+00 0.0000000000000000e+00 0.0000000000000000e+00  0.0000000000000000e+00 0.0000000000000000e+00 0.0000000000000000e+00  0.0000000000000000e+00 0.0000000000000000e+00 0.0000000000000000e+00  0.0000000000000000e+00 0.0000000000000000e+00 0.0000000000000000e+00  0.0000000000000000e+00 0.0000000000000000e+00 0.0000000000000000e+00  0.0000000000000000e+00 0.0000000000000000e+00 0.0000000000000000e+00  0.0000000000000000e+00 0.0000000000000000e+00 0.0000000000000000e+00  0.0000000000000000e+00 0.0000000000000000e+00 0.0000000000000000e+00  0.0000000000000000e+00 0.0000000000000000e+00 0.0000000000000000e+00  0.0000000000000000e+00 0.0000000000000000e+00 0.0000000000000000e+00  0.0000000000000000e+00 0.0000000000000000e+00 0.0000000000000000e+00  0.0000000000000000e+00 0.0000000000000000e+00 0.0000000000000000e+00  0.0000000000000000e+00 0.0000000000000000e+00 0.0000000000000000e+00  0.0000000000000000e+00 0.0000000000000000e+00 0.0000000000000000e+00  0.0000000000000000e+00 0.0000000000000000e+00 0.0000000000000000e+00  0.0000000000000000e+00 0.0000000000000000e+00 0.0000000000000000e+00  0.0000000000000000e+00 0.0000000000000000e+00 0.0000000000000000e+00  0.0000000000000000e+00 0.0000000000000000e+00 0.0000000000000000e+00  2.5065161831241085e-06 -6.1430340201404106e-06 0.0000000000000000e+00  5.4469612370553744e-06 -8.2755277750506961e-06 0.0000000000000000e+00  8.5478216260675882e-06 -1.1330097768640856e-05 0.0000000000000000e+00  1.1974088744659639e-05 -1.5442475154540980e-05 0.0000000000000000e+00  1.5207782117771823e-05 -2.0637243010595376e-05 0.0000000000000000e+00  1.8672098949295694e-05 -2.7030078732241328e-05 0.0000000000000000e+00  2.1812349631221358e-05 -3.4286958372849650e-05 0.0000000000000000e+00  2.4892791475633034e-05 -4.2714265677523538e-05 0.0000000000000000e+00  2.8164523345267832e-05 -5.2044524154659683e-05 0.0000000000000000e+00  3.1006391918370317e-05 -6.2305259621705259e-05 0.0000000000000000e+00  3.4075709263940190e-05 -7.3545791426621166e-05 0.0000000000000000e+00  3.6707088672323098e-05 -8.5631932918904177e-05 0.0000000000000000e+00  3.9472380006694010e-05 -9.8603017612324079e-05 0.0000000000000000e+00  4.1904199241702025e-05 -1.1228520745999956e-04 0.0000000000000000e+00  4.4217870177153431e-05 -1.2683567431393284e-04 0.0000000000000000e+00  4.6614791114744601e-05 -1.4207575963117616e-04 0.0000000000000000e+00  4.8640659878219777e-05 -1.5797184439872531e-04 0.0000000000000000e+00  5.0768942732548959e-05 -1.7460170351941441e-04 0.0000000000000000e+00  5.2546584489646124e-05 -1.9178766647436868e-04 0.0000000000000000e+00  5.4397644749552611e-05 -2.0960581559705013e-04 0.0000000000000000e+00  5.5973591056686959e-05 -2.2793669708389861e-04 0.0000000000000000e+00  5.7542750599014610e-05 -2.4684905813347004e-04 0.0000000000000000e+00  5.8889158180495427e-05 -2.6617209602142693e-04 0.0000000000000000e+00  6.0121575859498767e-05 -2.8601503243500393e-04 0.0000000000000000e+00  6.1358923203366271e-05 -3.0624571143623590e-04 0.0000000000000000e+00  6.2386827814240667e-05 -3.2687378590956083e-04 0.0000000000000000e+00  6.3334689940183151e-05 -3.4793973094252462e-04 0.0000000000000000e+00  6.4139984799384392e-05 -3.6928390470324687e-04 0.0000000000000000e+00  6.4859827789866422e-05 -3.9101596434326955e-04 0.0000000000000000e+00  6.5442868607426072e-05 -4.1298302727683282e-04 0.0000000000000000e+00  6.5939571620495763e-05 -4.3527998170910469e-04 0.0000000000000000e+00  6.6302625241359422e-05 -4.5775985240090357e-04 0.0000000000000000e+00  6.6582387267342076e-05 -4.8051987691624849e-04 0.0000000000000000e+00  6.6728515859025895e-05 -5.0341238154193082e-04 0.0000000000000000e+00  6.6780577751312674e-05 -5.2655265603663236e-04 0.0000000000000000e+00  6.6714640989025677e-05 -5.4978207434328756e-04 0.0000000000000000e+00  6.6556224032197271e-05 -5.7320399185395183e-04 0.0000000000000000e+00  6.6281887410502704e-05 -5.9667978953179771e-04 0.0000000000000000e+00  6.5911637222364040e-05 -6.2031012220869304e-04 0.0000000000000000e+00  6.5425684898184029e-05 -6.4396426739387377e-04 0.0000000000000000e+00  6.4837188810111835e-05 -6.6772225879832797e-04 0.0000000000000000e+00  6.4150582948011356e-05 -6.9149852019849596e-04 0.0000000000000000e+00  6.3351004674479578e-05 -7.1533343266073760e-04 0.0000000000000000e+00  6.2492918348872016e-05 -7.3918340253376557e-04 0.0000000000000000e+00  6.1509674122933131e-05 -7.6301339260544630e-04 0.0000000000000000e+00  6.0472282720641826e-05 -7.8691698211679276e-04 0.0000000000000000e+00  4.2930144507522739e-05 -8.0991733008170085e-04 0.0000000000000000e+00  1.0787908982719337e-05 -8.0757638482150047e-04 0.0000000000000000e+00  -3.8194392379199110e-06 -7.8253053009838200e-04 0.0000000000000000e+00  -2.7277724935182372e-06 -7.5842011643262428e-04 0.0000000000000000e+00  -1.6798232546741972e-06 -7.3428271069797481e-04 0.0000000000000000e+00  -7.2557252255134533e-07 -7.1021370573220836e-04 0.0000000000000000e+00  1.7416402105743473e-07 -6.8617463679700522e-04 0.0000000000000000e+00  9.8193910736193713e-07 -6.6218580396214027e-04 0.0000000000000000e+00  1.7505156052555231e-06 -6.3825578193592747e-04 0.0000000000000000e+00  2.4198518483770217e-06 -6.1437034731488588e-04 0.0000000000000000e+00  3.0585078512235945e-06 -5.9060888312134521e-04 0.0000000000000000e+00  3.6012647257574088e-06 -5.6690082741136095e-04 0.0000000000000000e+00  4.1301207982512756e-06 -5.4334856170304175e-04 0.0000000000000000e+00  4.5547962153825408e-06 -5.1988726690228057e-04 0.0000000000000000e+00  4.9816405319797686e-06 -4.9662606191006780e-04 0.0000000000000000e+00  5.2988126186318246e-06 -4.7350212789501776e-04 0.0000000000000000e+00  5.6373826632918731e-06 -4.5061929055887273e-04 0.0000000000000000e+00  5.8519342450738421e-06 -4.2791828547046894e-04 0.0000000000000000e+00  6.1089407346997693e-06 -4.0549906821724829e-04 0.0000000000000000e+00  6.2249176487307099e-06 -3.8330690823132064e-04 0.0000000000000000e+00  6.3994515447785578e-06 -3.6145395631042107e-04 0.0000000000000000e+00  6.4214426091535458e-06 -3.3988642653829098e-04 0.0000000000000000e+00  6.5284497285515591e-06 -3.1870927717092925e-04 0.0000000000000000e+00  6.4632669254636292e-06 -2.9787251794386404e-04 0.0000000000000000e+00  6.4808076987957473e-06 -2.7746834802823075e-04 0.0000000000000000e+00  6.3579746011303376e-06 -2.5744757858177462e-04 0.0000000000000000e+00  6.1751284588203379e-06 -2.3796127195483397e-04 0.0000000000000000e+00  6.0908281764745950e-06 -2.1887989893732288e-04 0.0000000000000000e+00  5.8679819462718390e-06 -2.0034924750363459e-04 0.0000000000000000e+00  5.6774596967950850e-06 -1.8239137997167523e-04 0.0000000000000000e+00  5.3885164018428739e-06 -1.6498806102560715e-04 0.0000000000000000e+00  5.1261072364589906e-06 -1.4824033131137059e-04 0.0000000000000000e+00  4.7661964680615392e-06 -1.3209155826483771e-04 0.0000000000000000e+00  4.5044638879010514e-06 -1.1675249576140980e-04 0.0000000000000000e+00  4.0569325415514433e-06 -1.0200743684656270e-04 0.0000000000000000e+00  3.5597143827789364e-06 -8.8179100178261896e-05 0.0000000000000000e+00  3.2364436459480648e-06 -7.4996848276181352e-05 0.0000000000000000e+00  2.7534627688344122e-06 -6.2756241637316446e-05 0.0000000000000000e+00  2.3344388499871668e-06 -5.1414963361650970e-05 0.0000000000000000e+00  1.8118890129814551e-06 -4.0968316133658271e-05 0.0000000000000000e+00  1.4535801397208308e-06 -3.1615136891564763e-05 0.0000000000000000e+00  8.7838272474462046e-07 -2.3108357899293900e-05 0.0000000000000000e+00  2.9260290966481359e-07 -1.5825910429448802e-05 0.0000000000000000e+00  -7.5595820540923680e-09 -9.4328611620816204e-06 0.0000000000000000e+00  -4.5673809986746141e-07 -4.2149688705473961e-06 0.0000000000000000e+00  -5.9558232437424489e-07 -1.4812483712104101e-07 0.0000000000000000e+00  -7.7085207882038573e-07 2.5810575530526531e-06 0.0000000000000000e+00  -3.9883154934561743e-07 3.8793136839908694e-06 0.0000000000000000e+00  8.4533379183264826e-07 -1.1774147391869549e-06 0.0000000000000000e+00  2.9048082599621587e-05 -7.7267739508111478e-04 0.0000000000000000e+00  3.1356743241965263e-05 -7.2684885825922160e-04 0.0000000000000000e+00  3.3552064275949675e-05 -6.5216101292086919e-04 0.0000000000000000e+00  4.8099958018379130e-06 -6.8903500902911982e-06 0.0000000000000000e+00  3.4322590938866824e-05 -6.0541985364466651e-04 0.0000000000000000e+00  8.2672998831046824e-06 -1.6770013554404724e-05 0.0000000000000000e+00  3.5157160527751467e-05 -5.5820897149900541e-04 0.0000000000000000e+00  1.3918314028480351e-05 -4.1375616306169540e-05 0.0000000000000000e+00  1.7468375150047389e-05 -6.1807093020527126e-05 0.0000000000000000e+00  3.5668605166515374e-05 -5.1149073652941826e-04 0.0000000000000000e+00  2.4728386522184648e-05 -1.2945134675075608e-04 0.0000000000000000e+00  3.5744078657660790e-05 -4.2021743186659968e-04 0.0000000000000000e+00  2.0339421332768025e-05 -8.5056280815795429e-05 0.0000000000000000e+00  2.7395995767990455e-05 -1.6095399480876821e-04 0.0000000000000000e+00  3.5314940333448891e-05 -3.7602503256964690e-04 0.0000000000000000e+00  3.5862913551111146e-05 -4.6543441087758828e-04 0.0000000000000000e+00  2.9541370767967463e-05 -1.9558390676334850e-04 0.0000000000000000e+00  3.4573519766141418e-05 -3.3307190087575713e-04 0.0000000000000000e+00  3.0981473090323041e-05 -2.3090054994167757e-04 0.0000000000000000e+00  3.3906751589014350e-05 -2.9246323570017142e-04 0.0000000000000000e+00  3.2445732618613756e-05 -2.5997377139118746e-04 0.0000000000000000e+00  2.2781947835529164e-05 -1.0554520771712577e-04 0.0000000000000000e+00  3.1908892180284885e-05 -6.9090419656493436e-04 0.0000000000000000e+00  1.1122076898761118e-05 -2.7560073821965370e-05 0.0000000000000000e+00  1.8997339285437799e-05 -7.4877555849971948e-04 0.0000000000000000e+00  1.4893879082438818e-06 -1.4435633322055982e-06 0.0000000000000000e+00  2.5609671313935066e-05 -5.8087346386737776e-04 0.0000000000000000e+00  2.4542432504963399e-05 -6.2832482615931596e-04 0.0000000000000000e+00  9.0690402429597866e-06 -1.3613355761708243e-05 0.0000000000000000e+00  1.9781519551374161e-05 -5.2636906617096984e-05 0.0000000000000000e+00  2.7066565149982274e-05 -4.4167792236841544e-04 0.0000000000000000e+00  2.6382037541087358e-05 -5.3383971617089595e-04 0.0000000000000000e+00  3.2422701617138373e-05 -1.4606513988788387e-04 0.0000000000000000e+00  2.6995929701894990e-05 -3.9690118118260040e-04 0.0000000000000000e+00  2.3799037053301518e-05 -7.5194054801493257e-05 0.0000000000000000e+00  3.5207629931332394e-05 -1.7940821160331756e-04 0.0000000000000000e+00  2.6651529846225322e-05 -3.5325512658384271e-04 0.0000000000000000e+00  2.6863910909485001e-05 -4.8738167767112121e-04 0.0000000000000000e+00  3.9200262816820469e-05 -2.1525009992079533e-04 0.0000000000000000e+00  2.6035780578302967e-05 -3.1095760197025115e-04 0.0000000000000000e+00  5.9672328552916776e-08 -1.4422877855293308e-06 0.0000000000000000e+00  -4.3654103301521902e-07 9.0899398992045748e-07 0.0000000000000000e+00  3.5483437619757095e-05 -7.9206535438364331e-04 0.0000000000000000e+00  4.4454781764852979e-06 -5.8286226905026195e-06 0.0000000000000000e+