<?xml version="1.0"?>
<VTKFile type="UnstructuredGrid"  version="0.1"  >
<UnstructuredGrid>
<Piece  NumberOfPoints="1419" NumberOfCells="2698">
<Points>
<DataArray  type="Float64"  NumberOfComponents="3"  format="ascii">0 0 0  0 0.41 0  2.5 0 0  2.5 0.41 0  0.6 0.19 0  0.6 0.21 0  0.25 0.2 0  0.15 0.2 0  0.2489897948556636 0.21 0  0.2489897948556636 0.19 0  0.6 0.2 0  0 0.3807142857143437 0  0 0.3514285714286952 0  0 0.3221428571430699 0  0 0.29285714285744 0  0 0.2635714285718054 0  0 0.2342857142861561 0  0 0.2050000000005308 0  0 0.175714285714732 0  0 0.1464285714289574 0  0 0.1171428571431897 0  0 0.08785714285737878 0  0 0.05857142857161107 0  0 0.02928571428580012 0  0.03015443760436003 0 0  0.06140001986583606 0 0  0.09377624077125973 0 0  0.1273239957535082 0 0  0.1620856860351972 0 0  0.1981052433264291 0 0  0.235428184091502 0 0  0.2741016576309132 0 0  0.3141745521465447 0 0  0.3556974926295285 0 0  0.3987229542472677 0 0  0.4433053055141081 0 0  0.4895008759286886 0 0  0.5373680609405097 0 0  0.5869673343216626 0 0  0.6383613676634521 0 0  0.6916151138468254 0 0  0.7467958595648856 0 0  0.8039733463919316 0 0  0.8632198139502143 0 0  0.9246101326867038 0 0  0.9882218810934433 0 0  1.054135445558498 0 0  1.122434100542598 0 0  1.193204177141305 0 0  1.266535089879536 0 0  1.342519516046404 0 0  1.421253448503939 0 0  1.502836389106271 0 0  1.587371439758838 0 0  1.674965418777374 0 0  1.765729001825544 0 0  1.859776908880082 0 0  1.957227977487062 0 0  2.058205329869943 0 0  2.162836591189951 0 0  2.271253957290865 0 0  2.383594446803425 0 0  2.5 0.1024999999997612 0  2.5 0.2049999999994743 0  2.5 0.3074999999997183 0  2.383594446803656 0.41 0  2.271253957291315 0.41 0  2.162836591190598 0.41 0  2.058205329870775 0.41 0  1.957227977488067 0.41 0  1.859776908881246 0.41 0  1.765729001826854 0.41 0  1.674965418778818 0.41 0  1.58737143976041 0.41 0  1.502836389107956 0.41 0  1.421253448505726 0.41 0  1.342519516048286 0.41 0  1.266535089881505 0.41 0  1.193204177143353 0.41 0  1.122434100544716 0.41 0  1.05413544556068 0.41 0  0.9882218810956305 0.41 0  0.9246101326886647 0.41 0  0.8632198139519631 0.41 0  0.8039733463934788 0.41 0  0.7467958595662458 0.41 0  0.6916151138480078 0.41 0  0.6383613676644679 0.41 0  0.5869673343225223 0.41 0  0.5373680609412221 0.41 0  0.4895008759292634 0.41 0  0.4433053055145528 0.41 0  0.3987229542475914 0.41 0  0.3556974926297398 0.41 0  0.3141745521466497 0.41 0  0.2741016576310038 0.41 0  0.2354281840915826 0.41 0  0.1981052433265003 0.41 0  0.1620856860352591 0.41 0  0.1273239957535623 0.41 0  0.09377624077128965 0.41 0  0.06140001986584975 0.41 0  0.03015443760436654 0.41 0  0.2497468076502589 0.2050254481002335 0  0.2497468076502614 0.1949745518997913 0  0.2469965252529372 0.1829317073451959 0  0.2439893735792749 0.1762316384219906 0  0.2400332147834255 0.1700443375285386 0  0.2352133972704371 0.1645032867342007 0  0.2296339016332438 0.1597280261969788 0  0.2234150974217223 0.1558215752574715 0  0.2166911463437691 0.1528682099456123 0  0.2096071079204251 0.1509316448471593 0  0.2023158100364996 0.1500536585536553 0  0.194974551899914 0.1502531923497262 0  0.1877417105387872 0.1515259415822739 0  0.1807733240461124 0.153844448527136 0  0.1742197252835808 0.15715869474974 0  0.1682222986673531 0.1613971801805478 0  0.162910430003803 0.1664684656256651 0  0.1583987151779087 0.1722631454351573 0  0.1547844879126891 0.178656207771761 0  0.1521457199348551 0.1855097315605723 0  0.1505393388476355 0.1926758619366523 0  0.1505393388476328 0.2073241380633295 0  0.1521457199348437 0.2144902684393899 0  0.1547844879126531 0.221343792228163 0  0.1583987151778488 0.2277368545647528 0  0.1629104300036858 0.2335315343742052 0  0.1682222986671726 0.2386028198193036 0  0.1742197252833576 0.2428413052501257 0  0.1807733240458683 0.2461555514727623 0  0.1877417105384929 0.2484740584176516 0  0.1949745518995776 0.2497468076502398 0  0.202315810036185 0.2499463414463592 0  0.2096071079201568 0.2490683551528932 0  0.2166911463435495 0.2471317900544655 0  0.2234150974215506 0.2441784247426195 0  0.2296339016331197 0.2402719738031125 0  0.2352133972703547 0.2354967132658811 0  0.2400332147833751 0.2299556624715287 0  0.2439893735792577 0.2237683615780412 0  0.246996525252926 0.2170682926548348 0  0.25645809709277 0.21 0  0.2639263993298655 0.21 0  0.271394701566961 0.21 0  0.2788630038040554 0.21 0  0.2863313060411479 0.21 0  0.2937996082782405 0.21 0  0.301267910515333 0.21 0  0.3087362127524279 0.21 0  0.3162045149895234 0.21 0  0.3236728172265972 0.21 0  0.3311411194636928 0.21 0  0.3386094217007701 0.21 0  0.3460777239378666 0.21 0  0.3535460261749672 0.21 0  0.3610143284120516 0.21 0  0.3684826306491596 0.21 0  0.3759509328862226 0.21 0  0.383419235123329 0.21 0  0.3908875373604028 0.21 0  0.3983558395975142 0.21 0  0.4058241418345938 0.21 0  0.4132924440716992 0.21 0  0.4207607463087888 0.21 0  0.4282290485459029 0.21 0  0.4356973507830418 0.21 0  0.4431656530201649 0.21 0  0.4506339552573136 0.21 0  0.4581022574944306 0.21 0  0.4655705597315852 0.21 0  0.4730388619686996 0.21 0  0.480507164205851 0.21 0  0.4879754664429498 0.21 0  0.4954437686800938 0.21 0  0.502912070917267 0.21 0  0.5103803731544119 0.21 0  0.5178486753915261 0.21 0  0.5253169776286404 0.21 0  0.5327852798657868 0.21 0  0.5402535821029386 0.21 0  0.54772188434007 0.21 0  0.5551901865771842 0.21 0  0.5626584888143201 0.21 0  0.5701267910514778 0.21 0  0.5775950932886138 0.21 0  0.5850633955257281 0.21 0  0.5925316977628483 0.21 0  0.6 0.2050000000000054 0  0.6 0.1950000000000217 0  0.5925316977628897 0.19 0  0.5850633955257988 0.19 0  0.5775950932887378 0.19 0  0.5701267910515998 0.19 0  0.5626584888145268 0.19 0  0.5551901865773963 0.19 0  0.547721884340339 0.19 0  0.5402535821032429 0.19 0  0.5327852798661811 0.19 0  0.5253169776290537 0.19 0  0.5178486753919799 0.19 0  0.5103803731549078 0.19 0  0.502912070917822 0.19 0  0.4954437686807294 0.19 0  0.4879754664436223 0.19 0  0.4805071642065402 0.19 0  0.4730388619694271 0.19 0  0.4655705597323621 0.19 0  0.4581022574952563 0.19 0  0.4506339552581777 0.19 0  0.4431656530210671 0.19 0  0.4356973507839815 0.19 0  0.4282290485468779 0.19 0  0.4207607463097617 0.19 0  0.4132924440726327 0.19 0  0.4058241418354857 0.19 0  0.3983558395983636 0.19 0  0.3908875373612097 0.19 0  0.3834192351240934 0.19 0  0.3759509328869369 0.19 0  0.3684826306498175 0.19 0  0.361014328412667 0.19 0  0.3535460261755617 0.19 0  0.3460777239384295 0.19 0  0.3386094217012945 0.19 0  0.3311411194641595 0.19 0  0.3236728172270245 0.19 0  0.3162045149898895 0.19 0  0.3087362127527544 0.19 0  0.3012679105156187 0.19 0  0.2937996082784807 0.19 0  0.2863313060413428 0.19 0  0.2788630038042048 0.19 0  0.2713947015670686 0.19 0  0.2639263993299336 0.19 0  0.2564580970927985 0.19 0  0.2607803159922026 0.2000727136295815 0  0.5887803774232762 0.2001272386983733 0  0.5745072403740523 0.2002044435018727 0  0.5511891430099709 0.2001122610077113 0  0.2751288526855082 0.20000000000002 0  0.5365194309847112 0.1999999999999436 0  0.2894621222999649 0.1998691686390484 0  0.5215828265105155 0.1999999999999228 0  0.3127789816668748 0.1998657885438805 0  0.3274069683451451 0.2000000000000796 0  0.5066462220363641 0.199999999999908 0  0.3650630746574081 0.199866017807523 0  0.476773013087985 0.1999999999998713 0  0.3417402379596385 0.1998691686391011 0  0.3796850840047755 0.200000000000134 0  0.4618364086138087 0.1999999999998546 0  0.4917096175621762 0.1999999999998808 0  0.3946216884789568 0.2000000000001512 0  0.446899804139621 0.1999999999998389 0  0.4089549580935208 0.1998691686391595 0  0.4322718174608562 0.200127451265745 0  0.4201487168029707 0.1999966199048527 0  0.3528922713220932 0.2000185703532356 0  0.5633122436674589 0.1999814296467508 0  0.3006558810093873 0.1999966199048318 0  0.5815926498168407 0.1966545283159175 0  0.2677053789419034 0.1964246479135325 0  0.5290511287476175 0.1970915826863981 0  0.5439877332217911 0.197091582686394 0  0.2825131256993216 0.2035478995978015 0  0.3199386661080599 0.202908417313604 0  0.4842413153250809 0.1970915826863873 0  0.5141145242734466 0.1970915826863843 0  0.3722167817676917 0.2029084173136195 0  0.4693047108508938 0.1970915826863783 0  0.3348752705822316 0.202908417313609 0  0.3871533862418661 0.2029084173136212 0  0.4543681063767183 0.1970915826863795 0  0.4991779197992749 0.1970915826863902 0  0.4020059614928624 0.203547899597858 0  0.4394315019025246 0.1970915826863714 0  0.2550657455369551 0.2034088125358657 0  0.2548908499171161 0.1966940311614271 0  0.5946539510196798 0.2024302972968126 0  0.267698176732111 0.2039977513680092 0  0.4261685417851465 0.196409292431739 0  0.3590076176283495 0.196411355804271 0  0.5571672426447437 0.2036011176410121 0  0.3066757059912147 0.1964092924317024 0  0.594380730180568 0.1966558399668133 0  0.4842413153245942 0.2040749161535287 0  0.4693047108503577 0.2040749161535231 0  0.3871533862424271 0.1959250838464788 0  0.372246743208829 0.1959123236376545 0  0.5141145242731028 0.2040749161535395 0  0.4543681063761134 0.2040749161535186 0  0.4019979587101454 0.1959834479682427 0  0.4394608940728603 0.2040870543693135 0  0.5439623148931173 0.2040856076781014 0  0.5290511287473298 0.2040749161535501 0  0.4991779197988497 0.2040749161535382 0  0.3347912413592433 0.1959225448935183 0  0.3199680582793816 0.1959123018030061 0  0.2825051229162361 0.1959834479681729 0  0.3590471196690275 0.2036304442587945 0  0.5571594006495384 0.1963685282145804 0  0.3067669986803285 0.203627750582736 0  0.4262598344738712 0.2036568242185335 0  0.5814408164431408 0.2041285596160068 0  0.5688286748170428 0.1961819304477386 0  0.4145905603063645 0.2038180695522843 0  0.3473758401724931 0.2038180695522752 0  0.2950977245128307 0.2038180695522663 0  0.5688286748170693 0.203818069552238 0  0.2950977245127906 0.1961819304477774 0  0.3473758401723931 0.1961819304478349 0  0.4145905603061963 0.1961819304479011 0  0.2601812407614425 0.2056861609747042
[...]
<PointData  Vectors="f_40-0"> 
<DataArray  type="Float64"  Name="f_40-0"  NumberOfComponents="3" format="ascii">0.0000000000000000e+00 0.0000000000000000e+00 0.0000000000000000e+00  0.0000000000000000e+00 0.0000000000000000e+00 0.0000000000000000e+00  0.0000000000000000e+00 0.0000000000000000e+00 0.0000000000000000e+00  0.0000000000000000e+00 0.0000000000000000e+00 0.0000000000000000e+00  -4.7737839839996521e-06 -7.4224310603988820e-04 0.0000000000000000e+00  5.4274199569541627e-05 -7.4713102707884714e-04 0.0000000000000000e+00  0.0000000000000000e+00 0.0000000000000000e+00 0.0000000000000000e+00  0.0000000000000000e+00 0.0000000000000000e+00 0.0000000000000000e+00  0.0000000000000000e+00 0.0000000000000000e+00 0.0000000000000000e+00  0.0000000000000000e+00 0.0000000000000000e+00 0.0000000000000000e+00  2.4140545109643431e-05 -7.4467619053331167e-04 0.0000000000000000e+00  1.1087233438233882e-01 0.0000000000000000e+00 0.0000000000000000e+00  2.0468738655202368e-01 0.0000000000000000e+00 0.0000000000000000e+00  2.8144515650903262e-01 0.0000000000000000e+00 0.0000000000000000e+00  3.4114564425345445e-01 0.0000000000000000e+00 0.0000000000000000e+00  3.8378884978528144e-01 0.0000000000000000e+00 0.0000000000000000e+00  4.0937477310451104e-01 0.0000000000000000e+00 0.0000000000000000e+00  4.1790341421111776e-01 0.0000000000000000e+00 0.0000000000000000e+00  4.0937477310502834e-01 0.0000000000000000e+00 0.0000000000000000e+00  3.8378884978617001e-01 0.0000000000000000e+00 0.0000000000000000e+00  3.4114564425455479e-01 0.0000000000000000e+00 0.0000000000000000e+00  2.8144515651007795e-01 0.0000000000000000e+00 0.0000000000000000e+00  2.0468738655291574e-01 0.0000000000000000e+00 0.0000000000000000e+00  1.1087233438284143e-01 0.0000000000000000e+00 0.0000000000000000e+00  0.0000000000000000e+00 0.0000000000000000e+00 0.0000000000000000e+00  0.0000000000000000e+00 0.0000000000000000e+00 0.0000000000000000e+00  0.0000000000000000e+00 0.0000000000000000e+00 0.0000000000000000e+00  0.0000000000000000e+00 0.0000000000000000e+00 0.0000000000000000e+00  0.0000000000000000e+00 0.0000000000000000e+00 0.0000000000000000e+00  0.0000000000000000e+00 0.0000000000000000e+00 0.0000000000000000e+00  0.0000000000000000e+00 0.0000000000000000e+00 0.0000000000000000e+00  0.0000000000000000e+00 0.0000000000000000e+00 0.0000000000000000e+00  0.0000000000000000e+00 0.0000000000000000e+00 0.0000000000000000e+00  0.0000000000000000e+00 0.0000000000000000e+00 0.0000000000000000e+00  0.0000000000000000e+00 0.0000000000000000e+00 0.0000000000000000e+00  0.0000000000000000e+00 0.0000000000000000e+00 0.0000000000000000e+00  0.0000000000000000e+00 0.0000000000000000e+00 0.0000000000000000e+00  0.0000000000000000e+00 0.0000000000000000e+00 0.0000000000000000e+00  0.0000000000000000e+00 0.0000000000000000e+00 0.0000000000000000e+00  0.0000000000000000e+00 0.0000000000000000e+00 0.0000000000000000e+00  0.0000000000000000e+00 0.0000000000000000e+00 0.0000000000000000e+00  0.0000000000000000e+00 0.0000000000000000e+00 0.0000000000000000e+00  0.0000000000000000e+00 0.0000000000000000e+00 0.0000000000000000e+00  0.0000000000000000e+00 0.0000000000000000e+00 0.0000000000000000e+00  0.0000000000000000e+00 0.0000000000000000e+00 0.0000000000000000e+00  0.0000000000000000e+00 0.0000000000000000e+00 0.0000000000000000e+00  0.0000000000000000e+00 0.0000000000000000e+00 0.0000000000000000e+00  0.0000000000000000e+00 0.0000000000000000e+00 0.0000000000000000e+00  0.0000000000000000e+00 0.0000000000000000e+00 0.0000000000000000e+00  0.0000000000000000e+00 0.0000000000000000e+00 0.0000000000000000e+00  0.0000000000000000e+00 0.0000000000000000e+00 0.0000000000000000e+00  0.0000000000000000e+00 0.0000000000000000e+00 0.0000000000000000e+00  0.0000000000000000e+00 0.0000000000000000e+00 0.0000000000000000e+00  0.0000000000000000e+00 0.0000000000000000e+00 0.0000000000000000e+00  0.0000000000000000e+00 0.0000000000000000e+00 0.0000000000000000e+00  0.0000000000000000e+00 0.0000000000000000e+00 0.0000000000000000e+00  0.0000000000000000e+00 0.0000000000000000e+00 0.0000000000000000e+00  0.0000000000000000e+00 0.0000000000000000e+00 0.0000000000000000e+00  0.0000000000000000e+00 0.0000000000000000e+00 0.0000000000000000e+00  0.0000000000000000e+00 0.0000000000000000e+00 0.0000000000000000e+00  0.0000000000000000e+00 0.0000000000000000e+00 0.0000000000000000e+00  0.0000000000000000e+00 0.0000000000000000e+00 0.0000000000000000e+00  4.0083593021504688e-01 1.2812312279015812e-02 0.0000000000000000e+00  2.8046574469125685e-01 -2.6787857670006517e-03 0.0000000000000000e+00  4.0182312639029466e-01 -9.4127698197167629e-03 0.0000000000000000e+00  0.0000000000000000e+00 0.0000000000000000e+00 0.0000000000000000e+00  0.0000000000000000e+00 0.0000000000000000e+00 0.0000000000000000e+00  0.0000000000000000e+00 0.0000000000000000e+00 0.0000000000000000e+00  0.0000000000000000e+00 0.0000000000000000e+00 0.0000000000000000e+00  0.0000000000000000e+00 0.0000000000000000e+00 0.0000000000000000e+00  0.0000000000000000e+00 0.0000000000000000e+00 0.0000000000000000e+00  0.0000000000000000e+00 0.0000000000000000e+00 0.0000000000000000e+00  0.0000000000000000e+00 0.0000000000000000e+00 0.0000000000000000e+00  0.0000000000000000e+00 0.0000000000000000e+00 0.0000000000000000e+00  0.0000000000000000e+00 0.0000000000000000e+00 0.0000000000000000e+00  0.0000000000000000e+00 0.0000000000000000e+00 0.0000000000000000e+00  0.0000000000000000e+00 0.0000000000000000e+00 0.0000000000000000e+00  0.0000000000000000e+00 0.0000000000000000e+00 0.0000000000000000e+00  0.0000000000000000e+00 0.0000000000000000e+00 0.0000000000000000e+00  0.0000000000000000e+00 0.0000000000000000e+00 0.0000000000000000e+00  0.0000000000000000e+00 0.0000000000000000e+00 0.0000000000000000e+00  0.0000000000000000e+00 0.0000000000000000e+00 0.0000000000000000e+00  0.0000000000000000e+00 0.0000000000000000e+00 0.0000000000000000e+00  0.0000000000000000e+00 0.0000000000000000e+00 0.0000000000000000e+00  0.0000000000000000e+00 0.0000000000000000e+00 0.0000000000000000e+00  0.0000000000000000e+00 0.0000000000000000e+00 0.0000000000000000e+00  0.0000000000000000e+00 0.0000000000000000e+00 0.0000000000000000e+00  0.0000000000000000e+00 0.0000000000000000e+00 0.0000000000000000e+00  0.0000000000000000e+00 0.0000000000000000e+00 0.0000000000000000e+00  0.0000000000000000e+00 0.0000000000000000e+00 0.0000000000000000e+00  0.0000000000000000e+00 0.0000000000000000e+00 0.0000000000000000e+00  0.0000000000000000e+00 0.0000000000000000e+00 0.0000000000000000e+00  0.0000000000000000e+00 0.0000000000000000e+00 0.0000000000000000e+00  0.0000000000000000e+00 0.0000000000000000e+00 0.0000000000000000e+00  0.0000000000000000e+00 0.0000000000000000e+00 0.0000000000000000e+00  0.0000000000000000e+00 0.0000000000000000e+00 0.0000000000000000e+00  0.0000000000000000e+00 0.0000000000000000e+00 0.0000000000000000e+00  0.0000000000000000e+00 0.0000000000000000e+00 0.0000000000000000e+00  0.0000000000000000e+00 0.0000000000000000e+00 0.0000000000000000e+00  0.0000000000000000e+00 0.0000000000000000e+00 0.0000000000000000e+00  0.0000000000000000e+00 0.0000000000000000e+00 0.0000000000000000e+00  0.0000000000000000e+00 0.0000000000000000e+00 0.0000000000000000e+00  0.0000000000000000e+00 0.0000000000000000e+00 0.0000000000000000e+00  0.0000000000000000e+00 0.0000000000000000e+00 0.0000000000000000e+00  0.0000000000000000e+00 0.0000000000000000e+00 0.0000000000000000e+00  0.0000000000000000e+00 0.0000000000000000e+00 0.0000000000000000e+00  0.0000000000000000e+00 0.0000000000000000e+00 0.0000000000000000e+00  0.0000000000000000e+00 0.0000000000000000e+00 0.0000000000000000e+00  0.0000000000000000e+00 0.0000000000000000e+00 0.0000000000000000e+00  0.0000000000000000e+00 0.0000000000000000e+00 0.0000000000000000e+00  0.0000000000000000e+00 0.0000000000000000e+00 0.0000000000000000e+00  0.0000000000000000e+00 0.0000000000000000e+00 0.0000000000000000e+00  0.0000000000000000e+00 0.0000000000000000e+00 0.0000000000000000e+00  0.0000000000000000e+00 0.0000000000000000e+00 0.0000000000000000e+00  0.0000000000000000e+00 0.0000000000000000e+00 0.0000000000000000e+00  0.0000000000000000e+00 0.0000000000000000e+00 0.0000000000000000e+00  0.0000000000000000e+00 0.0000000000000000e+00 0.0000000000000000e+00  0.0000000000000000e+00 0.0000000000000000e+00 0.0000000000000000e+00  0.0000000000000000e+00 0.0000000000000000e+00 0.0000000000000000e+00  0.0000000000000000e+00 0.0000000000000000e+00 0.0000000000000000e+00  0.0000000000000000e+00 0.0000000000000000e+00 0.0000000000000000e+00  0.0000000000000000e+00 0.0000000000000000e+00 0.0000000000000000e+00  0.0000000000000000e+00 0.0000000000000000e+00 0.0000000000000000e+00  0.0000000000000000e+00 0.0000000000000000e+00 0.0000000000000000e+00  0.0000000000000000e+00 0.0000000000000000e+00 0.0000000000000000e+00  0.0000000000000000e+00 0.0000000000000000e+00 0.0000000000000000e+00  0.0000000000000000e+00 0.0000000000000000e+00 0.0000000000000000e+00  0.0000000000000000e+00 0.0000000000000000e+00 0.0000000000000000e+00  0.0000000000000000e+00 0.0000000000000000e+00 0.0000000000000000e+00  0.0000000000000000e+00 0.0000000000000000e+00 0.0000000000000000e+00  0.0000000000000000e+00 0.0000000000000000e+00 0.0000000000000000e+00  0.0000000000000000e+00 0.0000000000000000e+00 0.0000000000000000e+00  0.0000000000000000e+00 0.0000000000000000e+00 0.0000000000000000e+00  0.0000000000000000e+00 0.0000000000000000e+00 0.0000000000000000e+00  0.0000000000000000e+00 0.0000000000000000e+00 0.0000000000000000e+00  0.0000000000000000e+00 0.0000000000000000e+00 0.0000000000000000e+00  0.0000000000000000e+00 0.0000000000000000e+00 0.0000000000000000e+00  0.0000000000000000e+00 0.0000000000000000e+00 0.0000000000000000e+00  0.0000000000000000e+00 0.0000000000000000e+00 0.0000000000000000e+00  0.0000000000000000e+00 0.0000000000000000e+00 0.0000000000000000e+00  0.0000000000000000e+00 0.0000000000000000e+00 0.0000000000000000e+00  0.0000000000000000e+00 0.0000000000000000e+00 0.0000000000000000e+00  0.0000000000000000e+00 0.0000000000000000e+00 0.0000000000000000e+00  2.4070963237252221e-06 -6.2153485707847068e-06 0.0000000000000000e+00  5.2344231660313087e-06 -8.2467959480579299e-06 0.0000000000000000e+00  8.2307845572055205e-06 -1.1104699677569855e-05 0.0000000000000000e+00  1.1533103243091754e-05 -1.4932567714319500e-05 0.0000000000000000e+00  1.4648228233828112e-05 -1.9759241964896868e-05 0.0000000000000000e+00  1.7960166587068962e-05 -2.5703931500222488e-05 0.0000000000000000e+00  2.0959827431556886e-05 -3.2448029412435573e-05 0.0000000000000000e+00  2.3887089055308250e-05 -4.0275696759181387e-05 0.0000000000000000e+00  2.6979287234470743e-05 -4.8939529156877624e-05 0.0000000000000000e+00  2.9662417266691832e-05 -5.8459323826388546e-05 0.0000000000000000e+00  3.2542876242275557e-05 -6.8886879478535413e-05 0.0000000000000000e+00  3.5011882894470452e-05 -8.0087246992861189e-05 0.0000000000000000e+00  3.7593013087730895e-05 -9.2102610840494512e-05 0.0000000000000000e+00  3.9863142153195086e-05 -1.0476987238520926e-04 0.0000000000000000e+00  4.2016661208047616e-05 -1.1822975813687862e-04 0.0000000000000000e+00  4.4240642780219144e-05 -1.3232111915810780e-04 0.0000000000000000e+00  4.6118493456960895e-05 -1.4700698858967470e-04 0.0000000000000000e+00  4.8082863526218987e-05 -1.6236509309798042e-04 0.0000000000000000e+00  4.9721768869098787e-05 -1.7822392351645350e-04 0.0000000000000000e+00  5.1421166015815503e-05 -1.9466123700323182e-04 0.0000000000000000e+00  5.2864084673560847e-05 -2.1155908305042895e-04 0.0000000000000000e+00  5.4293220204368598e-05 -2.2898619884248518e-04 0.0000000000000000e+00  5.5515736807672898e-05 -2.4678505530285460e-04 0.0000000000000000e+00  5.6627619288921595e-05 -2.6505268710780159e-04 0.0000000000000000e+00  5.7738721210464080e-05 -2.8367301288469561e-04 0.0000000000000000e+00  5.8652840646955144e-05 -3.0264802852030681e-04 0.0000000000000000e+00  5.9487380967168011e-05 -3.2202304431619926e-04 0.0000000000000000e+00  6.0187006608791786e-05 -3.4164368153112378e-04 0.0000000000000000e+00  6.0802385991881746e-05 -3.6161794465111271e-04 0.0000000000000000e+00  6.1288073270632061e-05 -3.8179958597938670e-04 0.0000000000000000e+00  6.1689208080012678e-05 -4.0228161656423363e-04 0.0000000000000000e+00  6.1963025039010188e-05 -4.2292380133382136e-04 0.0000000000000000e+00  6.2155526993474823e-05 -4.4382191488544210e-04 0.0000000000000000e+00  6.2220366308343491e-05 -4.6483404366996192e-04 0.0000000000000000e+00  6.2193180878754973e-05 -4.8607383971902034e-04 0.0000000000000000e+00  6.2053274086797418e-05 -5.0738873923301031e-04 0.0000000000000000e+00  6.1823279189504259e-05 -5.2888046566960153e-04 0.0000000000000000e+00  6.1482148480390613e-05 -5.5041598809870828e-04 0.0000000000000000e+00  6.1047650457296247e-05 -5.7209405807009700e-04 0.0000000000000000e+00  6.0501601253102965e-05 -5.9378922912116188e-04 0.0000000000000000e+00  5.9855407773412525e-05 -6.1557991998269896e-04 0.0000000000000000e+00  5.9115167679571663e-05 -6.3738538279810980e-04 0.0000000000000000e+00  5.8264876945696767e-05 -6.5924456980648912e-04 0.0000000000000000e+00  5.7357468186647030e-05 -6.8111670725148074e-04 0.0000000000000000e+00  5.6328661899518546e-05 -7.0296804033102703e-04 0.0000000000000000e+00  5.5249532101105011e-05 -7.2489281140767584e-04 0.0000000000000000e+00  3.8997571096453818e-05 -7.4588342321812605e-04 0.0000000000000000e+00  9.5095417723858765e-06 -7.4347352421077562e-04 0.0000000000000000e+00  -3.7353044872161301e-06 -7.2038406400307109e-04 0.0000000000000000e+00  -2.6048295514444667e-06 -6.9825830395190270e-04 0.0000000000000000e+00  -1.5160102235434747e-06 -6.7610398089755161e-04 0.0000000000000000e+00  -5.2086150129899888e-07 -6.5401523490617283e-04 0.0000000000000000e+00  4.2039755063383183e-07 -6.3195420905906704e-04 0.0000000000000000e+00  1.2695892548707012e-06 -6.0993881488239916e-04 0.0000000000000000e+00  2.0774024724918596e-06 -5.8797737220097116e-04 0.0000000000000000e+00  2.7874983768756534e-06 -5.6605372732184854e-04 0.0000000000000000e+00  3.4627435539302427e-06 -5.4424519588408451e-04 0.0000000000000000e+00  4.0445846300017141e-06 -5.2248007970502391e-04 0.0000000000000000e+00  4.6067533086545330e-06 -5.0085870759219943e-04 0.0000000000000000e+00  5.0682862652227678e-06 -4.7931452145144756e-04 0.0000000000000000e+00  5.5246530510466968e-06 -4.5795398117976161e-04 0.0000000000000000e+00  5.8756872892131443e-06 -4.3671257364040071e-04 0.0000000000000000e+00  6.2389409021637467e-06 -4.1569213169276152e-04 0.0000000000000000e+00  6.4841308369991193e-06 -3.9483097272862214e-04 0.0000000000000000e+00  6.7607540286354113e-06 -3.7422701484177812e-04 0.0000000000000000e+00  6.9039507451464273e-06 -3.5382297100403814e-04 0.0000000000000000e+00  7.0932582827815459e-06 -3.3372824730429134e-04 0.0000000000000000e+00  7.1390285196463568e-06 -3.1388670174606597e-04 0.0000000000000000e+00  7.2552224606184062e-06 -2.9440079720375299e-04 0.0000000000000000e+00  7.2100834295681733e-06 -2.7521820424240324e-04 0.0000000000000000e+00  7.2328948864110203e-06 -2.5642823403441566e-04 0.0000000000000000e+00  7.1243018094938471e-06 -2.3798396956605270e-04 0.0000000000000000e+00  6.9545838502560267e-06 -2.2002304044952081e-04 0.0000000000000000e+00  6.8704683695294274e-06 -2.0242975007569108e-04 0.0000000000000000e+00  6.6543502906008387e-06 -1.8533304951154128e-04 0.0000000000000000e+00  6.4624142361800789e-06 -1.6875968178232351e-04 0.0000000000000000e+00  6.1760640104048950e-06 -1.5268565397894235e-04 0.0000000000000000e+00  5.9089467675440834e-06 -1.3721115484860655e-04 0.0000000000000000e+00  5.5482062168551799e-06 -1.2227746532142360e-04 0.0000000000000000e+00  5.2717195633950195e-06 -1.0808431883818103e-04 0.0000000000000000e+00  4.8227776807099942e-06 -9.4431019670826387e-05 0.0000000000000000e+00  4.3226747109707354e-06 -8.1615985688901672e-05 0.0000000000000000e+00  3.9792821524483081e-06 -6.9390782185736901e-05 0.0000000000000000e+00  3.4821809725350880e-06 -5.8026150060361865e-05 0.0000000000000000e+00  3.0384052660607283e-06 -4.7489588877101289e-05 0.0000000000000000e+00  2.4909958659659294e-06 -3.7770165633402521e-05 0.0000000000000000e+00  2.0867876972234463e-06 -2.9059430067833631e-05 0.0000000000000000e+00  1.4748659465939331e-06 -2.1127482135220084e-05 0.0000000000000000e+00  8.4043410714211168e-07 -1.4326721808173800e-05 0.0000000000000000e+00  4.6310214561650214e-07 -8.3506210784794322e-06 0.0000000000000000e+00  -6.4850014610689949e-08 -3.4602091185303296e-06 0.0000000000000000e+00  -3.0749765424016866e-07 3.5352408512200890e-07 0.0000000000000000e+00  -5.7699216435508468e-07 2.9042599599540136e-06 0.0000000000000000e+00  -3.1276330118175618e-07 4.0867691693248641e-06 0.0000000000000000e+00  8.0613957255276002e-07 -1.1124609897366023e-06 0.0000000000000000e+00  2.6466513744856600e-05 -7.1158902056631384e-04 0.0000000000000000e+00  2.8837359285719996e-05 -6.6954784101767742e-04 0.0000000000000000e+00  3.1203545336338423e-05 -6.0102637742974051e-04 0.0000000000000000e+00  4.7858107617944072e-06 -6.4547232350370364e-06 0.0000000000000000e+00  3.2101894265150073e-05 -5.5813724011897147e-04 0.0000000000000000e+00  8.2106761255188836e-06 -1.5670145199668160e-05 0.0000000000000000e+00  3.3040867939668327e-05 -5.1481241046761163e-04 0.0000000000000000e+00  1.3707710879155972e-05 -3.8583374491000947e-05 0.0000000000000000e+00  1.7106501545471958e-05 -5.7573280358481038e-05 0.0000000000000000e+00  3.3661068577684908e-05 -4.7192860238642707e-04 0.0000000000000000e+00  2.3991648835413407e-05 -1.2024159994421645e-04 0.0000000000000000e+00  3.3966004714263308e-05 -3.8810254387880433e-04 0.0000000000000000e+00  1.9845118381752806e-05 -7.9135550023106088e-05 0.0000000000000000e+00  2.6488263967809214e-05 -1.4936557097296370e-04 0.0000000000000000e+00  3.3657766251796720e-05 -3.4748712156966514e-04 0.0000000000000000e+00  3.3968133647745395e-05 -4.2963854864808962e-04 0.0000000000000000e+00  2.8485430521937740e-05 -1.8133629237485307e-04 0.0000000000000000e+00  3.3041795942786701e-05 -3.0798692234126744e-04 0.0000000000000000e+00  2.9814510220001752e-05 -2.1390173839785698e-04 0.0000000000000000e+00  3.2474298286713852e-05 -2.7062171489540418e-04 0.0000000000000000e+00  3.1150735921072858e-05 -2.4069669564923528e-04 0.0000000000000000e+00  2.2150513560484818e-05 -9.8122919728342429e-05 0.0000000000000000e+00  2.9517852175087720e-05 -6.3656651572818984e-04 0.0000000000000000e+00  1.0992048697224761e-05 -2.5731275597463519e-05 0.0000000000000000e+00  1.7377238068137384e-05 -6.8957468940000972e-04 0.0000000000000000e+00  1.5570259753057960e-06 -1.1726532755735212e-06 0.0000000000000000e+00  2.4195069161618122e-05 -5.3552397188294434e-04 0.0000000000000000e+00  2.3032995307253176e-05 -5.7906892382335263e-04 0.0000000000000000e+00  8.8659901592916748e-06 -1.2904001808460600e-05 0.0000000000000000e+00  1.9207212971198207e-05 -4.9181668813670111e-05 0.0000000000000000e+00  2.5943544218111730e-05 -4.0771901273728867e-04 0.0000000000000000e+00  2.5063713785017824e-05 -4.9235257498709574e-04 0.0000000000000000e+00  3.1120661970251069e-05 -1.3572472999135698e-04 0.0000000000000000e+00  2.5971232792649645e-05 -3.6657374662592924e-04 0.0000000000000000e+00  2.3020461457830840e-05 -7.0117909842158855e-05 0.0000000000000000e+00  3.3710644318888154e-05 -1.6652241640821921e-04 0.0000000000000000e+00  2.5725892457973586e-05 -3.2644518361372912e-04 0.0000000000000000e+00  2.5643011437308547e-05 -4.4969701234278238e-04 0.0000000000000000e+00  3.7396117058104325e-05 -1.9961565569300390e-04 0.0000000000000000e+00  2.5210403256144166e-05 -2.8753131126066042e-04 0.0000000000000000e+00  8.0649748318627821e-09 -1.4655820982984748e-06 0.0000000000000000e+00  -4.5590443994175601e-07 9.4821289102271218e-07 0.0000000000000000e+00  3.2259408272669298e-05 -7.2943228594228116e-04 0.0000000000000000e+00  4.3199891614915172e-06 -5.6707166185312291e-06 0.0000000000000000e+00