<?xml version="1.0"?>
<VTKFile type="UnstructuredGrid"  version="0.1"  >
<UnstructuredGrid>
<Piece  NumberOfPoints="1419" NumberOfCells="2698">
<Points>
<DataArray  type="Float64"  NumberOfComponents="3"  format="ascii">0 0 0  0 0.41 0  2.5 0 0  2.5 0.41 0  0.6 0.19 0  0.6 0.21 0  0.25 0.2 0  0.15 0.2 0  0.2489897948556636 0.21 0  0.2489897948556636 0.19 0  0.6 0.2 0  0 0.3807142857143437 0  0 0.3514285714286952 0  0 0.3221428571430699 0  0 0.29285714285744 0  0 0.2635714285718054 0  0 0.2342857142861561 0  0 0.2050000000005308 0  0 0.175714285714732 0  0 0.1464285714289574 0  0 0.1171428571431897 0  0 0.08785714285737878 0  0 0.05857142857161107 0  0 0.02928571428580012 0  0.03015443760436003 0 0  0.06140001986583606 0 0  0.09377624077125973 0 0  0.1273239957535082 0 0  0.1620856860351972 0 0  0.1981052433264291 0 0  0.235428184091502 0 0  0.2741016576309132 0 0  0.3141745521465447 0 0  0.3556974926295285 0 0  0.3987229542472677 0 0  0.4433053055141081 0 0  0.4895008759286886 0 0  0.5373680609405097 0 0  0.5869673343216626 0 0  0.6383613676634521 0 0  0.6916151138468254 0 0  0.7467958595648856 0 0  0.8039733463919316 0 0  0.8632198139502143 0 0  0.9246101326867038 0 0  0.9882218810934433 0 0  1.054135445558498 0 0  1.122434100542598 0 0  1.193204177141305 0 0  1.266535089879536 0 0  1.342519516046404 0 0  1.421253448503939 0 0  1.502836389106271 0 0  1.587371439758838 0 0  1.674965418777374 0 0  1.765729001825544 0 0  1.859776908880082 0 0  1.957227977487062 0 0  2.058205329869943 0 0  2.162836591189951 0 0  2.271253957290865 0 0  2.383594446803425 0 0  2.5 0.1024999999997612 0  2.5 0.2049999999994743 0  2.5 0.3074999999997183 0  2.383594446803656 0.41 0  2.271253957291315 0.41 0  2.162836591190598 0.41 0  2.058205329870775 0.41 0  1.957227977488067 0.41 0  1.859776908881246 0.41 0  1.765729001826854 0.41 0  1.674965418778818 0.41 0  1.58737143976041 0.41 0  1.502836389107956 0.41 0  1.421253448505726 0.41 0  1.342519516048286 0.41 0  1.266535089881505 0.41 0  1.193204177143353 0.41 0  1.122434100544716 0.41 0  1.05413544556068 0.41 0  0.9882218810956305 0.41 0  0.9246101326886647 0.41 0  0.8632198139519631 0.41 0  0.8039733463934788 0.41 0  0.7467958595662458 0.41 0  0.6916151138480078 0.41 0  0.6383613676644679 0.41 0  0.5869673343225223 0.41 0  0.5373680609412221 0.41 0  0.4895008759292634 0.41 0  0.4433053055145528 0.41 0  0.3987229542475914 0.41 0  0.3556974926297398 0.41 0  0.3141745521466497 0.41 0  0.2741016576310038 0.41 0  0.2354281840915826 0.41 0  0.1981052433265003 0.41 0  0.1620856860352591 0.41 0  0.1273239957535623 0.41 0  0.09377624077128965 0.41 0  0.06140001986584975 0.41 0  0.03015443760436654 0.41 0  0.2497468076502589 0.2050254481002335 0  0.2497468076502614 0.1949745518997913 0  0.2469965252529372 0.1829317073451959 0  0.2439893735792749 0.1762316384219906 0  0.2400332147834255 0.1700443375285386 0  0.2352133972704371 0.1645032867342007 0  0.2296339016332438 0.1597280261969788 0  0.2234150974217223 0.1558215752574715 0  0.2166911463437691 0.1528682099456123 0  0.2096071079204251 0.1509316448471593 0  0.2023158100364996 0.1500536585536553 0  0.194974551899914 0.1502531923497262 0  0.1877417105387872 0.1515259415822739 0  0.1807733240461124 0.153844448527136 0  0.1742197252835808 0.15715869474974 0  0.1682222986673531 0.1613971801805478 0  0.162910430003803 0.1664684656256651 0  0.1583987151779087 0.1722631454351573 0  0.1547844879126891 0.178656207771761 0  0.1521457199348551 0.1855097315605723 0  0.1505393388476355 0.1926758619366523 0  0.1505393388476328 0.2073241380633295 0  0.1521457199348437 0.2144902684393899 0  0.1547844879126531 0.221343792228163 0  0.1583987151778488 0.2277368545647528 0  0.1629104300036858 0.2335315343742052 0  0.1682222986671726 0.2386028198193036 0  0.1742197252833576 0.2428413052501257 0  0.1807733240458683 0.2461555514727623 0  0.1877417105384929 0.2484740584176516 0  0.1949745518995776 0.2497468076502398 0  0.202315810036185 0.2499463414463592 0  0.2096071079201568 0.2490683551528932 0  0.2166911463435495 0.2471317900544655 0  0.2234150974215506 0.2441784247426195 0  0.2296339016331197 0.2402719738031125 0  0.2352133972703547 0.2354967132658811 0  0.2400332147833751 0.2299556624715287 0  0.2439893735792577 0.2237683615780412 0  0.246996525252926 0.2170682926548348 0  0.25645809709277 0.21 0  0.2639263993298655 0.21 0  0.271394701566961 0.21 0  0.2788630038040554 0.21 0  0.2863313060411479 0.21 0  0.2937996082782405 0.21 0  0.301267910515333 0.21 0  0.3087362127524279 0.21 0  0.3162045149895234 0.21 0  0.3236728172265972 0.21 0  0.3311411194636928 0.21 0  0.3386094217007701 0.21 0  0.3460777239378666 0.21 0  0.3535460261749672 0.21 0  0.3610143284120516 0.21 0  0.3684826306491596 0.21 0  0.3759509328862226 0.21 0  0.383419235123329 0.21 0  0.3908875373604028 0.21 0  0.3983558395975142 0.21 0  0.4058241418345938 0.21 0  0.4132924440716992 0.21 0  0.4207607463087888 0.21 0  0.4282290485459029 0.21 0  0.4356973507830418 0.21 0  0.4431656530201649 0.21 0  0.4506339552573136 0.21 0  0.4581022574944306 0.21 0  0.4655705597315852 0.21 0  0.4730388619686996 0.21 0  0.480507164205851 0.21 0  0.4879754664429498 0.21 0  0.4954437686800938 0.21 0  0.502912070917267 0.21 0  0.5103803731544119 0.21 0  0.5178486753915261 0.21 0  0.5253169776286404 0.21 0  0.5327852798657868 0.21 0  0.5402535821029386 0.21 0  0.54772188434007 0.21 0  0.5551901865771842 0.21 0  0.5626584888143201 0.21 0  0.5701267910514778 0.21 0  0.5775950932886138 0.21 0  0.5850633955257281 0.21 0  0.5925316977628483 0.21 0  0.6 0.2050000000000054 0  0.6 0.1950000000000217 0  0.5925316977628897 0.19 0  0.5850633955257988 0.19 0  0.5775950932887378 0.19 0  0.5701267910515998 0.19 0  0.5626584888145268 0.19 0  0.5551901865773963 0.19 0  0.547721884340339 0.19 0  0.5402535821032429 0.19 0  0.5327852798661811 0.19 0  0.5253169776290537 0.19 0  0.5178486753919799 0.19 0  0.5103803731549078 0.19 0  0.502912070917822 0.19 0  0.4954437686807294 0.19 0  0.4879754664436223 0.19 0  0.4805071642065402 0.19 0  0.4730388619694271 0.19 0  0.4655705597323621 0.19 0  0.4581022574952563 0.19 0  0.4506339552581777 0.19 0  0.4431656530210671 0.19 0  0.4356973507839815 0.19 0  0.4282290485468779 0.19 0  0.4207607463097617 0.19 0  0.4132924440726327 0.19 0  0.4058241418354857 0.19 0  0.3983558395983636 0.19 0  0.3908875373612097 0.19 0  0.3834192351240934 0.19 0  0.3759509328869369 0.19 0  0.3684826306498175 0.19 0  0.361014328412667 0.19 0  0.3535460261755617 0.19 0  0.3460777239384295 0.19 0  0.3386094217012945 0.19 0  0.3311411194641595 0.19 0  0.3236728172270245 0.19 0  0.3162045149898895 0.19 0  0.3087362127527544 0.19 0  0.3012679105156187 0.19 0  0.2937996082784807 0.19 0  0.2863313060413428 0.19 0  0.2788630038042048 0.19 0  0.2713947015670686 0.19 0  0.2639263993299336 0.19 0  0.2564580970927985 0.19 0  0.2607803159922026 0.2000727136295815 0  0.5887803774232762 0.2001272386983733 0  0.5745072403740523 0.2002044435018727 0  0.5511891430099709 0.2001122610077113 0  0.2751288526855082 0.20000000000002 0  0.5365194309847112 0.1999999999999436 0  0.2894621222999649 0.1998691686390484 0  0.5215828265105155 0.1999999999999228 0  0.3127789816668748 0.1998657885438805 0  0.3274069683451451 0.2000000000000796 0  0.5066462220363641 0.199999999999908 0  0.3650630746574081 0.199866017807523 0  0.476773013087985 0.1999999999998713 0  0.3417402379596385 0.1998691686391011 0  0.3796850840047755 0.200000000000134 0  0.4618364086138087 0.1999999999998546 0  0.4917096175621762 0.1999999999998808 0  0.3946216884789568 0.2000000000001512 0  0.446899804139621 0.1999999999998389 0  0.4089549580935208 0.1998691686391595 0  0.4322718174608562 0.200127451265745 0  0.4201487168029707 0.1999966199048527 0  0.3528922713220932 0.2000185703532356 0  0.5633122436674589 0.1999814296467508 0  0.3006558810093873 0.1999966199048318 0  0.5815926498168407 0.1966545283159175 0  0.2677053789419034 0.1964246479135325 0  0.5290511287476175 0.1970915826863981 0  0.5439877332217911 0.197091582686394 0  0.2825131256993216 0.2035478995978015 0  0.3199386661080599 0.202908417313604 0  0.4842413153250809 0.1970915826863873 0  0.5141145242734466 0.1970915826863843 0  0.3722167817676917 0.2029084173136195 0  0.4693047108508938 0.1970915826863783 0  0.3348752705822316 0.202908417313609 0  0.3871533862418661 0.2029084173136212 0  0.4543681063767183 0.1970915826863795 0  0.4991779197992749 0.1970915826863902 0  0.4020059614928624 0.203547899597858 0  0.4394315019025246 0.1970915826863714 0  0.2550657455369551 0.2034088125358657 0  0.2548908499171161 0.1966940311614271 0  0.5946539510196798 0.2024302972968126 0  0.267698176732111 0.2039977513680092 0  0.4261685417851465 0.196409292431739 0  0.3590076176283495 0.196411355804271 0  0.5571672426447437 0.2036011176410121 0  0.3066757059912147 0.1964092924317024 0  0.594380730180568 0.1966558399668133 0  0.4842413153245942 0.2040749161535287 0  0.4693047108503577 0.2040749161535231 0  0.3871533862424271 0.1959250838464788 0  0.372246743208829 0.1959123236376545 0  0.5141145242731028 0.2040749161535395 0  0.4543681063761134 0.2040749161535186 0  0.4019979587101454 0.1959834479682427 0  0.4394608940728603 0.2040870543693135 0  0.5439623148931173 0.2040856076781014 0  0.5290511287473298 0.2040749161535501 0  0.4991779197988497 0.2040749161535382 0  0.3347912413592433 0.1959225448935183 0  0.3199680582793816 0.1959123018030061 0  0.2825051229162361 0.1959834479681729 0  0.3590471196690275 0.2036304442587945 0  0.5571594006495384 0.1963685282145804 0  0.3067669986803285 0.203627750582736 0  0.4262598344738712 0.2036568242185335 0  0.5814408164431408 0.2041285596160068 0  0.5688286748170428 0.1961819304477386 0  0.4145905603063645 0.2038180695522843 0  0.3473758401724931 0.2038180695522752 0  0.2950977245128307 0.2038180695522663 0  0.5688286748170693 0.203818069552238 0  0.2950977245127906 0.1961819304477774 0  0.3473758401723931 0.1961819304478349 0  0.4145905603061963 0.1961819304479011 0  0.2601812407614425 0.2056861609747042
[...]
<PointData  Vectors="f_40-0"> 
<DataArray  type="Float64"  Name="f_40-0"  NumberOfComponents="3" format="ascii">0.0000000000000000e+00 0.0000000000000000e+00 0.0000000000000000e+00  0.0000000000000000e+00 0.0000000000000000e+00 0.0000000000000000e+00  0.0000000000000000e+00 0.0000000000000000e+00 0.0000000000000000e+00  0.0000000000000000e+00 0.0000000000000000e+00 0.0000000000000000e+00  -4.7888735580104295e-06 -7.8164344198172417e-04 0.0000000000000000e+00  5.7521854430047338e-05 -7.8644705157092224e-04 0.0000000000000000e+00  0.0000000000000000e+00 0.0000000000000000e+00 0.0000000000000000e+00  0.0000000000000000e+00 0.0000000000000000e+00 0.0000000000000000e+00  0.0000000000000000e+00 0.0000000000000000e+00 0.0000000000000000e+00  0.0000000000000000e+00 0.0000000000000000e+00 0.0000000000000000e+00  2.5755975562976895e-05 -7.8403314240979550e-04 0.0000000000000000e+00  1.1673641040341511e-01 0.0000000000000000e+00 0.0000000000000000e+00  2.1551337305247290e-01 0.0000000000000000e+00 0.0000000000000000e+00  2.9633088794715035e-01 0.0000000000000000e+00 0.0000000000000000e+00  3.5918895508754084e-01 0.0000000000000000e+00 0.0000000000000000e+00  4.0408757447363636e-01 0.0000000000000000e+00 0.0000000000000000e+00  4.3102674610543412e-01 0.0000000000000000e+00 0.0000000000000000e+00  4.4000646998290721e-01 0.0000000000000000e+00 0.0000000000000000e+00  4.3102674610597880e-01 0.0000000000000000e+00 0.0000000000000000e+00  4.0408757447457189e-01 0.0000000000000000e+00 0.0000000000000000e+00  3.5918895508869947e-01 0.0000000000000000e+00 0.0000000000000000e+00  2.9633088794825097e-01 0.0000000000000000e+00 0.0000000000000000e+00  2.1551337305341214e-01 0.0000000000000000e+00 0.0000000000000000e+00  1.1673641040394431e-01 0.0000000000000000e+00 0.0000000000000000e+00  0.0000000000000000e+00 0.0000000000000000e+00 0.0000000000000000e+00  0.0000000000000000e+00 0.0000000000000000e+00 0.0000000000000000e+00  0.0000000000000000e+00 0.0000000000000000e+00 0.0000000000000000e+00  0.0000000000000000e+00 0.0000000000000000e+00 0.0000000000000000e+00  0.0000000000000000e+00 0.0000000000000000e+00 0.0000000000000000e+00  0.0000000000000000e+00 0.0000000000000000e+00 0.0000000000000000e+00  0.0000000000000000e+00 0.0000000000000000e+00 0.0000000000000000e+00  0.0000000000000000e+00 0.0000000000000000e+00 0.0000000000000000e+00  0.0000000000000000e+00 0.0000000000000000e+00 0.0000000000000000e+00  0.0000000000000000e+00 0.0000000000000000e+00 0.0000000000000000e+00  0.0000000000000000e+00 0.0000000000000000e+00 0.0000000000000000e+00  0.0000000000000000e+00 0.0000000000000000e+00 0.0000000000000000e+00  0.0000000000000000e+00 0.0000000000000000e+00 0.0000000000000000e+00  0.0000000000000000e+00 0.0000000000000000e+00 0.0000000000000000e+00  0.0000000000000000e+00 0.0000000000000000e+00 0.0000000000000000e+00  0.0000000000000000e+00 0.0000000000000000e+00 0.0000000000000000e+00  0.0000000000000000e+00 0.0000000000000000e+00 0.0000000000000000e+00  0.0000000000000000e+00 0.0000000000000000e+00 0.0000000000000000e+00  0.0000000000000000e+00 0.0000000000000000e+00 0.0000000000000000e+00  0.0000000000000000e+00 0.0000000000000000e+00 0.0000000000000000e+00  0.0000000000000000e+00 0.0000000000000000e+00 0.0000000000000000e+00  0.0000000000000000e+00 0.0000000000000000e+00 0.0000000000000000e+00  0.0000000000000000e+00 0.0000000000000000e+00 0.0000000000000000e+00  0.0000000000000000e+00 0.0000000000000000e+00 0.0000000000000000e+00  0.0000000000000000e+00 0.0000000000000000e+00 0.0000000000000000e+00  0.0000000000000000e+00 0.0000000000000000e+00 0.0000000000000000e+00  0.0000000000000000e+00 0.0000000000000000e+00 0.0000000000000000e+00  0.0000000000000000e+00 0.0000000000000000e+00 0.0000000000000000e+00  0.0000000000000000e+00 0.0000000000000000e+00 0.0000000000000000e+00  0.0000000000000000e+00 0.0000000000000000e+00 0.0000000000000000e+00  0.0000000000000000e+00 0.0000000000000000e+00 0.0000000000000000e+00  0.0000000000000000e+00 0.0000000000000000e+00 0.0000000000000000e+00  0.0000000000000000e+00 0.0000000000000000e+00 0.0000000000000000e+00  0.0000000000000000e+00 0.0000000000000000e+00 0.0000000000000000e+00  0.0000000000000000e+00 0.0000000000000000e+00 0.0000000000000000e+00  0.0000000000000000e+00 0.0000000000000000e+00 0.0000000000000000e+00  0.0000000000000000e+00 0.0000000000000000e+00 0.0000000000000000e+00  0.0000000000000000e+00 0.0000000000000000e+00 0.0000000000000000e+00  4.2221486124462815e-01 1.3003891502432630e-02 0.0000000000000000e+00  2.9521615411431656e-01 -2.6932679009385083e-03 0.0000000000000000e+00  4.2296623851840581e-01 -9.2342142896186669e-03 0.0000000000000000e+00  0.0000000000000000e+00 0.0000000000000000e+00 0.0000000000000000e+00  0.0000000000000000e+00 0.0000000000000000e+00 0.0000000000000000e+00  0.0000000000000000e+00 0.0000000000000000e+00 0.0000000000000000e+00  0.0000000000000000e+00 0.0000000000000000e+00 0.0000000000000000e+00  0.0000000000000000e+00 0.0000000000000000e+00 0.0000000000000000e+00  0.0000000000000000e+00 0.0000000000000000e+00 0.0000000000000000e+00  0.0000000000000000e+00 0.0000000000000000e+00 0.0000000000000000e+00  0.0000000000000000e+00 0.0000000000000000e+00 0.0000000000000000e+00  0.0000000000000000e+00 0.0000000000000000e+00 0.0000000000000000e+00  0.0000000000000000e+00 0.0000000000000000e+00 0.0000000000000000e+00  0.0000000000000000e+00 0.0000000000000000e+00 0.0000000000000000e+00  0.0000000000000000e+00 0.0000000000000000e+00 0.0000000000000000e+00  0.0000000000000000e+00 0.0000000000000000e+00 0.0000000000000000e+00  0.0000000000000000e+00 0.0000000000000000e+00 0.0000000000000000e+00  0.0000000000000000e+00 0.0000000000000000e+00 0.0000000000000000e+00  0.0000000000000000e+00 0.0000000000000000e+00 0.0000000000000000e+00  0.0000000000000000e+00 0.0000000000000000e+00 0.0000000000000000e+00  0.0000000000000000e+00 0.0000000000000000e+00 0.0000000000000000e+00  0.0000000000000000e+00 0.0000000000000000e+00 0.0000000000000000e+00  0.0000000000000000e+00 0.0000000000000000e+00 0.0000000000000000e+00  0.0000000000000000e+00 0.0000000000000000e+00 0.0000000000000000e+00  0.0000000000000000e+00 0.0000000000000000e+00 0.0000000000000000e+00  0.0000000000000000e+00 0.0000000000000000e+00 0.0000000000000000e+00  0.0000000000000000e+00 0.0000000000000000e+00 0.0000000000000000e+00  0.0000000000000000e+00 0.0000000000000000e+00 0.0000000000000000e+00  0.0000000000000000e+00 0.0000000000000000e+00 0.0000000000000000e+00  0.0000000000000000e+00 0.0000000000000000e+00 0.0000000000000000e+00  0.0000000000000000e+00 0.0000000000000000e+00 0.0000000000000000e+00  0.0000000000000000e+00 0.0000000000000000e+00 0.0000000000000000e+00  0.0000000000000000e+00 0.0000000000000000e+00 0.0000000000000000e+00  0.0000000000000000e+00 0.0000000000000000e+00 0.0000000000000000e+00  0.0000000000000000e+00 0.0000000000000000e+00 0.0000000000000000e+00  0.0000000000000000e+00 0.0000000000000000e+00 0.0000000000000000e+00  0.0000000000000000e+00 0.0000000000000000e+00 0.0000000000000000e+00  0.0000000000000000e+00 0.0000000000000000e+00 0.0000000000000000e+00  0.0000000000000000e+00 0.0000000000000000e+00 0.0000000000000000e+00  0.0000000000000000e+00 0.0000000000000000e+00 0.0000000000000000e+00  0.0000000000000000e+00 0.0000000000000000e+00 0.0000000000000000e+00  0.0000000000000000e+00 0.0000000000000000e+00 0.0000000000000000e+00  0.0000000000000000e+00 0.0000000000000000e+00 0.0000000000000000e+00  0.0000000000000000e+00 0.0000000000000000e+00 0.0000000000000000e+00  0.0000000000000000e+00 0.0000000000000000e+00 0.0000000000000000e+00  0.0000000000000000e+00 0.0000000000000000e+00 0.0000000000000000e+00  0.0000000000000000e+00 0.0000000000000000e+00 0.0000000000000000e+00  0.0000000000000000e+00 0.0000000000000000e+00 0.0000000000000000e+00  0.0000000000000000e+00 0.0000000000000000e+00 0.0000000000000000e+00  0.0000000000000000e+00 0.0000000000000000e+00 0.0000000000000000e+00  0.0000000000000000e+00 0.0000000000000000e+00 0.0000000000000000e+00  0.0000000000000000e+00 0.0000000000000000e+00 0.0000000000000000e+00  0.0000000000000000e+00 0.0000000000000000e+00 0.0000000000000000e+00  0.0000000000000000e+00 0.0000000000000000e+00 0.0000000000000000e+00  0.0000000000000000e+00 0.0000000000000000e+00 0.0000000000000000e+00  0.0000000000000000e+00 0.0000000000000000e+00 0.0000000000000000e+00  0.0000000000000000e+00 0.0000000000000000e+00 0.0000000000000000e+00  0.0000000000000000e+00 0.0000000000000000e+00 0.0000000000000000e+00  0.0000000000000000e+00 0.0000000000000000e+00 0.0000000000000000e+00  0.0000000000000000e+00 0.0000000000000000e+00 0.0000000000000000e+00  0.0000000000000000e+00 0.0000000000000000e+00 0.0000000000000000e+00  0.0000000000000000e+00 0.0000000000000000e+00 0.0000000000000000e+00  0.0000000000000000e+00 0.0000000000000000e+00 0.0000000000000000e+00  0.0000000000000000e+00 0.0000000000000000e+00 0.0000000000000000e+00  0.0000000000000000e+00 0.0000000000000000e+00 0.0000000000000000e+00  0.0000000000000000e+00 0.0000000000000000e+00 0.0000000000000000e+00  0.0000000000000000e+00 0.0000000000000000e+00 0.0000000000000000e+00  0.0000000000000000e+00 0.0000000000000000e+00 0.0000000000000000e+00  0.0000000000000000e+00 0.0000000000000000e+00 0.0000000000000000e+00  0.0000000000000000e+00 0.0000000000000000e+00 0.0000000000000000e+00  0.0000000000000000e+00 0.0000000000000000e+00 0.0000000000000000e+00  0.0000000000000000e+00 0.0000000000000000e+00 0.0000000000000000e+00  0.0000000000000000e+00 0.0000000000000000e+00 0.0000000000000000e+00  0.0000000000000000e+00 0.0000000000000000e+00 0.0000000000000000e+00  0.0000000000000000e+00 0.0000000000000000e+00 0.0000000000000000e+00  0.0000000000000000e+00 0.0000000000000000e+00 0.0000000000000000e+00  0.0000000000000000e+00 0.0000000000000000e+00 0.0000000000000000e+00  0.0000000000000000e+00 0.0000000000000000e+00 0.0000000000000000e+00  0.0000000000000000e+00 0.0000000000000000e+00 0.0000000000000000e+00  0.0000000000000000e+00 0.0000000000000000e+00 0.0000000000000000e+00  0.0000000000000000e+00 0.0000000000000000e+00 0.0000000000000000e+00  2.4697238492191726e-06 -6.1745198421882223e-06 0.0000000000000000e+00  5.3682565115316439e-06 -8.2683762573534728e-06 0.0000000000000000e+00  8.4307973243126414e-06 -1.1247159002347126e-05 0.0000000000000000e+00  1.1811333614742303e-05 -1.5249624773093100e-05 0.0000000000000000e+00  1.5001301983431966e-05 -2.0302055401917140e-05 0.0000000000000000e+00  1.8408688531681438e-05 -2.6521610890872653e-05 0.0000000000000000e+00  2.1496402451979676e-05 -3.3580160327388783e-05 0.0000000000000000e+00  2.4519131595597114e-05 -4.1775595758698802e-05 0.0000000000000000e+00  2.7722775471342603e-05 -5.0848256627937927e-05 0.0000000000000000e+00  3.0504312132505946e-05 -6.0822617503044684e-05 0.0000000000000000e+00  3.3501431977086707e-05 -7.1749158953112385e-05 0.0000000000000000e+00  3.6070668309370150e-05 -8.3493192153267251e-05 0.0000000000000000e+00  3.8765213674480045e-05 -9.6095322661774775e-05 0.0000000000000000e+00  4.1134906936906187e-05 -1.0938579563618297e-04 0.0000000000000000e+00  4.3386948853060333e-05 -1.2351539570440293e-04 0.0000000000000000e+00  4.5717279423029605e-05 -1.3831225349554687e-04 0.0000000000000000e+00  4.7686125128602924e-05 -1.5374140504228559e-04 0.0000000000000000e+00  4.9751242432108295e-05 -1.6988065438265114e-04 0.0000000000000000e+00  5.1475418781696167e-05 -1.8655465658018886e-04 0.0000000000000000e+00  5.3268029756518883e-05 -2.0384016919320822e-04 0.0000000000000000e+00  5.4792707146569708e-05 -2.2161830014840367e-04 0.0000000000000000e+00  5.6307903084641236e-05 -2.3995780309134563e-04 0.0000000000000000e+00  5.7606556823519073e-05 -2.5869298789658304e-04 0.0000000000000000e+00  5.8792507098925644e-05 -2.7792837067086888e-04 0.0000000000000000e+00  5.9981180144589357e-05 -2.9753800537986314e-04 0.0000000000000000e+00  6.0965196582088495e-05 -3.1752855564597723e-04 0.0000000000000000e+00  6.1869333052022850e-05 -3.3794238953553348e-04 0.0000000000000000e+00  6.2633840264426148e-05 -3.5862185234293272e-04 0.0000000000000000e+00  6.3313348091849326e-05 -3.7967598799308540e-04 0.0000000000000000e+00  6.3858786273798292e-05 -4.0095445189882063e-04 0.0000000000000000e+00  6.4318569714664432e-05 -4.2255142113860008e-04 0.0000000000000000e+00  6.4647138415377609e-05 -4.4432251528864853e-04 0.0000000000000000e+00  6.4893176036760896e-05 -4.6636442671791234e-04 0.0000000000000000e+00  6.5007873944551570e-05 -4.8853169385228992e-04 0.0000000000000000e+00  6.5029286960513149e-05 -5.1093901102927111e-04 0.0000000000000000e+00  6.4934721671193316e-05 -5.3343005635185449e-04 0.0000000000000000e+00  6.4748579697765984e-05 -5.5610758528348500e-04 0.0000000000000000e+00  6.4448342235396303e-05 -5.7883511173892474e-04 0.0000000000000000e+00  6.4053154331626449e-05 -6.0171257379828397e-04 0.0000000000000000e+00  6.3543843938861663e-05 -6.2461126263688724e-04 0.0000000000000000e+00  6.2932890921738998e-05 -6.4761060073055304e-04 0.0000000000000000e+00  6.2225376303622290e-05 -6.7062686059191231e-04 0.0000000000000000e+00  6.1405987818828755e-05 -6.9369988095379644e-04 0.0000000000000000e+00  6.0528607334624026e-05 -7.1678714930667247e-04 0.0000000000000000e+00  5.9527479775099567e-05 -7.3985411809276622e-04 0.0000000000000000e+00  5.8473659378337732e-05 -7.6299462384560540e-04 0.0000000000000000e+00  4.1428499708645614e-05 -7.8521967996640055e-04 0.0000000000000000e+00  1.0309723884890645e-05 -7.8285146205117747e-04 0.0000000000000000e+00  -3.7717270509462378e-06 -7.5855963614650235e-04 0.0000000000000000e+00  -2.6647513707700388e-06 -7.3521444591577272e-04 0.0000000000000000e+00  -1.6007175882076652e-06 -7.1184165931302242e-04 0.0000000000000000e+00  -6.3040606707386235e-07 -6.8853621996577651e-04 0.0000000000000000e+00  2.8561831956789306e-07 -6.6525987772493361e-04 0.0000000000000000e+00  1.1096185932971931e-06 -6.4203201020676518e-04 0.0000000000000000e+00  1.8935660894567408e-06 -6.1886108512952600e-04 0.0000000000000000e+00  2.5788332253362521e-06 -5.9573213936216826e-04 0.0000000000000000e+00  3.2317986645470079e-06 -5.7272377065854005e-04 0.0000000000000000e+00  3.7898064281446996e-06 -5.4976496071046442e-04 0.0000000000000000e+00  4.3316747283135464e-06 -5.2695731773664742e-04 0.0000000000000000e+00  4.7707065837126052e-06 -5.0423534130902381e-04 0.0000000000000000e+00  5.2090629249211818e-06 -4.8170714057194720e-04 0.0000000000000000e+00  5.5393957015402777e-06 -4.5930922501356299e-04 0.0000000000000000e+00  5.8875616772977803e-06 -4.3714466943898720e-04 0.0000000000000000e+00  6.1139942589771579e-06 -4.1515324431834521e-04 0.0000000000000000e+00  6.3786135389050767e-06 -3.9343412604659955e-04 0.0000000000000000e+00  6.5051277965450515e-06 -3.7193157476085104e-04 0.0000000000000000e+00  6.6853866555501597e-06 -3.5075669688143594e-04 0.0000000000000000e+00  6.7165710139587134e-06 -3.2985479108518291e-04 0.0000000000000000e+00  6.8271385033842978e-06 -3.0932986853198213e-04 0.0000000000000000e+00  6.7697040344624340e-06 -2.8913103201332914e-04 0.0000000000000000e+00  6.7892942694674578e-06 -2.6934938097242163e-04 0.0000000000000000e+00  6.6719693025378105e-06 -2.4993661381587467e-04 0.0000000000000000e+00  6.4942030712876899e-06 -2.3103861382967346e-04 0.0000000000000000e+00  6.4099969226136628e-06 -2.1253119277122825e-04 0.0000000000000000e+00  6.1897584008772325e-06 -1.9455363304927300e-04 0.0000000000000000e+00  5.9987043201824622e-06 -1.7712982123020227e-04 0.0000000000000000e+00  5.7107710060120978e-06 -1.6023926836042680e-04 0.0000000000000000e+00  5.4465485115665987e-06 -1.4398270518849041e-04 0.0000000000000000e+00  5.0862948411516173e-06 -1.2830264677060689e-04 0.0000000000000000e+00  4.8188093462773814e-06 -1.1340564579392009e-04 0.0000000000000000e+00  4.3706400364304140e-06 -9.9081719783272870e-05 0.0000000000000000e+00  3.8721184995973412e-06 -8.5644262466304762e-05 0.0000000000000000e+00  3.5408668754237313e-06 -7.2831150321553119e-05 0.0000000000000000e+00  3.0519966116763485e-06 -6.0928336858611999e-05 0.0000000000000000e+00  2.6228225368181052e-06 -4.9897441642966915e-05 0.0000000000000000e+00  2.0898061190145441e-06 -3.9731137422045846e-05 0.0000000000000000e+00  1.7126255839414497e-06 -3.0625661623977379e-05 0.0000000000000000e+00  1.1218680471117868e-06 -2.2340472268902726e-05 0.0000000000000000e+00  5.1558554137171019e-07 -1.5243705182168999e-05 0.0000000000000000e+00  1.8373685975944412e-07 -9.0114469062203441e-06 0.0000000000000000e+00  -2.9793005662516840e-07 -3.9198261417053523e-06 0.0000000000000000e+00  -4.7901099329111342e-07 4.9350247843570850e-08 0.0000000000000000e+00  -6.9271264516459616e-07 2.7095286945518947e-06 0.0000000000000000e+00  -3.6407926660809099e-07 3.9628073560720702e-06 0.0000000000000000e+00  8.3207369550937726e-07 -1.1524602157029274e-06 0.0000000000000000e+00  2.8067974862854318e-05 -7.4911519560796544e-04 0.0000000000000000e+00  3.0401263972366924e-05 -7.0474706967875022e-04 0.0000000000000000e+00  3.2663267467015389e-05 -6.3243705470118522e-04 0.0000000000000000e+00  4.8069908291775089e-06 -6.7223125919402502e-06 0.0000000000000000e+00  3.3483472884794363e-05 -5.8718132178595811e-04 0.0000000000000000e+00  8.2557204680650069e-06 -1.6345414406060530e-05 0.0000000000000000e+00  3.4358628269799940e-05 -5.4146905005022117e-04 0.0000000000000000e+00  1.3852128215100990e-05 -4.0297561263014130e-05 0.0000000000000000e+00  1.7345548915303654e-05 -6.0172608947013995e-05 0.0000000000000000e+00  3.4912263633332830e-05 -4.9622958482659204e-04 0.0000000000000000e+00  2.4462489077187271e-05 -1.2589679472787630e-04 0.0000000000000000e+00  3.5076550293293370e-05 -4.0782852514357917e-04 0.0000000000000000e+00  2.0166466220161855e-05 -8.2770749912088233e-05 0.0000000000000000e+00  2.7064239104002728e-05 -1.5648179633569152e-04 0.0000000000000000e+00  3.4694134331385218e-05 -3.6501566187421153e-04 0.0000000000000000e+00  3.5150241496763952e-05 -4.5162581847144924e-04 0.0000000000000000e+00  2.9152493362699894e-05 -1.9008591676212077e-04 0.0000000000000000e+00  3.4001153111188098e-05 -3.2339417463691595e-04 0.0000000000000000e+00  3.0549802639297157e-05 -2.2434135896446812e-04 0.0000000000000000e+00  3.3372697850220215e-05 -2.8403636730949786e-04 0.0000000000000000e+00  3.1964685312702549e-05 -2.5253590345495838e-04 0.0000000000000000e+00  2.2556431776068559e-05 -1.0268031740603440e-04 0.0000000000000000e+00  3.1003298770787632e-05 -6.6994508040879293e-04 0.0000000000000000e+00  1.1084696652568274e-05 -2.6854042662586728e-05 0.0000000000000000e+00  1.8388324773293004e-05 -7.2594091537804843e-04 0.0000000000000000e+00  1.5196115022791812e-06 -1.3376547927134864e-06 0.0000000000000000e+00  2.5081587900526908e-05 -5.6338012926928846e-04 0.0000000000000000e+00  2.3977406801733186e-05 -6.0932506997784532e-04 0.0000000000000000e+00  8.9990629783391199e-06 -1.3340958566540682e-05 0.0000000000000000e+00  1.9575904336693409e-05 -5.1303612133147915e-05 0.0000000000000000e+00  2.6651611189522979e-05 -4.2857749690676473e-04 0.0000000000000000e+00  2.5891380913022516e-05 -5.1783587049319046e-04 0.0000000000000000e+00  3.1938785886699682e-05 -1.4207475286920514e-04 0.0000000000000000e+00  2.6619007935298110e-05 -3.8520132998745663e-04 0.0000000000000000e+00  2.3515980332739934e-05 -7.3234997616143473e-05 0.0000000000000000e+00  3.4648603302586156e-05 -1.7443588027188852e-04 0.0000000000000000e+00  2.6312883610257372e-05 -3.4291183473620393e-04 0.0000000000000000e+00  2.6411050438918313e-05 -4.7284430596755982e-04 0.0000000000000000e+00  3.8522814344124036e-05 -2.0921759029244466e-04 0.0000000000000000e+00  2.5735842121320824e-05 -3.0191921641140382e-04 0.0000000000000000e+00  4.0229397820341880e-08 -1.4521916441857622e-06 0.0000000000000000e+00  -4.4356711006047719e-07 9.2486571461475498e-07 0.0000000000000000e+00  3.4255281396133916e-05 -7.6790767905345883e-04 0.0000000000000000e+00  4.4011692646503000e-06 -5.7694149650264047e-06 0.0000000000000000e+00