<?xml version="1.0"?>
<VTKFile type="UnstructuredGrid"  version="0.1"  >
<UnstructuredGrid>
<Piece  NumberOfPoints="1419" NumberOfCells="2698">
<Points>
<DataArray  type="Float64"  NumberOfComponents="3"  format="ascii">0 0 0  0 0.41 0  2.5 0 0  2.5 0.41 0  0.6 0.19 0  0.6 0.21 0  0.25 0.2 0  0.15 0.2 0  0.2489897948556636 0.21 0  0.2489897948556636 0.19 0  0.6 0.2 0  0 0.3807142857143437 0  0 0.3514285714286952 0  0 0.3221428571430699 0  0 0.29285714285744 0  0 0.2635714285718054 0  0 0.2342857142861561 0  0 0.2050000000005308 0  0 0.175714285714732 0  0 0.1464285714289574 0  0 0.1171428571431897 0  0 0.08785714285737878 0  0 0.05857142857161107 0  0 0.02928571428580012 0  0.03015443760436003 0 0  0.06140001986583606 0 0  0.09377624077125973 0 0  0.1273239957535082 0 0  0.1620856860351972 0 0  0.1981052433264291 0 0  0.235428184091502 0 0  0.2741016576309132 0 0  0.3141745521465447 0 0  0.3556974926295285 0 0  0.3987229542472677 0 0  0.4433053055141081 0 0  0.4895008759286886 0 0  0.5373680609405097 0 0  0.5869673343216626 0 0  0.6383613676634521 0 0  0.6916151138468254 0 0  0.7467958595648856 0 0  0.8039733463919316 0 0  0.8632198139502143 0 0  0.9246101326867038 0 0  0.9882218810934433 0 0  1.054135445558498 0 0  1.122434100542598 0 0  1.193204177141305 0 0  1.266535089879536 0 0  1.342519516046404 0 0  1.421253448503939 0 0  1.502836389106271 0 0  1.587371439758838 0 0  1.674965418777374 0 0  1.765729001825544 0 0  1.859776908880082 0 0  1.957227977487062 0 0  2.058205329869943 0 0  2.162836591189951 0 0  2.271253957290865 0 0  2.383594446803425 0 0  2.5 0.1024999999997612 0  2.5 0.2049999999994743 0  2.5 0.3074999999997183 0  2.383594446803656 0.41 0  2.271253957291315 0.41 0  2.162836591190598 0.41 0  2.058205329870775 0.41 0  1.957227977488067 0.41 0  1.859776908881246 0.41 0  1.765729001826854 0.41 0  1.674965418778818 0.41 0  1.58737143976041 0.41 0  1.502836389107956 0.41 0  1.421253448505726 0.41 0  1.342519516048286 0.41 0  1.266535089881505 0.41 0  1.193204177143353 0.41 0  1.122434100544716 0.41 0  1.05413544556068 0.41 0  0.9882218810956305 0.41 0  0.9246101326886647 0.41 0  0.8632198139519631 0.41 0  0.8039733463934788 0.41 0  0.7467958595662458 0.41 0  0.6916151138480078 0.41 0  0.6383613676644679 0.41 0  0.5869673343225223 0.41 0  0.5373680609412221 0.41 0  0.4895008759292634 0.41 0  0.4433053055145528 0.41 0  0.3987229542475914 0.41 0  0.3556974926297398 0.41 0  0.3141745521466497 0.41 0  0.2741016576310038 0.41 0  0.2354281840915826 0.41 0  0.1981052433265003 0.41 0  0.1620856860352591 0.41 0  0.1273239957535623 0.41 0  0.09377624077128965 0.41 0  0.06140001986584975 0.41 0  0.03015443760436654 0.41 0  0.2497468076502589 0.2050254481002335 0  0.2497468076502614 0.1949745518997913 0  0.2469965252529372 0.1829317073451959 0  0.2439893735792749 0.1762316384219906 0  0.2400332147834255 0.1700443375285386 0  0.2352133972704371 0.1645032867342007 0  0.2296339016332438 0.1597280261969788 0  0.2234150974217223 0.1558215752574715 0  0.2166911463437691 0.1528682099456123 0  0.2096071079204251 0.1509316448471593 0  0.2023158100364996 0.1500536585536553 0  0.194974551899914 0.1502531923497262 0  0.1877417105387872 0.1515259415822739 0  0.1807733240461124 0.153844448527136 0  0.1742197252835808 0.15715869474974 0  0.1682222986673531 0.1613971801805478 0  0.162910430003803 0.1664684656256651 0  0.1583987151779087 0.1722631454351573 0  0.1547844879126891 0.178656207771761 0  0.1521457199348551 0.1855097315605723 0  0.1505393388476355 0.1926758619366523 0  0.1505393388476328 0.2073241380633295 0  0.1521457199348437 0.2144902684393899 0  0.1547844879126531 0.221343792228163 0  0.1583987151778488 0.2277368545647528 0  0.1629104300036858 0.2335315343742052 0  0.1682222986671726 0.2386028198193036 0  0.1742197252833576 0.2428413052501257 0  0.1807733240458683 0.2461555514727623 0  0.1877417105384929 0.2484740584176516 0  0.1949745518995776 0.2497468076502398 0  0.202315810036185 0.2499463414463592 0  0.2096071079201568 0.2490683551528932 0  0.2166911463435495 0.2471317900544655 0  0.2234150974215506 0.2441784247426195 0  0.2296339016331197 0.2402719738031125 0  0.2352133972703547 0.2354967132658811 0  0.2400332147833751 0.2299556624715287 0  0.2439893735792577 0.2237683615780412 0  0.246996525252926 0.2170682926548348 0  0.25645809709277 0.21 0  0.2639263993298655 0.21 0  0.271394701566961 0.21 0  0.2788630038040554 0.21 0  0.2863313060411479 0.21 0  0.2937996082782405 0.21 0  0.301267910515333 0.21 0  0.3087362127524279 0.21 0  0.3162045149895234 0.21 0  0.3236728172265972 0.21 0  0.3311411194636928 0.21 0  0.3386094217007701 0.21 0  0.3460777239378666 0.21 0  0.3535460261749672 0.21 0  0.3610143284120516 0.21 0  0.3684826306491596 0.21 0  0.3759509328862226 0.21 0  0.383419235123329 0.21 0  0.3908875373604028 0.21 0  0.3983558395975142 0.21 0  0.4058241418345938 0.21 0  0.4132924440716992 0.21 0  0.4207607463087888 0.21 0  0.4282290485459029 0.21 0  0.4356973507830418 0.21 0  0.4431656530201649 0.21 0  0.4506339552573136 0.21 0  0.4581022574944306 0.21 0  0.4655705597315852 0.21 0  0.4730388619686996 0.21 0  0.480507164205851 0.21 0  0.4879754664429498 0.21 0  0.4954437686800938 0.21 0  0.502912070917267 0.21 0  0.5103803731544119 0.21 0  0.5178486753915261 0.21 0  0.5253169776286404 0.21 0  0.5327852798657868 0.21 0  0.5402535821029386 0.21 0  0.54772188434007 0.21 0  0.5551901865771842 0.21 0  0.5626584888143201 0.21 0  0.5701267910514778 0.21 0  0.5775950932886138 0.21 0  0.5850633955257281 0.21 0  0.5925316977628483 0.21 0  0.6 0.2050000000000054 0  0.6 0.1950000000000217 0  0.5925316977628897 0.19 0  0.5850633955257988 0.19 0  0.5775950932887378 0.19 0  0.5701267910515998 0.19 0  0.5626584888145268 0.19 0  0.5551901865773963 0.19 0  0.547721884340339 0.19 0  0.5402535821032429 0.19 0  0.5327852798661811 0.19 0  0.5253169776290537 0.19 0  0.5178486753919799 0.19 0  0.5103803731549078 0.19 0  0.502912070917822 0.19 0  0.4954437686807294 0.19 0  0.4879754664436223 0.19 0  0.4805071642065402 0.19 0  0.4730388619694271 0.19 0  0.4655705597323621 0.19 0  0.4581022574952563 0.19 0  0.4506339552581777 0.19 0  0.4431656530210671 0.19 0  0.4356973507839815 0.19 0  0.4282290485468779 0.19 0  0.4207607463097617 0.19 0  0.4132924440726327 0.19 0  0.4058241418354857 0.19 0  0.3983558395983636 0.19 0  0.3908875373612097 0.19 0  0.3834192351240934 0.19 0  0.3759509328869369 0.19 0  0.3684826306498175 0.19 0  0.361014328412667 0.19 0  0.3535460261755617 0.19 0  0.3460777239384295 0.19 0  0.3386094217012945 0.19 0  0.3311411194641595 0.19 0  0.3236728172270245 0.19 0  0.3162045149898895 0.19 0  0.3087362127527544 0.19 0  0.3012679105156187 0.19 0  0.2937996082784807 0.19 0  0.2863313060413428 0.19 0  0.2788630038042048 0.19 0  0.2713947015670686 0.19 0  0.2639263993299336 0.19 0  0.2564580970927985 0.19 0  0.2607803159922026 0.2000727136295815 0  0.5887803774232762 0.2001272386983733 0  0.5745072403740523 0.2002044435018727 0  0.5511891430099709 0.2001122610077113 0  0.2751288526855082 0.20000000000002 0  0.5365194309847112 0.1999999999999436 0  0.2894621222999649 0.1998691686390484 0  0.5215828265105155 0.1999999999999228 0  0.3127789816668748 0.1998657885438805 0  0.3274069683451451 0.2000000000000796 0  0.5066462220363641 0.199999999999908 0  0.3650630746574081 0.199866017807523 0  0.476773013087985 0.1999999999998713 0  0.3417402379596385 0.1998691686391011 0  0.3796850840047755 0.200000000000134 0  0.4618364086138087 0.1999999999998546 0  0.4917096175621762 0.1999999999998808 0  0.3946216884789568 0.2000000000001512 0  0.446899804139621 0.1999999999998389 0  0.4089549580935208 0.1998691686391595 0  0.4322718174608562 0.200127451265745 0  0.4201487168029707 0.1999966199048527 0  0.3528922713220932 0.2000185703532356 0  0.5633122436674589 0.1999814296467508 0  0.3006558810093873 0.1999966199048318 0  0.5815926498168407 0.1966545283159175 0  0.2677053789419034 0.1964246479135325 0  0.5290511287476175 0.1970915826863981 0  0.5439877332217911 0.197091582686394 0  0.2825131256993216 0.2035478995978015 0  0.3199386661080599 0.202908417313604 0  0.4842413153250809 0.1970915826863873 0  0.5141145242734466 0.1970915826863843 0  0.3722167817676917 0.2029084173136195 0  0.4693047108508938 0.1970915826863783 0  0.3348752705822316 0.202908417313609 0  0.3871533862418661 0.2029084173136212 0  0.4543681063767183 0.1970915826863795 0  0.4991779197992749 0.1970915826863902 0  0.4020059614928624 0.203547899597858 0  0.4394315019025246 0.1970915826863714 0  0.2550657455369551 0.2034088125358657 0  0.2548908499171161 0.1966940311614271 0  0.5946539510196798 0.2024302972968126 0  0.267698176732111 0.2039977513680092 0  0.4261685417851465 0.196409292431739 0  0.3590076176283495 0.196411355804271 0  0.5571672426447437 0.2036011176410121 0  0.3066757059912147 0.1964092924317024 0  0.594380730180568 0.1966558399668133 0  0.4842413153245942 0.2040749161535287 0  0.4693047108503577 0.2040749161535231 0  0.3871533862424271 0.1959250838464788 0  0.372246743208829 0.1959123236376545 0  0.5141145242731028 0.2040749161535395 0  0.4543681063761134 0.2040749161535186 0  0.4019979587101454 0.1959834479682427 0  0.4394608940728603 0.2040870543693135 0  0.5439623148931173 0.2040856076781014 0  0.5290511287473298 0.2040749161535501 0  0.4991779197988497 0.2040749161535382 0  0.3347912413592433 0.1959225448935183 0  0.3199680582793816 0.1959123018030061 0  0.2825051229162361 0.1959834479681729 0  0.3590471196690275 0.2036304442587945 0  0.5571594006495384 0.1963685282145804 0  0.3067669986803285 0.203627750582736 0  0.4262598344738712 0.2036568242185335 0  0.5814408164431408 0.2041285596160068 0  0.5688286748170428 0.1961819304477386 0  0.4145905603063645 0.2038180695522843 0  0.3473758401724931 0.2038180695522752 0  0.2950977245128307 0.2038180695522663 0  0.5688286748170693 0.203818069552238 0  0.2950977245127906 0.1961819304477774 0  0.3473758401723931 0.1961819304478349 0  0.4145905603061963 0.1961819304479011 0  0.2601812407614425 0.2056861609747042
[...]
<PointData  Vectors="f_40-0"> 
<DataArray  type="Float64"  Name="f_40-0"  NumberOfComponents="3" format="ascii">0.0000000000000000e+00 0.0000000000000000e+00 0.0000000000000000e+00  0.0000000000000000e+00 0.0000000000000000e+00 0.0000000000000000e+00  0.0000000000000000e+00 0.0000000000000000e+00 0.0000000000000000e+00  0.0000000000000000e+00 0.0000000000000000e+00 0.0000000000000000e+00  -1.7200624655224422e-05 -2.1474678414349995e-04 0.0000000000000000e+00  -2.0025665825005963e-07 -2.2081560105743987e-04 0.0000000000000000e+00  0.0000000000000000e+00 0.0000000000000000e+00 0.0000000000000000e+00  0.0000000000000000e+00 0.0000000000000000e+00 0.0000000000000000e+00  0.0000000000000000e+00 0.0000000000000000e+00 0.0000000000000000e+00  0.0000000000000000e+00 0.0000000000000000e+00 0.0000000000000000e+00  -9.2478531791779274e-06 -2.1778622163573776e-04 0.0000000000000000e+00  3.2531980657513976e-02 0.0000000000000000e+00 0.0000000000000000e+00  6.0059041213875945e-02 0.0000000000000000e+00 0.0000000000000000e+00  8.2581181669079448e-02 0.0000000000000000e+00 0.0000000000000000e+00  1.0009840202315053e-01 0.0000000000000000e+00 0.0000000000000000e+00  1.1261070227608697e-01 0.0000000000000000e+00 0.0000000000000000e+00  1.2011808242788796e-01 0.0000000000000000e+00 0.0000000000000000e+00  1.2262054247854605e-01 0.0000000000000000e+00 0.0000000000000000e+00  1.2011808242803974e-01 0.0000000000000000e+00 0.0000000000000000e+00  1.1261070227634766e-01 0.0000000000000000e+00 0.0000000000000000e+00  1.0009840202347341e-01 0.0000000000000000e+00 0.0000000000000000e+00  8.2581181669386175e-02 0.0000000000000000e+00 0.0000000000000000e+00  6.0059041214137687e-02 0.0000000000000000e+00 0.0000000000000000e+00  3.2531980657661462e-02 0.0000000000000000e+00 0.0000000000000000e+00  0.0000000000000000e+00 0.0000000000000000e+00 0.0000000000000000e+00  0.0000000000000000e+00 0.0000000000000000e+00 0.0000000000000000e+00  0.0000000000000000e+00 0.0000000000000000e+00 0.0000000000000000e+00  0.0000000000000000e+00 0.0000000000000000e+00 0.0000000000000000e+00  0.0000000000000000e+00 0.0000000000000000e+00 0.0000000000000000e+00  0.0000000000000000e+00 0.0000000000000000e+00 0.0000000000000000e+00  0.0000000000000000e+00 0.0000000000000000e+00 0.0000000000000000e+00  0.0000000000000000e+00 0.0000000000000000e+00 0.0000000000000000e+00  0.0000000000000000e+00 0.0000000000000000e+00 0.0000000000000000e+00  0.0000000000000000e+00 0.0000000000000000e+00 0.0000000000000000e+00  0.0000000000000000e+00 0.0000000000000000e+00 0.0000000000000000e+00  0.0000000000000000e+00 0.0000000000000000e+00 0.0000000000000000e+00  0.0000000000000000e+00 0.0000000000000000e+00 0.0000000000000000e+00  0.0000000000000000e+00 0.0000000000000000e+00 0.0000000000000000e+00  0.0000000000000000e+00 0.0000000000000000e+00 0.0000000000000000e+00  0.0000000000000000e+00 0.0000000000000000e+00 0.0000000000000000e+00  0.0000000000000000e+00 0.0000000000000000e+00 0.0000000000000000e+00  0.0000000000000000e+00 0.0000000000000000e+00 0.0000000000000000e+00  0.0000000000000000e+00 0.0000000000000000e+00 0.0000000000000000e+00  0.0000000000000000e+00 0.0000000000000000e+00 0.0000000000000000e+00  0.0000000000000000e+00 0.0000000000000000e+00 0.0000000000000000e+00  0.0000000000000000e+00 0.0000000000000000e+00 0.0000000000000000e+00  0.0000000000000000e+00 0.0000000000000000e+00 0.0000000000000000e+00  0.0000000000000000e+00 0.0000000000000000e+00 0.0000000000000000e+00  0.0000000000000000e+00 0.0000000000000000e+00 0.0000000000000000e+00  0.0000000000000000e+00 0.0000000000000000e+00 0.0000000000000000e+00  0.0000000000000000e+00 0.0000000000000000e+00 0.0000000000000000e+00  0.0000000000000000e+00 0.0000000000000000e+00 0.0000000000000000e+00  0.0000000000000000e+00 0.0000000000000000e+00 0.0000000000000000e+00  0.0000000000000000e+00 0.0000000000000000e+00 0.0000000000000000e+00  0.0000000000000000e+00 0.0000000000000000e+00 0.0000000000000000e+00  0.0000000000000000e+00 0.0000000000000000e+00 0.0000000000000000e+00  0.0000000000000000e+00 0.0000000000000000e+00 0.0000000000000000e+00  0.0000000000000000e+00 0.0000000000000000e+00 0.0000000000000000e+00  0.0000000000000000e+00 0.0000000000000000e+00 0.0000000000000000e+00  0.0000000000000000e+00 0.0000000000000000e+00 0.0000000000000000e+00  0.0000000000000000e+00 0.0000000000000000e+00 0.0000000000000000e+00  0.0000000000000000e+00 0.0000000000000000e+00 0.0000000000000000e+00  1.1694707612278764e-01 5.0487237573040109e-03 0.0000000000000000e+00  8.2829721848965435e-02 -1.0246104806330637e-03 0.0000000000000000e+00  1.1806411665654626e-01 -5.4354940441069316e-03 0.0000000000000000e+00  0.0000000000000000e+00 0.0000000000000000e+00 0.0000000000000000e+00  0.0000000000000000e+00 0.0000000000000000e+00 0.0000000000000000e+00  0.0000000000000000e+00 0.0000000000000000e+00 0.0000000000000000e+00  0.0000000000000000e+00 0.0000000000000000e+00 0.0000000000000000e+00  0.0000000000000000e+00 0.0000000000000000e+00 0.0000000000000000e+00  0.0000000000000000e+00 0.0000000000000000e+00 0.0000000000000000e+00  0.0000000000000000e+00 0.0000000000000000e+00 0.0000000000000000e+00  0.0000000000000000e+00 0.0000000000000000e+00 0.0000000000000000e+00  0.0000000000000000e+00 0.0000000000000000e+00 0.0000000000000000e+00  0.0000000000000000e+00 0.0000000000000000e+00 0.0000000000000000e+00  0.0000000000000000e+00 0.0000000000000000e+00 0.0000000000000000e+00  0.0000000000000000e+00 0.0000000000000000e+00 0.0000000000000000e+00  0.0000000000000000e+00 0.0000000000000000e+00 0.0000000000000000e+00  0.0000000000000000e+00 0.0000000000000000e+00 0.0000000000000000e+00  0.0000000000000000e+00 0.0000000000000000e+00 0.0000000000000000e+00  0.0000000000000000e+00 0.0000000000000000e+00 0.0000000000000000e+00  0.0000000000000000e+00 0.0000000000000000e+00 0.0000000000000000e+00  0.0000000000000000e+00 0.0000000000000000e+00 0.0000000000000000e+00  0.0000000000000000e+00 0.0000000000000000e+00 0.0000000000000000e+00  0.0000000000000000e+00 0.0000000000000000e+00 0.0000000000000000e+00  0.0000000000000000e+00 0.0000000000000000e+00 0.0000000000000000e+00  0.0000000000000000e+00 0.0000000000000000e+00 0.0000000000000000e+00  0.0000000000000000e+00 0.0000000000000000e+00 0.0000000000000000e+00  0.0000000000000000e+00 0.0000000000000000e+00 0.0000000000000000e+00  0.0000000000000000e+00 0.0000000000000000e+00 0.0000000000000000e+00  0.0000000000000000e+00 0.0000000000000000e+00 0.0000000000000000e+00  0.0000000000000000e+00 0.0000000000000000e+00 0.0000000000000000e+00  0.0000000000000000e+00 0.0000000000000000e+00 0.0000000000000000e+00  0.0000000000000000e+00 0.0000000000000000e+00 0.0000000000000000e+00  0.0000000000000000e+00 0.0000000000000000e+00 0.0000000000000000e+00  0.0000000000000000e+00 0.0000000000000000e+00 0.0000000000000000e+00  0.0000000000000000e+00 0.0000000000000000e+00 0.0000000000000000e+00  0.0000000000000000e+00 0.0000000000000000e+00 0.0000000000000000e+00  0.0000000000000000e+00 0.0000000000000000e+00 0.0000000000000000e+00  0.0000000000000000e+00 0.0000000000000000e+00 0.0000000000000000e+00  0.0000000000000000e+00 0.0000000000000000e+00 0.0000000000000000e+00  0.0000000000000000e+00 0.0000000000000000e+00 0.0000000000000000e+00  0.0000000000000000e+00 0.0000000000000000e+00 0.0000000000000000e+00  0.0000000000000000e+00 0.0000000000000000e+00 0.0000000000000000e+00  0.0000000000000000e+00 0.0000000000000000e+00 0.0000000000000000e+00  0.0000000000000000e+00 0.0000000000000000e+00 0.0000000000000000e+00  0.0000000000000000e+00 0.0000000000000000e+00 0.0000000000000000e+00  0.0000000000000000e+00 0.0000000000000000e+00 0.0000000000000000e+00  0.0000000000000000e+00 0.0000000000000000e+00 0.0000000000000000e+00  0.0000000000000000e+00 0.0000000000000000e+00 0.0000000000000000e+00  0.0000000000000000e+00 0.0000000000000000e+00 0.0000000000000000e+00  0.0000000000000000e+00 0.0000000000000000e+00 0.0000000000000000e+00  0.0000000000000000e+00 0.0000000000000000e+00 0.0000000000000000e+00  0.0000000000000000e+00 0.0000000000000000e+00 0.0000000000000000e+00  0.0000000000000000e+00 0.0000000000000000e+00 0.0000000000000000e+00  0.0000000000000000e+00 0.0000000000000000e+00 0.0000000000000000e+00  0.0000000000000000e+00 0.0000000000000000e+00 0.0000000000000000e+00  0.0000000000000000e+00 0.0000000000000000e+00 0.0000000000000000e+00  0.0000000000000000e+00 0.0000000000000000e+00 0.0000000000000000e+00  0.0000000000000000e+00 0.0000000000000000e+00 0.0000000000000000e+00  0.0000000000000000e+00 0.0000000000000000e+00 0.0000000000000000e+00  0.0000000000000000e+00 0.0000000000000000e+00 0.0000000000000000e+00  0.0000000000000000e+00 0.0000000000000000e+00 0.0000000000000000e+00  0.0000000000000000e+00 0.0000000000000000e+00 0.0000000000000000e+00  0.0000000000000000e+00 0.0000000000000000e+00 0.0000000000000000e+00  0.0000000000000000e+00 0.0000000000000000e+00 0.0000000000000000e+00  0.0000000000000000e+00 0.0000000000000000e+00 0.0000000000000000e+00  0.0000000000000000e+00 0.0000000000000000e+00 0.0000000000000000e+00  0.0000000000000000e+00 0.0000000000000000e+00 0.0000000000000000e+00  0.0000000000000000e+00 0.0000000000000000e+00 0.0000000000000000e+00  0.0000000000000000e+00 0.0000000000000000e+00 0.0000000000000000e+00  0.0000000000000000e+00 0.0000000000000000e+00 0.0000000000000000e+00  0.0000000000000000e+00 0.0000000000000000e+00 0.0000000000000000e+00  0.0000000000000000e+00 0.0000000000000000e+00 0.0000000000000000e+00  0.0000000000000000e+00 0.0000000000000000e+00 0.0000000000000000e+00  0.0000000000000000e+00 0.0000000000000000e+00 0.0000000000000000e+00  0.0000000000000000e+00 0.0000000000000000e+00 0.0000000000000000e+00  0.0000000000000000e+00 0.0000000000000000e+00 0.0000000000000000e+00  0.0000000000000000e+00 0.0000000000000000e+00 0.0000000000000000e+00  0.0000000000000000e+00 0.0000000000000000e+00 0.0000000000000000e+00  0.0000000000000000e+00 0.0000000000000000e+00 0.0000000000000000e+00  0.0000000000000000e+00 0.0000000000000000e+00 0.0000000000000000e+00  0.0000000000000000e+00 0.0000000000000000e+00 0.0000000000000000e+00  7.8583913146419801e-07 -5.7836077324132738e-06 0.0000000000000000e+00  1.8166179100211471e-06 -6.7121024065929486e-06 0.0000000000000000e+00  3.0752472794663275e-06 -7.6634555423076477e-06 0.0000000000000000e+00  4.4917629462581714e-06 -8.8003192737639587e-06 0.0000000000000000e+00  5.8488681931209361e-06 -1.0230756556531387e-05 0.0000000000000000e+00  7.2040101850773637e-06 -1.2046258750414467e-05 0.0000000000000000e+00  8.4274942123417650e-06 -1.4101372672580935e-05 0.0000000000000000e+00  9.5737762482857897e-06 -1.6485029487305327e-05 0.0000000000000000e+00  1.0732987153012887e-05 -1.9122197411630965e-05 0.0000000000000000e+00  1.1724376809632267e-05 -2.2000500111916424e-05 0.0000000000000000e+00  1.2731397852700372e-05 -2.5163482636895221e-05 0.0000000000000000e+00  1.3578777374245744e-05 -2.8527994776101245e-05 0.0000000000000000e+00  1.4411788341102108e-05 -3.2135014681466563e-05 0.0000000000000000e+00  1.5125567722092692e-05 -3.5928224721196613e-05 0.0000000000000000e+00  1.5758966412234127e-05 -3.9934553076156550e-05 0.0000000000000000e+00  1.6381140950323310e-05 -4.4127117185210326e-05 0.0000000000000000e+00  1.6861355336098317e-05 -4.8460229662373253e-05 0.0000000000000000e+00  1.7323954805655926e-05 -5.3003074885815824e-05 0.0000000000000000e+00  1.7657427343472028e-05 -5.7650186186610792e-05 0.0000000000000000e+00  1.7968446679345629e-05 -6.2480152363817850e-05 0.0000000000000000e+00  1.8168207801883119e-05 -6.7402809619431490e-05 0.0000000000000000e+00  1.8316163800954590e-05 -7.2479416117591741e-05 0.0000000000000000e+00  1.8380536445485696e-05 -7.7654269813379117e-05 0.0000000000000000e+00  1.8368313500503404e-05 -8.2940204544810087e-05 0.0000000000000000e+00  1.8324114642917439e-05 -8.8333544023629838e-05 0.0000000000000000e+00  1.8181810607218021e-05 -9.3791553869521845e-05 0.0000000000000000e+00  1.7973223099178944e-05 -9.9384246916583245e-05 0.0000000000000000e+00  1.7692197757045124e-05 -1.0500817159120822e-04 0.0000000000000000e+00  1.7344988229776438e-05 -1.1074785249807628e-04 0.0000000000000000e+00  1.6926010606308709e-05 -1.1651654247097335e-04 0.0000000000000000e+00  1.6443984605165024e-05 -1.2238282444630385e-04 0.0000000000000000e+00  1.5886755611026927e-05 -1.2826568180925512e-04 0.0000000000000000e+00  1.5271263259931002e-05 -1.3423878786942954e-04 0.0000000000000000e+00  1.4578955520962726e-05 -1.4021120211135104e-04 0.0000000000000000e+00  1.3818946451310186e-05 -1.4627225806196961e-04 0.0000000000000000e+00  1.2991618325555103e-05 -1.5232596027216341e-04 0.0000000000000000e+00  1.2100872984795390e-05 -1.5845032146714837e-04 0.0000000000000000e+00  1.1140756291407348e-05 -1.6456313923300561e-04 0.0000000000000000e+00  1.0113890007274554e-05 -1.7073786493738752e-04 0.0000000000000000e+00  9.0141256648995208e-06 -1.7689642562278971e-04 0.0000000000000000e+00  7.8424188347885767e-06 -1.8309559224113161e-04 0.0000000000000000e+00  6.6120709458598805e-06 -1.8929163503482319e-04 0.0000000000000000e+00  5.3042354108670342e-06 -1.9550981608269026e-04 0.0000000000000000e+00  3.9577047571089738e-06 -2.0172843133625030e-04 0.0000000000000000e+00  2.5327300464221789e-06 -2.0793061552627646e-04 0.0000000000000000e+00  1.0993941515690482e-06 -2.1420964169595178e-04 0.0000000000000000e+00  -4.9120281395322249e-06 -2.1928447438811726e-04 0.0000000000000000e+00  -1.3380994827988204e-05 -2.1628899055084724e-04 0.0000000000000000e+00  -1.5861113695216720e-05 -2.0868933337587066e-04 0.0000000000000000e+00  -1.4397057027103019e-05 -2.0229741024616491e-04 0.0000000000000000e+00  -1.2941715169387290e-05 -1.9587019689696204e-04 0.0000000000000000e+00  -1.1559121069336457e-05 -1.8947979931530288e-04 0.0000000000000000e+00  -1.0217359195074182e-05 -1.8310149380974464e-04 0.0000000000000000e+00  -8.9532095600333977e-06 -1.7673922096411441e-04 0.0000000000000000e+00  -7.7334250690211908e-06 -1.7039813131193023e-04 0.0000000000000000e+00  -6.5886543406517030e-06 -1.6405707514832301e-04 0.0000000000000000e+00  -5.4939281308048441e-06 -1.5776881619996362e-04 0.0000000000000000e+00  -4.4670508934738493e-06 -1.5146928847592161e-04 0.0000000000000000e+00  -3.4878423983831606e-06 -1.4523214622270251e-04 0.0000000000000000e+00  -2.5771041571703824e-06 -1.3899246142973879e-04 0.0000000000000000e+00  -1.7097068815056181e-06 -1.3282351082869346e-04 0.0000000000000000e+00  -9.1115095975277410e-07 -1.2666135422634544e-04 0.0000000000000000e+00  -1.5170428512954074e-07 -1.2057986346407570e-04 0.0000000000000000e+00  5.3624835857573425e-07 -1.1451491732410446e-04 0.0000000000000000e+00  1.1898701164280143e-06 -1.0853775637770024e-04 0.0000000000000000e+00  1.7679316018050618e-06 -1.0258703929223919e-04 0.0000000000000000e+00  2.3160077789456297e-06 -9.6738883036047530e-05 0.0000000000000000e+00  2.7872226940195632e-06 -9.0931287649162004e-05 0.0000000000000000e+00  3.2351209295153354e-06 -8.5237485445035539e-05 0.0000000000000000e+00  3.6014288425753545e-06 -7.9598681996813074e-05 0.0000000000000000e+00  3.9389225226413351e-06 -7.4074005474787774e-05 0.0000000000000000e+00  4.2115040220537144e-06 -6.8635327930044755e-05 0.0000000000000000e+00  4.4201741933771502e-06 -6.3319983113150534e-05 0.0000000000000000e+00  4.6248503859830456e-06 -5.8108045000364973e-05 0.0000000000000000e+00  4.7480823925162750e-06 -5.3009478896887566e-05 0.0000000000000000e+00  4.8396411636960202e-06 -4.8075905477448598e-05 0.0000000000000000e+00  4.8669299407006383e-06 -4.3245677419061699e-05 0.0000000000000000e+00  4.8611293060629974e-06 -3.8604627549427495e-05 0.0000000000000000e+00  4.7922567759603307e-06 -3.4081574859262963e-05 0.0000000000000000e+00  4.7045897414858672e-06 -2.9781094282463501e-05 0.0000000000000000e+00  4.5443330886039739e-06 -2.5618525838559549e-05 0.0000000000000000e+00  4.3279466668680514e-06 -2.1695832666044918e-05 0.0000000000000000e+00  4.1310137859815742e-06 -1.7937151646684171e-05 0.0000000000000000e+00  3.8493340243837096e-06 -1.4415886332645458e-05 0.0000000000000000e+00  3.5478002295798424e-06 -1.1149617339650663e-05 0.0000000000000000e+00  3.1799597550406778e-06 -8.1003716054623968e-06 0.0000000000000000e+00  2.8147201825704086e-06 -5.3561720999586983e-06 0.0000000000000000e+00  2.3604016332350510e-06 -2.8372773075241752e-06 0.0000000000000000e+00  1.8524663170245353e-06 -6.5394632835897005e-07 0.0000000000000000e+00  1.3951204344730429e-06 1.2773788464789715e-06 0.0000000000000000e+00  8.3750159450525641e-07 2.9166010927005652e-06 0.0000000000000000e+00  3.7822595404640963e-07 4.2015007215432665e-06 0.0000000000000000e+00  -2.8368531015587494e-08 4.9714082710613205e-06 0.0000000000000000e+00  -9.5484674497230144e-08 5.0653039236668567e-06 0.0000000000000000e+00  -3.8823395342609820e-07 -3.9735898609216283e-07 0.0000000000000000e+00  -6.7342973320895815e-06 -2.0829205038351027e-04 0.0000000000000000e+00  -3.8054269825074785e-06 -1.9624113296596668e-04 0.0000000000000000e+00  1.3098872659588526e-07 -1.7658079639134040e-04 0.0000000000000000e+00  2.1310708160476370e-06 -2.0795539498610099e-06 0.0000000000000000e+00  2.2318240505028481e-06 -1.6426326655608726e-04 0.0000000000000000e+00  3.9468357316488740e-06 -4.9385804988628934e-06 0.0000000000000000e+00  4.2249677272913511e-06 -1.5184558172632830e-04 0.0000000000000000e+00  6.5144744037724437e-06 -1.2092802255358027e-05 0.0000000000000000e+00  7.9098304060901061e-06 -1.7996443556306205e-05 0.0000000000000000e+00  5.9684495753715530e-06 -1.3954579350787028e-04 0.0000000000000000e+00  1.0302255163485214e-05 -3.6951206062886026e-05 0.0000000000000000e+00  8.7151804304692109e-06 -1.1544182213915363e-04 0.0000000000000000e+00  8.9677221575218455e-06 -2.4532531298091532e-05 0.0000000000000000e+00  1.0922060699253734e-05 -4.5706742080792749e-05 0.0000000000000000e+00  9.7219847886848750e-06 -1.0371641559550202e-04 0.0000000000000000e+00  7.4647789422861677e-06 -1.2739797770311989e-04 0.0000000000000000e+00  1.1249181762648478e-05 -5.5194958237609853e-05 0.0000000000000000e+00  1.0484981209291226e-05 -9.2272501241472943e-05 0.0000000000000000e+00  1.1252806968995175e-05 -6.4753210605148767e-05 0.0000000000000000e+00  1.1097856174763768e-05 -8.1441383329851322e-05 0.0000000000000000e+00  1.1227694915115609e-05 -7.2655900246903487e-05 0.0000000000000000e+00  9.7336342268495763e-06 -3.0341222309027486e-05 0.0000000000000000e+00  -2.0124614246945289e-06 -1.8673530049206067e-04 0.0000000000000000e+00  5.2584543588376626e-06 -8.1434837973579930e-06 0.0000000000000000e+00  -8.1832122940378918e-06 -2.0122490518029114e-04 0.0000000000000000e+00  5.7593836099038257e-07 1.1437395302185129e-06 0.0000000000000000e+00  8.4641325036961294e-07 -1.5704281294466740e-04 0.0000000000000000e+00  -1.2889678697488380e-06 -1.6955015477385712e-04 0.0000000000000000e+00  3.8148618120884460e-06 -5.5358891456341140e-06 0.0000000000000000e+00  8.3939563454593679e-06 -1.6509882658585653e-05 0.0000000000000000e+00  5.7985080385368734e-06 -1.2026801470561824e-04 0.0000000000000000e+00  2.7380404127830751e-06 -1.4463725676195721e-04 0.0000000000000000e+00  1.2387610497814814e-05 -4.2650257298444364e-05 0.0000000000000000e+00  6.9734222861920662e-06 -1.0837948115742024e-04 0.0000000000000000e+00  9.8450035108448044e-06 -2.2906492042832501e-05 0.0000000000000000e+00  1.2950638295992189e-05 -5.1798665568972556e-05 0.0000000000000000e+00  7.9127835858383118e-06 -9.6746901886374202e-05 0.0000000000000000e+00  4.3875068781789328e-06 -1.3236589761426377e-04 0.0000000000000000e+00  1.3693815916321933e-05 -6.1773637902323432e-05 0.0000000000000000e+00  8.6196448728712638e-06 -8.5422455302516429e-05 0.0000000000000000e+00  -7.5503268790590710e-07 -1.3887457922285630e-06 0.0000000000000000e+00  -8.9094446976074832e-07 1.1180288725628020e-06 0.0000000000000000e+00  -6.0356644407306238e-06 -2.1391345755165353e-04 0.0000000000000000e+00  1.4661506930150101e-06 -3.5389062167277375e-06 0.00