<?xml version="1.0"?>
<VTKFile type="UnstructuredGrid"  version="0.1"  >
<UnstructuredGrid>
<Piece  NumberOfPoints="1419" NumberOfCells="2698">
<Points>
<DataArray  type="Float64"  NumberOfComponents="3"  format="ascii">0 0 0  0 0.41 0  2.5 0 0  2.5 0.41 0  0.6 0.19 0  0.6 0.21 0  0.25 0.2 0  0.15 0.2 0  0.2489897948556636 0.21 0  0.2489897948556636 0.19 0  0.6 0.2 0  0 0.3807142857143437 0  0 0.3514285714286952 0  0 0.3221428571430699 0  0 0.29285714285744 0  0 0.2635714285718054 0  0 0.2342857142861561 0  0 0.2050000000005308 0  0 0.175714285714732 0  0 0.1464285714289574 0  0 0.1171428571431897 0  0 0.08785714285737878 0  0 0.05857142857161107 0  0 0.02928571428580012 0  0.03015443760436003 0 0  0.06140001986583606 0 0  0.09377624077125973 0 0  0.1273239957535082 0 0  0.1620856860351972 0 0  0.1981052433264291 0 0  0.235428184091502 0 0  0.2741016576309132 0 0  0.3141745521465447 0 0  0.3556974926295285 0 0  0.3987229542472677 0 0  0.4433053055141081 0 0  0.4895008759286886 0 0  0.5373680609405097 0 0  0.5869673343216626 0 0  0.6383613676634521 0 0  0.6916151138468254 0 0  0.7467958595648856 0 0  0.8039733463919316 0 0  0.8632198139502143 0 0  0.9246101326867038 0 0  0.9882218810934433 0 0  1.054135445558498 0 0  1.122434100542598 0 0  1.193204177141305 0 0  1.266535089879536 0 0  1.342519516046404 0 0  1.421253448503939 0 0  1.502836389106271 0 0  1.587371439758838 0 0  1.674965418777374 0 0  1.765729001825544 0 0  1.859776908880082 0 0  1.957227977487062 0 0  2.058205329869943 0 0  2.162836591189951 0 0  2.271253957290865 0 0  2.383594446803425 0 0  2.5 0.1024999999997612 0  2.5 0.2049999999994743 0  2.5 0.3074999999997183 0  2.383594446803656 0.41 0  2.271253957291315 0.41 0  2.162836591190598 0.41 0  2.058205329870775 0.41 0  1.957227977488067 0.41 0  1.859776908881246 0.41 0  1.765729001826854 0.41 0  1.674965418778818 0.41 0  1.58737143976041 0.41 0  1.502836389107956 0.41 0  1.421253448505726 0.41 0  1.342519516048286 0.41 0  1.266535089881505 0.41 0  1.193204177143353 0.41 0  1.122434100544716 0.41 0  1.05413544556068 0.41 0  0.9882218810956305 0.41 0  0.9246101326886647 0.41 0  0.8632198139519631 0.41 0  0.8039733463934788 0.41 0  0.7467958595662458 0.41 0  0.6916151138480078 0.41 0  0.6383613676644679 0.41 0  0.5869673343225223 0.41 0  0.5373680609412221 0.41 0  0.4895008759292634 0.41 0  0.4433053055145528 0.41 0  0.3987229542475914 0.41 0  0.3556974926297398 0.41 0  0.3141745521466497 0.41 0  0.2741016576310038 0.41 0  0.2354281840915826 0.41 0  0.1981052433265003 0.41 0  0.1620856860352591 0.41 0  0.1273239957535623 0.41 0  0.09377624077128965 0.41 0  0.06140001986584975 0.41 0  0.03015443760436654 0.41 0  0.2497468076502589 0.2050254481002335 0  0.2497468076502614 0.1949745518997913 0  0.2469965252529372 0.1829317073451959 0  0.2439893735792749 0.1762316384219906 0  0.2400332147834255 0.1700443375285386 0  0.2352133972704371 0.1645032867342007 0  0.2296339016332438 0.1597280261969788 0  0.2234150974217223 0.1558215752574715 0  0.2166911463437691 0.1528682099456123 0  0.2096071079204251 0.1509316448471593 0  0.2023158100364996 0.1500536585536553 0  0.194974551899914 0.1502531923497262 0  0.1877417105387872 0.1515259415822739 0  0.1807733240461124 0.153844448527136 0  0.1742197252835808 0.15715869474974 0  0.1682222986673531 0.1613971801805478 0  0.162910430003803 0.1664684656256651 0  0.1583987151779087 0.1722631454351573 0  0.1547844879126891 0.178656207771761 0  0.1521457199348551 0.1855097315605723 0  0.1505393388476355 0.1926758619366523 0  0.1505393388476328 0.2073241380633295 0  0.1521457199348437 0.2144902684393899 0  0.1547844879126531 0.221343792228163 0  0.1583987151778488 0.2277368545647528 0  0.1629104300036858 0.2335315343742052 0  0.1682222986671726 0.2386028198193036 0  0.1742197252833576 0.2428413052501257 0  0.1807733240458683 0.2461555514727623 0  0.1877417105384929 0.2484740584176516 0  0.1949745518995776 0.2497468076502398 0  0.202315810036185 0.2499463414463592 0  0.2096071079201568 0.2490683551528932 0  0.2166911463435495 0.2471317900544655 0  0.2234150974215506 0.2441784247426195 0  0.2296339016331197 0.2402719738031125 0  0.2352133972703547 0.2354967132658811 0  0.2400332147833751 0.2299556624715287 0  0.2439893735792577 0.2237683615780412 0  0.246996525252926 0.2170682926548348 0  0.25645809709277 0.21 0  0.2639263993298655 0.21 0  0.271394701566961 0.21 0  0.2788630038040554 0.21 0  0.2863313060411479 0.21 0  0.2937996082782405 0.21 0  0.301267910515333 0.21 0  0.3087362127524279 0.21 0  0.3162045149895234 0.21 0  0.3236728172265972 0.21 0  0.3311411194636928 0.21 0  0.3386094217007701 0.21 0  0.3460777239378666 0.21 0  0.3535460261749672 0.21 0  0.3610143284120516 0.21 0  0.3684826306491596 0.21 0  0.3759509328862226 0.21 0  0.383419235123329 0.21 0  0.3908875373604028 0.21 0  0.3983558395975142 0.21 0  0.4058241418345938 0.21 0  0.4132924440716992 0.21 0  0.4207607463087888 0.21 0  0.4282290485459029 0.21 0  0.4356973507830418 0.21 0  0.4431656530201649 0.21 0  0.4506339552573136 0.21 0  0.4581022574944306 0.21 0  0.4655705597315852 0.21 0  0.4730388619686996 0.21 0  0.480507164205851 0.21 0  0.4879754664429498 0.21 0  0.4954437686800938 0.21 0  0.502912070917267 0.21 0  0.5103803731544119 0.21 0  0.5178486753915261 0.21 0  0.5253169776286404 0.21 0  0.5327852798657868 0.21 0  0.5402535821029386 0.21 0  0.54772188434007 0.21 0  0.5551901865771842 0.21 0  0.5626584888143201 0.21 0  0.5701267910514778 0.21 0  0.5775950932886138 0.21 0  0.5850633955257281 0.21 0  0.5925316977628483 0.21 0  0.6 0.2050000000000054 0  0.6 0.1950000000000217 0  0.5925316977628897 0.19 0  0.5850633955257988 0.19 0  0.5775950932887378 0.19 0  0.5701267910515998 0.19 0  0.5626584888145268 0.19 0  0.5551901865773963 0.19 0  0.547721884340339 0.19 0  0.5402535821032429 0.19 0  0.5327852798661811 0.19 0  0.5253169776290537 0.19 0  0.5178486753919799 0.19 0  0.5103803731549078 0.19 0  0.502912070917822 0.19 0  0.4954437686807294 0.19 0  0.4879754664436223 0.19 0  0.4805071642065402 0.19 0  0.4730388619694271 0.19 0  0.4655705597323621 0.19 0  0.4581022574952563 0.19 0  0.4506339552581777 0.19 0  0.4431656530210671 0.19 0  0.4356973507839815 0.19 0  0.4282290485468779 0.19 0  0.4207607463097617 0.19 0  0.4132924440726327 0.19 0  0.4058241418354857 0.19 0  0.3983558395983636 0.19 0  0.3908875373612097 0.19 0  0.3834192351240934 0.19 0  0.3759509328869369 0.19 0  0.3684826306498175 0.19 0  0.361014328412667 0.19 0  0.3535460261755617 0.19 0  0.3460777239384295 0.19 0  0.3386094217012945 0.19 0  0.3311411194641595 0.19 0  0.3236728172270245 0.19 0  0.3162045149898895 0.19 0  0.3087362127527544 0.19 0  0.3012679105156187 0.19 0  0.2937996082784807 0.19 0  0.2863313060413428 0.19 0  0.2788630038042048 0.19 0  0.2713947015670686 0.19 0  0.2639263993299336 0.19 0  0.2564580970927985 0.19 0  0.2607803159922026 0.2000727136295815 0  0.5887803774232762 0.2001272386983733 0  0.5745072403740523 0.2002044435018727 0  0.5511891430099709 0.2001122610077113 0  0.2751288526855082 0.20000000000002 0  0.5365194309847112 0.1999999999999436 0  0.2894621222999649 0.1998691686390484 0  0.5215828265105155 0.1999999999999228 0  0.3127789816668748 0.1998657885438805 0  0.3274069683451451 0.2000000000000796 0  0.5066462220363641 0.199999999999908 0  0.3650630746574081 0.199866017807523 0  0.476773013087985 0.1999999999998713 0  0.3417402379596385 0.1998691686391011 0  0.3796850840047755 0.200000000000134 0  0.4618364086138087 0.1999999999998546 0  0.4917096175621762 0.1999999999998808 0  0.3946216884789568 0.2000000000001512 0  0.446899804139621 0.1999999999998389 0  0.4089549580935208 0.1998691686391595 0  0.4322718174608562 0.200127451265745 0  0.4201487168029707 0.1999966199048527 0  0.3528922713220932 0.2000185703532356 0  0.5633122436674589 0.1999814296467508 0  0.3006558810093873 0.1999966199048318 0  0.5815926498168407 0.1966545283159175 0  0.2677053789419034 0.1964246479135325 0  0.5290511287476175 0.1970915826863981 0  0.5439877332217911 0.197091582686394 0  0.2825131256993216 0.2035478995978015 0  0.3199386661080599 0.202908417313604 0  0.4842413153250809 0.1970915826863873 0  0.5141145242734466 0.1970915826863843 0  0.3722167817676917 0.2029084173136195 0  0.4693047108508938 0.1970915826863783 0  0.3348752705822316 0.202908417313609 0  0.3871533862418661 0.2029084173136212 0  0.4543681063767183 0.1970915826863795 0  0.4991779197992749 0.1970915826863902 0  0.4020059614928624 0.203547899597858 0  0.4394315019025246 0.1970915826863714 0  0.2550657455369551 0.2034088125358657 0  0.2548908499171161 0.1966940311614271 0  0.5946539510196798 0.2024302972968126 0  0.267698176732111 0.2039977513680092 0  0.4261685417851465 0.196409292431739 0  0.3590076176283495 0.196411355804271 0  0.5571672426447437 0.2036011176410121 0  0.3066757059912147 0.1964092924317024 0  0.594380730180568 0.1966558399668133 0  0.4842413153245942 0.2040749161535287 0  0.4693047108503577 0.2040749161535231 0  0.3871533862424271 0.1959250838464788 0  0.372246743208829 0.1959123236376545 0  0.5141145242731028 0.2040749161535395 0  0.4543681063761134 0.2040749161535186 0  0.4019979587101454 0.1959834479682427 0  0.4394608940728603 0.2040870543693135 0  0.5439623148931173 0.2040856076781014 0  0.5290511287473298 0.2040749161535501 0  0.4991779197988497 0.2040749161535382 0  0.3347912413592433 0.1959225448935183 0  0.3199680582793816 0.1959123018030061 0  0.2825051229162361 0.1959834479681729 0  0.3590471196690275 0.2036304442587945 0  0.5571594006495384 0.1963685282145804 0  0.3067669986803285 0.203627750582736 0  0.4262598344738712 0.2036568242185335 0  0.5814408164431408 0.2041285596160068 0  0.5688286748170428 0.1961819304477386 0  0.4145905603063645 0.2038180695522843 0  0.3473758401724931 0.2038180695522752 0  0.2950977245128307 0.2038180695522663 0  0.5688286748170693 0.203818069552238 0  0.2950977245127906 0.1961819304477774 0  0.3473758401723931 0.1961819304478349 0  0.4145905603061963 0.1961819304479011 0  0.2601812407614425 0.2056861609747042
[...]
<PointData  Vectors="f_40-0"> 
<DataArray  type="Float64"  Name="f_40-0"  NumberOfComponents="3" format="ascii">0.0000000000000000e+00 0.0000000000000000e+00 0.0000000000000000e+00  0.0000000000000000e+00 0.0000000000000000e+00 0.0000000000000000e+00  0.0000000000000000e+00 0.0000000000000000e+00 0.0000000000000000e+00  0.0000000000000000e+00 0.0000000000000000e+00 0.0000000000000000e+00  -2.4509707692341234e-05 -6.6397398891032192e-05 0.0000000000000000e+00  -1.8245536316457047e-05 -7.2488969879920802e-05 0.0000000000000000e+00  0.0000000000000000e+00 0.0000000000000000e+00 0.0000000000000000e+00  0.0000000000000000e+00 0.0000000000000000e+00 0.0000000000000000e+00  0.0000000000000000e+00 0.0000000000000000e+00 0.0000000000000000e+00  0.0000000000000000e+00 0.0000000000000000e+00 0.0000000000000000e+00  -2.1770218564882589e-05 -6.9445378279183066e-05 0.0000000000000000e+00  1.0011477427031495e-02 0.0000000000000000e+00 0.0000000000000000e+00  1.8482727557597833e-02 0.0000000000000000e+00 0.0000000000000000e+00  2.5413750391697024e-02 0.0000000000000000e+00 0.0000000000000000e+00  3.0804545929337096e-02 0.0000000000000000e+00 0.0000000000000000e+00  3.4655114170517344e-02 0.0000000000000000e+00 0.0000000000000000e+00  3.6965455115237536e-02 0.0000000000000000e+00 0.0000000000000000e+00  3.7735568763495382e-02 0.0000000000000000e+00 0.0000000000000000e+00  3.6965455115284249e-02 0.0000000000000000e+00 0.0000000000000000e+00  3.4655114170597572e-02 0.0000000000000000e+00 0.0000000000000000e+00  3.0804545929436458e-02 0.0000000000000000e+00 0.0000000000000000e+00  2.5413750391791418e-02 0.0000000000000000e+00 0.0000000000000000e+00  1.8482727557678380e-02 0.0000000000000000e+00 0.0000000000000000e+00  1.0011477427076880e-02 0.0000000000000000e+00 0.0000000000000000e+00  0.0000000000000000e+00 0.0000000000000000e+00 0.0000000000000000e+00  0.0000000000000000e+00 0.0000000000000000e+00 0.0000000000000000e+00  0.0000000000000000e+00 0.0000000000000000e+00 0.0000000000000000e+00  0.0000000000000000e+00 0.0000000000000000e+00 0.0000000000000000e+00  0.0000000000000000e+00 0.0000000000000000e+00 0.0000000000000000e+00  0.0000000000000000e+00 0.0000000000000000e+00 0.0000000000000000e+00  0.0000000000000000e+00 0.0000000000000000e+00 0.0000000000000000e+00  0.0000000000000000e+00 0.0000000000000000e+00 0.0000000000000000e+00  0.0000000000000000e+00 0.0000000000000000e+00 0.0000000000000000e+00  0.0000000000000000e+00 0.0000000000000000e+00 0.0000000000000000e+00  0.0000000000000000e+00 0.0000000000000000e+00 0.0000000000000000e+00  0.0000000000000000e+00 0.0000000000000000e+00 0.0000000000000000e+00  0.0000000000000000e+00 0.0000000000000000e+00 0.0000000000000000e+00  0.0000000000000000e+00 0.0000000000000000e+00 0.0000000000000000e+00  0.0000000000000000e+00 0.0000000000000000e+00 0.0000000000000000e+00  0.0000000000000000e+00 0.0000000000000000e+00 0.0000000000000000e+00  0.0000000000000000e+00 0.0000000000000000e+00 0.0000000000000000e+00  0.0000000000000000e+00 0.0000000000000000e+00 0.0000000000000000e+00  0.0000000000000000e+00 0.0000000000000000e+00 0.0000000000000000e+00  0.0000000000000000e+00 0.0000000000000000e+00 0.0000000000000000e+00  0.0000000000000000e+00 0.0000000000000000e+00 0.0000000000000000e+00  0.0000000000000000e+00 0.0000000000000000e+00 0.0000000000000000e+00  0.0000000000000000e+00 0.0000000000000000e+00 0.0000000000000000e+00  0.0000000000000000e+00 0.0000000000000000e+00 0.0000000000000000e+00  0.0000000000000000e+00 0.0000000000000000e+00 0.0000000000000000e+00  0.0000000000000000e+00 0.0000000000000000e+00 0.0000000000000000e+00  0.0000000000000000e+00 0.0000000000000000e+00 0.0000000000000000e+00  0.0000000000000000e+00 0.0000000000000000e+00 0.0000000000000000e+00  0.0000000000000000e+00 0.0000000000000000e+00 0.0000000000000000e+00  0.0000000000000000e+00 0.0000000000000000e+00 0.0000000000000000e+00  0.0000000000000000e+00 0.0000000000000000e+00 0.0000000000000000e+00  0.0000000000000000e+00 0.0000000000000000e+00 0.0000000000000000e+00  0.0000000000000000e+00 0.0000000000000000e+00 0.0000000000000000e+00  0.0000000000000000e+00 0.0000000000000000e+00 0.0000000000000000e+00  0.0000000000000000e+00 0.0000000000000000e+00 0.0000000000000000e+00  0.0000000000000000e+00 0.0000000000000000e+00 0.0000000000000000e+00  0.0000000000000000e+00 0.0000000000000000e+00 0.0000000000000000e+00  0.0000000000000000e+00 0.0000000000000000e+00 0.0000000000000000e+00  3.6075370604098968e-02 1.5323478094170441e-03 0.0000000000000000e+00  2.5413831365832865e-02 -2.4071004885835320e-04 0.0000000000000000e+00  3.6194001978398033e-02 -2.0029602976095367e-03 0.0000000000000000e+00  0.0000000000000000e+00 0.0000000000000000e+00 0.0000000000000000e+00  0.0000000000000000e+00 0.0000000000000000e+00 0.0000000000000000e+00  0.0000000000000000e+00 0.0000000000000000e+00 0.0000000000000000e+00  0.0000000000000000e+00 0.0000000000000000e+00 0.0000000000000000e+00  0.0000000000000000e+00 0.0000000000000000e+00 0.0000000000000000e+00  0.0000000000000000e+00 0.0000000000000000e+00 0.0000000000000000e+00  0.0000000000000000e+00 0.0000000000000000e+00 0.0000000000000000e+00  0.0000000000000000e+00 0.0000000000000000e+00 0.0000000000000000e+00  0.0000000000000000e+00 0.0000000000000000e+00 0.0000000000000000e+00  0.0000000000000000e+00 0.0000000000000000e+00 0.0000000000000000e+00  0.0000000000000000e+00 0.0000000000000000e+00 0.0000000000000000e+00  0.0000000000000000e+00 0.0000000000000000e+00 0.0000000000000000e+00  0.0000000000000000e+00 0.0000000000000000e+00 0.0000000000000000e+00  0.0000000000000000e+00 0.0000000000000000e+00 0.0000000000000000e+00  0.0000000000000000e+00 0.0000000000000000e+00 0.0000000000000000e+00  0.0000000000000000e+00 0.0000000000000000e+00 0.0000000000000000e+00  0.0000000000000000e+00 0.0000000000000000e+00 0.0000000000000000e+00  0.0000000000000000e+00 0.0000000000000000e+00 0.0000000000000000e+00  0.0000000000000000e+00 0.0000000000000000e+00 0.0000000000000000e+00  0.0000000000000000e+00 0.0000000000000000e+00 0.0000000000000000e+00  0.0000000000000000e+00 0.0000000000000000e+00 0.0000000000000000e+00  0.0000000000000000e+00 0.0000000000000000e+00 0.0000000000000000e+00  0.0000000000000000e+00 0.0000000000000000e+00 0.0000000000000000e+00  0.0000000000000000e+00 0.0000000000000000e+00 0.0000000000000000e+00  0.0000000000000000e+00 0.0000000000000000e+00 0.0000000000000000e+00  0.0000000000000000e+00 0.0000000000000000e+00 0.0000000000000000e+00  0.0000000000000000e+00 0.0000000000000000e+00 0.0000000000000000e+00  0.0000000000000000e+00 0.0000000000000000e+00 0.0000000000000000e+00  0.0000000000000000e+00 0.0000000000000000e+00 0.0000000000000000e+00  0.0000000000000000e+00 0.0000000000000000e+00 0.0000000000000000e+00  0.0000000000000000e+00 0.0000000000000000e+00 0.0000000000000000e+00  0.0000000000000000e+00 0.0000000000000000e+00 0.0000000000000000e+00  0.0000000000000000e+00 0.0000000000000000e+00 0.0000000000000000e+00  0.0000000000000000e+00 0.0000000000000000e+00 0.0000000000000000e+00  0.0000000000000000e+00 0.0000000000000000e+00 0.0000000000000000e+00  0.0000000000000000e+00 0.0000000000000000e+00 0.0000000000000000e+00  0.0000000000000000e+00 0.0000000000000000e+00 0.0000000000000000e+00  0.0000000000000000e+00 0.0000000000000000e+00 0.0000000000000000e+00  0.0000000000000000e+00 0.0000000000000000e+00 0.0000000000000000e+00  0.0000000000000000e+00 0.0000000000000000e+00 0.0000000000000000e+00  0.0000000000000000e+00 0.0000000000000000e+00 0.0000000000000000e+00  0.0000000000000000e+00 0.0000000000000000e+00 0.0000000000000000e+00  0.0000000000000000e+00 0.0000000000000000e+00 0.0000000000000000e+00  0.0000000000000000e+00 0.0000000000000000e+00 0.0000000000000000e+00  0.0000000000000000e+00 0.0000000000000000e+00 0.0000000000000000e+00  0.0000000000000000e+00 0.0000000000000000e+00 0.0000000000000000e+00  0.0000000000000000e+00 0.0000000000000000e+00 0.0000000000000000e+00  0.0000000000000000e+00 0.0000000000000000e+00 0.0000000000000000e+00  0.0000000000000000e+00 0.0000000000000000e+00 0.0000000000000000e+00  0.0000000000000000e+00 0.0000000000000000e+00 0.0000000000000000e+00  0.0000000000000000e+00 0.0000000000000000e+00 0.0000000000000000e+00  0.0000000000000000e+00 0.0000000000000000e+00 0.0000000000000000e+00  0.0000000000000000e+00 0.0000000000000000e+00 0.0000000000000000e+00  0.0000000000000000e+00 0.0000000000000000e+00 0.0000000000000000e+00  0.0000000000000000e+00 0.0000000000000000e+00 0.0000000000000000e+00  0.0000000000000000e+00 0.0000000000000000e+00 0.0000000000000000e+00  0.0000000000000000e+00 0.0000000000000000e+00 0.0000000000000000e+00  0.0000000000000000e+00 0.0000000000000000e+00 0.0000000000000000e+00  0.0000000000000000e+00 0.0000000000000000e+00 0.0000000000000000e+00  0.0000000000000000e+00 0.0000000000000000e+00 0.0000000000000000e+00  0.0000000000000000e+00 0.0000000000000000e+00 0.0000000000000000e+00  0.0000000000000000e+00 0.0000000000000000e+00 0.0000000000000000e+00  0.0000000000000000e+00 0.0000000000000000e+00 0.0000000000000000e+00  0.0000000000000000e+00 0.0000000000000000e+00 0.0000000000000000e+00  0.0000000000000000e+00 0.0000000000000000e+00 0.0000000000000000e+00  0.0000000000000000e+00 0.0000000000000000e+00 0.0000000000000000e+00  0.0000000000000000e+00 0.0000000000000000e+00 0.0000000000000000e+00  0.0000000000000000e+00 0.0000000000000000e+00 0.0000000000000000e+00  0.0000000000000000e+00 0.0000000000000000e+00 0.0000000000000000e+00  0.0000000000000000e+00 0.0000000000000000e+00 0.0000000000000000e+00  0.0000000000000000e+00 0.0000000000000000e+00 0.0000000000000000e+00  0.0000000000000000e+00 0.0000000000000000e+00 0.0000000000000000e+00  0.0000000000000000e+00 0.0000000000000000e+00 0.0000000000000000e+00  0.0000000000000000e+00 0.0000000000000000e+00 0.0000000000000000e+00  0.0000000000000000e+00 0.0000000000000000e+00 0.0000000000000000e+00  0.0000000000000000e+00 0.0000000000000000e+00 0.0000000000000000e+00  0.0000000000000000e+00 0.0000000000000000e+00 0.0000000000000000e+00  0.0000000000000000e+00 0.0000000000000000e+00 0.0000000000000000e+00  6.5573871866118847e-08 -5.3038997641817408e-06 0.0000000000000000e+00  3.0513686193708588e-07 -5.7928590181542551e-06 0.0000000000000000e+00  8.0209020212710010e-07 -6.0520698222522643e-06 0.0000000000000000e+00  1.4261659377192273e-06 -6.2230725791939929e-06 0.0000000000000000e+00  2.0626284643091148e-06 -6.4615882486015974e-06 0.0000000000000000e+00  2.6659195214832786e-06 -6.8290960821313303e-06 0.0000000000000000e+00  3.2179979007229040e-06 -7.2533040926545207e-06 0.0000000000000000e+00  3.7155241070853472e-06 -7.7657172760307198e-06 0.0000000000000000e+00  4.1980704742562232e-06 -8.3498549088661003e-06 0.0000000000000000e+00  4.6021149500189318e-06 -8.9964066886575310e-06 0.0000000000000000e+00  4.9863206119732853e-06 -9.7413883685655399e-06 0.0000000000000000e+00  5.2940204412714736e-06 -1.0537062663038266e-05 0.0000000000000000e+00  5.5680287996704832e-06 -1.1418125705875960e-05 0.0000000000000000e+00  5.7818927271583156e-06 -1.2366858830146602e-05 0.0000000000000000e+00  5.9347195458701944e-06 -1.3387115370077499e-05 0.0000000000000000e+00  6.0664438255050206e-06 -1.4486310954048277e-05 0.0000000000000000e+00  6.1150439180513448e-06 -1.5627957429433113e-05 0.0000000000000000e+00  6.1329597591194662e-06 -1.6872377519434683e-05 0.0000000000000000e+00  6.0730659913325489e-06 -1.8146148820917966e-05 0.0000000000000000e+00  5.9822078509679990e-06 -1.9516871798999051e-05 0.0000000000000000e+00  5.8176837382347352e-06 -2.0916849395735450e-05 0.0000000000000000e+00  5.6036051359764872e-06 -2.2397345811066776e-05 0.0000000000000000e+00  5.3344350488539314e-06 -2.3928828472284182e-05 0.0000000000000000e+00  5.0002695967483863e-06 -2.5511560374513360e-05 0.0000000000000000e+00  4.6352001436380338e-06 -2.7159399007904518e-05 0.0000000000000000e+00  4.1958164912447785e-06 -2.8830655686060866e-05 0.0000000000000000e+00  3.6993866742638082e-06 -3.0591317642487480e-05 0.0000000000000000e+00  3.1459067151926972e-06 -3.2358483308840199e-05 0.0000000000000000e+00  2.5350075979884567e-06 -3.4203838550220280e-05 0.0000000000000000e+00  1.8663881241746052e-06 -3.6061596115318389e-05 0.0000000000000000e+00  1.1434182859906574e-06 -3.7987597895717610e-05 0.0000000000000000e+00  3.5714997687225538e-07 -3.9921349054162892e-05 0.0000000000000000e+00  -4.7813810702288056e-07 -4.1923666208916109e-05 0.0000000000000000e+00  -1.3793272621977060e-06 -4.3919923588802196e-05 0.0000000000000000e+00  -2.3409059932916016e-06 -4.5988473824957515e-05 0.0000000000000000e+00  -3.3599325075117681e-06 -4.8051890533251902e-05 0.0000000000000000e+00  -4.4344547602306427e-06 -5.0175317972808111e-05 0.0000000000000000e+00  -5.5696781364892374e-06 -5.2291388813174160e-05 0.0000000000000000e+00  -6.7646716162737053e-06 -5.4460775384518200e-05 0.0000000000000000e+00  -8.0247392961060111e-06 -5.6620491305916499e-05 0.0000000000000000e+00  -9.3481161627198911e-06 -5.8817686176416911e-05 0.0000000000000000e+00  -1.0724091822470318e-05 -6.1015349600786184e-05 0.0000000000000000e+00  -1.2172083259469218e-05 -6.3235194599109925e-05 0.0000000000000000e+00  -1.3654759396729224e-05 -6.5458502508648986e-05 0.0000000000000000e+00  -1.5205974799558482e-05 -6.7673451742828462e-05 0.0000000000000000e+00  -1.6771716173569331e-05 -6.9952111440768774e-05 0.0000000000000000e+00  -2.0147383654211002e-05 -7.0956345622651040e-05 0.0000000000000000e+00  -2.3252952324602593e-05 -6.7935466785207769e-05 0.0000000000000000e+00  -2.3000541050082592e-05 -6.4280328286270849e-05 0.0000000000000000e+00  -2.1407415907910017e-05 -6.1901398309298361e-05 0.0000000000000000e+00  -1.9827332859239973e-05 -5.9495756286644765e-05 0.0000000000000000e+00  -1.8308583105797335e-05 -5.7118664219379542e-05 0.0000000000000000e+00  -1.6826917869465361e-05 -5.4753357640665566e-05 0.0000000000000000e+00  -1.5416056338320171e-05 -5.2404399675276817e-05 0.0000000000000000e+00  -1.4044332302886706e-05 -5.0074864867799707e-05 0.0000000000000000e+00  -1.2740134683773735e-05 -4.7750577388624835e-05 0.0000000000000000e+00  -1.1480939790153733e-05 -4.5471065327246080e-05 0.0000000000000000e+00  -1.0284387333928671e-05 -4.3185547234732200e-05 0.0000000000000000e+00  -9.1333704177008057e-06 -4.0953015842022205e-05 0.0000000000000000e+00  -8.0456491323850616e-06 -3.8721531300216649e-05 0.0000000000000000e+00  -7.0006378570450790e-06 -3.6548139490410084e-05 0.0000000000000000e+00  -6.0187287467077057e-06 -3.4379166583775749e-05 0.0000000000000000e+00  -5.0775296658585954e-06 -3.2272585480254710e-05 0.0000000000000000e+00  -4.2009479513647026e-06 -3.0173973296656785e-05 0.0000000000000000e+00  -3.3641590785559610e-06 -2.8139671521808574e-05 0.0000000000000000e+00  -2.5941980948093312e-06 -2.6118272462930703e-05 0.0000000000000000e+00  -1.8615858642943415e-06 -2.4168513911884957e-05 0.0000000000000000e+00  -1.1947669512392479e-06 -2.2236113227363607e-05 0.0000000000000000e+00  -5.6236617648841108e-07 -2.0377949126176312e-05 0.0000000000000000e+00  2.2271588680253794e-09 -1.8542666802392300e-05 0.0000000000000000e+00  5.2505385121862932e-07 -1.6774606212588600e-05 0.0000000000000000e+00  9.9468242365408801e-07 -1.5052525957846887e-05 0.0000000000000000e+00  1.4008713338905843e-06 -1.3392585164457839e-05 0.0000000000000000e+00  1.7876397914761565e-06 -1.1789253235232105e-05 0.0000000000000000e+00  2.1043739624938328e-06 -1.0231331606408886e-05 0.0000000000000000e+00  2.3797992059356580e-06 -8.7665309780824190e-06 0.0000000000000000e+00  2.5968773371984051e-06 -7.3293779586468574e-06 0.0000000000000000e+00  2.7693954849060015e-06 -5.9943685151735816e-06 0.0000000000000000e+00  2.8855617687748617e-06 -4.6895947403647992e-06 0.0000000000000000e+00  2.9584667268404074e-06 -3.4878389889650122e-06 0.0000000000000000e+00  2.9805555648440472e-06 -2.3303716090556382e-06 0.0000000000000000e+00  2.9431214350190224e-06 -1.2650286746629742e-06 0.0000000000000000e+00  2.8873465660465436e-06 -2.5646211543780746e-07 0.0000000000000000e+00  2.7639734301650394e-06 6.7719097522178555e-07 0.0000000000000000e+00  2.5993043413803320e-06 1.5138796649971066e-06 0.0000000000000000e+00  2.3803488874145111e-06 2.2992605082758338e-06 0.0000000000000000e+00  2.1225108547070296e-06 2.9858624820190351e-06 0.0000000000000000e+00  1.8146025783252600e-06 3.6111412181193675e-06 0.0000000000000000e+00  1.4513351478188476e-06 4.1461521011136811e-06 0.0000000000000000e+00  1.0781462794177234e-06 4.6097208337367990e-06 0.0000000000000000e+00  6.3674775436309749e-07 5.0358697763926811e-06 0.0000000000000000e+00  2.4063173940243362e-07 5.3634813682407451e-06 0.0000000000000000e+00  -7.2477101716297637e-08 5.4483208120551635e-06 0.0000000000000000e+00  -1.2533169915429295e-07 5.1402345286438800e-06 0.0000000000000000e+00  -9.5337453176758315e-07 -1.0262691484193398e-07 0.0000000000000000e+00  -1.9184942097599136e-05 -6.5973364965766010e-05 0.0000000000000000e+00  -1.6082145619176835e-05 -6.1576185766884278e-05 0.0000000000000000e+00  -1.1649942691351917e-05 -5.4421396395942071e-05 0.0000000000000000e+00  7.2764777023818619e-07 -4.1105469394354636e-07 0.0000000000000000e+00  -9.1726611242981203e-06 -4.9976062782360674e-05 0.0000000000000000e+00  1.7554505897283111e-06 -9.6440039669051967e-07 0.0000000000000000e+00  -6.8356102785476081e-06 -4.5570924091100121e-05 0.0000000000000000e+00  3.0841810966966987e-06 -2.6021605886104380e-06 0.0000000000000000e+00  3.7059242359966883e-06 -4.0789221837825701e-06 0.0000000000000000e+00  -4.7244486776638895e-06 -4.1271958402490093e-05 0.0000000000000000e+00  4.4178681089162258e-06 -8.9408416703872361e-06 0.0000000000000000e+00  -1.1718058242891587e-06 -3.3060163595973836e-05 0.0000000000000000e+00  4.1212768406647537e-06 -5.6663138102753418e-06 0.0000000000000000e+00  4.3707794291442010e-06 -1.1405292479400518e-05 0.0000000000000000e+00  2.7374296511387921e-07 -2.9179473510888481e-05 0.0000000000000000e+00  -2.8369823048123053e-06 -3.7096004309445987e-05 0.0000000000000000e+00  4.1039377745527998e-06 -1.4115382362469516e-05 0.0000000000000000e+00  1.5009675458440294e-06 -2.5472808132791469e-05 0.0000000000000000e+00  3.6284788724804888e-06 -1.6892094742147291e-05 0.0000000000000000e+00  2.5277988176801975e-06 -2.2081583625761130e-05 0.0000000000000000e+00  3.1457462534621460e-06 -1.9329088507751591e-05 0.0000000000000000e+00  4.3275372508853340e-06 -7.2325083997990810e-06 0.0000000000000000e+00  -1.3957676426433253e-05 -5.8072348794604943e-05 0.0000000000000000e+00  2.4379770079515690e-06 -1.7400281684568756e-06 0.0000000000000000e+00  -1.8671418637119326e-05 -6.2736281386301037e-05 0.0000000000000000e+00  -7.3517487531062621e-08 1.9261631322007375e-06 0.0000000000000000e+00  -8.8314438438968408e-06 -4.6759801968653321e-05 0.0000000000000000e+00  -1.1298199345151032e-05 -5.1249470278941823e-05 0.0000000000000000e+00  1.4349376925017759e-06 -2.6828098937346750e-06 0.0000000000000000e+00  3.6936764494824906e-06 -4.8697859874538280e-06 0.0000000000000000e+00  -2.7613146421734068e-06 -3.3938996526047749e-05 0.0000000000000000e+00  -6.5873880243930788e-06 -4.2365048064807768e-05 0.0000000000000000e+00  4.9030415794071159e-06 -1.1565818829850872e-05 0.0000000000000000e+00  -1.1754800766659432e-06 -2.9938848489962078e-05 0.0000000000000000e+00  4.2857504805527725e-06 -6.4192892466107106e-06 0.0000000000000000e+00  4.7869208835966656e-06 -1.4110806974883509e-05 0.0000000000000000e+00  1.9389398176437663e-07 -2.6104221463755987e-05 0.0000000000000000e+00  -4.5649909346042520e-06 -3.8085663896031234e-05 0.0000000000000000e+00  4.5949164747988640e-06 -1.7191013044166040e-05 0.0000000000000000e+00  1.3504392451922866e-06 -2.2452804787142280e-05 0.0000000000000000e+00  -1.0608706105376777e-06 -1.2738456977853358e-06 0.0000000000000000e+00  -1.0731371221728465e-06 1.1257303366317509e-06 0.0000000000000000e+00  -1.9798218743517134e-05 -6.8462812450845935e-05 0.0000000000000000e+00  1.2914847068585533e-07 -2