<?xml version="1.0"?>
<VTKFile type="UnstructuredGrid"  version="0.1"  >
<UnstructuredGrid>
<Piece  NumberOfPoints="1419" NumberOfCells="2698">
<Points>
<DataArray  type="Float64"  NumberOfComponents="3"  format="ascii">0 0 0  0 0.41 0  2.5 0 0  2.5 0.41 0  0.6 0.19 0  0.6 0.21 0  0.25 0.2 0  0.15 0.2 0  0.2489897948556636 0.21 0  0.2489897948556636 0.19 0  0.6 0.2 0  0 0.3807142857143437 0  0 0.3514285714286952 0  0 0.3221428571430699 0  0 0.29285714285744 0  0 0.2635714285718054 0  0 0.2342857142861561 0  0 0.2050000000005308 0  0 0.175714285714732 0  0 0.1464285714289574 0  0 0.1171428571431897 0  0 0.08785714285737878 0  0 0.05857142857161107 0  0 0.02928571428580012 0  0.03015443760436003 0 0  0.06140001986583606 0 0  0.09377624077125973 0 0  0.1273239957535082 0 0  0.1620856860351972 0 0  0.1981052433264291 0 0  0.235428184091502 0 0  0.2741016576309132 0 0  0.3141745521465447 0 0  0.3556974926295285 0 0  0.3987229542472677 0 0  0.4433053055141081 0 0  0.4895008759286886 0 0  0.5373680609405097 0 0  0.5869673343216626 0 0  0.6383613676634521 0 0  0.6916151138468254 0 0  0.7467958595648856 0 0  0.8039733463919316 0 0  0.8632198139502143 0 0  0.9246101326867038 0 0  0.9882218810934433 0 0  1.054135445558498 0 0  1.122434100542598 0 0  1.193204177141305 0 0  1.266535089879536 0 0  1.342519516046404 0 0  1.421253448503939 0 0  1.502836389106271 0 0  1.587371439758838 0 0  1.674965418777374 0 0  1.765729001825544 0 0  1.859776908880082 0 0  1.957227977487062 0 0  2.058205329869943 0 0  2.162836591189951 0 0  2.271253957290865 0 0  2.383594446803425 0 0  2.5 0.1024999999997612 0  2.5 0.2049999999994743 0  2.5 0.3074999999997183 0  2.383594446803656 0.41 0  2.271253957291315 0.41 0  2.162836591190598 0.41 0  2.058205329870775 0.41 0  1.957227977488067 0.41 0  1.859776908881246 0.41 0  1.765729001826854 0.41 0  1.674965418778818 0.41 0  1.58737143976041 0.41 0  1.502836389107956 0.41 0  1.421253448505726 0.41 0  1.342519516048286 0.41 0  1.266535089881505 0.41 0  1.193204177143353 0.41 0  1.122434100544716 0.41 0  1.05413544556068 0.41 0  0.9882218810956305 0.41 0  0.9246101326886647 0.41 0  0.8632198139519631 0.41 0  0.8039733463934788 0.41 0  0.7467958595662458 0.41 0  0.6916151138480078 0.41 0  0.6383613676644679 0.41 0  0.5869673343225223 0.41 0  0.5373680609412221 0.41 0  0.4895008759292634 0.41 0  0.4433053055145528 0.41 0  0.3987229542475914 0.41 0  0.3556974926297398 0.41 0  0.3141745521466497 0.41 0  0.2741016576310038 0.41 0  0.2354281840915826 0.41 0  0.1981052433265003 0.41 0  0.1620856860352591 0.41 0  0.1273239957535623 0.41 0  0.09377624077128965 0.41 0  0.06140001986584975 0.41 0  0.03015443760436654 0.41 0  0.2497468076502589 0.2050254481002335 0  0.2497468076502614 0.1949745518997913 0  0.2469965252529372 0.1829317073451959 0  0.2439893735792749 0.1762316384219906 0  0.2400332147834255 0.1700443375285386 0  0.2352133972704371 0.1645032867342007 0  0.2296339016332438 0.1597280261969788 0  0.2234150974217223 0.1558215752574715 0  0.2166911463437691 0.1528682099456123 0  0.2096071079204251 0.1509316448471593 0  0.2023158100364996 0.1500536585536553 0  0.194974551899914 0.1502531923497262 0  0.1877417105387872 0.1515259415822739 0  0.1807733240461124 0.153844448527136 0  0.1742197252835808 0.15715869474974 0  0.1682222986673531 0.1613971801805478 0  0.162910430003803 0.1664684656256651 0  0.1583987151779087 0.1722631454351573 0  0.1547844879126891 0.178656207771761 0  0.1521457199348551 0.1855097315605723 0  0.1505393388476355 0.1926758619366523 0  0.1505393388476328 0.2073241380633295 0  0.1521457199348437 0.2144902684393899 0  0.1547844879126531 0.221343792228163 0  0.1583987151778488 0.2277368545647528 0  0.1629104300036858 0.2335315343742052 0  0.1682222986671726 0.2386028198193036 0  0.1742197252833576 0.2428413052501257 0  0.1807733240458683 0.2461555514727623 0  0.1877417105384929 0.2484740584176516 0  0.1949745518995776 0.2497468076502398 0  0.202315810036185 0.2499463414463592 0  0.2096071079201568 0.2490683551528932 0  0.2166911463435495 0.2471317900544655 0  0.2234150974215506 0.2441784247426195 0  0.2296339016331197 0.2402719738031125 0  0.2352133972703547 0.2354967132658811 0  0.2400332147833751 0.2299556624715287 0  0.2439893735792577 0.2237683615780412 0  0.246996525252926 0.2170682926548348 0  0.25645809709277 0.21 0  0.2639263993298655 0.21 0  0.271394701566961 0.21 0  0.2788630038040554 0.21 0  0.2863313060411479 0.21 0  0.2937996082782405 0.21 0  0.301267910515333 0.21 0  0.3087362127524279 0.21 0  0.3162045149895234 0.21 0  0.3236728172265972 0.21 0  0.3311411194636928 0.21 0  0.3386094217007701 0.21 0  0.3460777239378666 0.21 0  0.3535460261749672 0.21 0  0.3610143284120516 0.21 0  0.3684826306491596 0.21 0  0.3759509328862226 0.21 0  0.383419235123329 0.21 0  0.3908875373604028 0.21 0  0.3983558395975142 0.21 0  0.4058241418345938 0.21 0  0.4132924440716992 0.21 0  0.4207607463087888 0.21 0  0.4282290485459029 0.21 0  0.4356973507830418 0.21 0  0.4431656530201649 0.21 0  0.4506339552573136 0.21 0  0.4581022574944306 0.21 0  0.4655705597315852 0.21 0  0.4730388619686996 0.21 0  0.480507164205851 0.21 0  0.4879754664429498 0.21 0  0.4954437686800938 0.21 0  0.502912070917267 0.21 0  0.5103803731544119 0.21 0  0.5178486753915261 0.21 0  0.5253169776286404 0.21 0  0.5327852798657868 0.21 0  0.5402535821029386 0.21 0  0.54772188434007 0.21 0  0.5551901865771842 0.21 0  0.5626584888143201 0.21 0  0.5701267910514778 0.21 0  0.5775950932886138 0.21 0  0.5850633955257281 0.21 0  0.5925316977628483 0.21 0  0.6 0.2050000000000054 0  0.6 0.1950000000000217 0  0.5925316977628897 0.19 0  0.5850633955257988 0.19 0  0.5775950932887378 0.19 0  0.5701267910515998 0.19 0  0.5626584888145268 0.19 0  0.5551901865773963 0.19 0  0.547721884340339 0.19 0  0.5402535821032429 0.19 0  0.5327852798661811 0.19 0  0.5253169776290537 0.19 0  0.5178486753919799 0.19 0  0.5103803731549078 0.19 0  0.502912070917822 0.19 0  0.4954437686807294 0.19 0  0.4879754664436223 0.19 0  0.4805071642065402 0.19 0  0.4730388619694271 0.19 0  0.4655705597323621 0.19 0  0.4581022574952563 0.19 0  0.4506339552581777 0.19 0  0.4431656530210671 0.19 0  0.4356973507839815 0.19 0  0.4282290485468779 0.19 0  0.4207607463097617 0.19 0  0.4132924440726327 0.19 0  0.4058241418354857 0.19 0  0.3983558395983636 0.19 0  0.3908875373612097 0.19 0  0.3834192351240934 0.19 0  0.3759509328869369 0.19 0  0.3684826306498175 0.19 0  0.361014328412667 0.19 0  0.3535460261755617 0.19 0  0.3460777239384295 0.19 0  0.3386094217012945 0.19 0  0.3311411194641595 0.19 0  0.3236728172270245 0.19 0  0.3162045149898895 0.19 0  0.3087362127527544 0.19 0  0.3012679105156187 0.19 0  0.2937996082784807 0.19 0  0.2863313060413428 0.19 0  0.2788630038042048 0.19 0  0.2713947015670686 0.19 0  0.2639263993299336 0.19 0  0.2564580970927985 0.19 0  0.2607803159922026 0.2000727136295815 0  0.5887803774232762 0.2001272386983733 0  0.5745072403740523 0.2002044435018727 0  0.5511891430099709 0.2001122610077113 0  0.2751288526855082 0.20000000000002 0  0.5365194309847112 0.1999999999999436 0  0.2894621222999649 0.1998691686390484 0  0.5215828265105155 0.1999999999999228 0  0.3127789816668748 0.1998657885438805 0  0.3274069683451451 0.2000000000000796 0  0.5066462220363641 0.199999999999908 0  0.3650630746574081 0.199866017807523 0  0.476773013087985 0.1999999999998713 0  0.3417402379596385 0.1998691686391011 0  0.3796850840047755 0.200000000000134 0  0.4618364086138087 0.1999999999998546 0  0.4917096175621762 0.1999999999998808 0  0.3946216884789568 0.2000000000001512 0  0.446899804139621 0.1999999999998389 0  0.4089549580935208 0.1998691686391595 0  0.4322718174608562 0.200127451265745 0  0.4201487168029707 0.1999966199048527 0  0.3528922713220932 0.2000185703532356 0  0.5633122436674589 0.1999814296467508 0  0.3006558810093873 0.1999966199048318 0  0.5815926498168407 0.1966545283159175 0  0.2677053789419034 0.1964246479135325 0  0.5290511287476175 0.1970915826863981 0  0.5439877332217911 0.197091582686394 0  0.2825131256993216 0.2035478995978015 0  0.3199386661080599 0.202908417313604 0  0.4842413153250809 0.1970915826863873 0  0.5141145242734466 0.1970915826863843 0  0.3722167817676917 0.2029084173136195 0  0.4693047108508938 0.1970915826863783 0  0.3348752705822316 0.202908417313609 0  0.3871533862418661 0.2029084173136212 0  0.4543681063767183 0.1970915826863795 0  0.4991779197992749 0.1970915826863902 0  0.4020059614928624 0.203547899597858 0  0.4394315019025246 0.1970915826863714 0  0.2550657455369551 0.2034088125358657 0  0.2548908499171161 0.1966940311614271 0  0.5946539510196798 0.2024302972968126 0  0.267698176732111 0.2039977513680092 0  0.4261685417851465 0.196409292431739 0  0.3590076176283495 0.196411355804271 0  0.5571672426447437 0.2036011176410121 0  0.3066757059912147 0.1964092924317024 0  0.594380730180568 0.1966558399668133 0  0.4842413153245942 0.2040749161535287 0  0.4693047108503577 0.2040749161535231 0  0.3871533862424271 0.1959250838464788 0  0.372246743208829 0.1959123236376545 0  0.5141145242731028 0.2040749161535395 0  0.4543681063761134 0.2040749161535186 0  0.4019979587101454 0.1959834479682427 0  0.4394608940728603 0.2040870543693135 0  0.5439623148931173 0.2040856076781014 0  0.5290511287473298 0.2040749161535501 0  0.4991779197988497 0.2040749161535382 0  0.3347912413592433 0.1959225448935183 0  0.3199680582793816 0.1959123018030061 0  0.2825051229162361 0.1959834479681729 0  0.3590471196690275 0.2036304442587945 0  0.5571594006495384 0.1963685282145804 0  0.3067669986803285 0.203627750582736 0  0.4262598344738712 0.2036568242185335 0  0.5814408164431408 0.2041285596160068 0  0.5688286748170428 0.1961819304477386 0  0.4145905603063645 0.2038180695522843 0  0.3473758401724931 0.2038180695522752 0  0.2950977245128307 0.2038180695522663 0  0.5688286748170693 0.203818069552238 0  0.2950977245127906 0.1961819304477774 0  0.3473758401723931 0.1961819304478349 0  0.4145905603061963 0.1961819304479011 0  0.2601812407614425 0.2056861609747042
[...]
<PointData  Vectors="f_40-0"> 
<DataArray  type="Float64"  Name="f_40-0"  NumberOfComponents="3" format="ascii">0.0000000000000000e+00 0.0000000000000000e+00 0.0000000000000000e+00  0.0000000000000000e+00 0.0000000000000000e+00 0.0000000000000000e+00  0.0000000000000000e+00 0.0000000000000000e+00 0.0000000000000000e+00  0.0000000000000000e+00 0.0000000000000000e+00 0.0000000000000000e+00  -2.0059322764692269e-06 5.4406932623539536e-08 0.0000000000000000e+00  -1.5547793884676315e-06 -4.4703605843429524e-06 0.0000000000000000e+00  0.0000000000000000e+00 0.0000000000000000e+00 0.0000000000000000e+00  0.0000000000000000e+00 0.0000000000000000e+00 0.0000000000000000e+00  0.0000000000000000e+00 0.0000000000000000e+00 0.0000000000000000e+00  0.0000000000000000e+00 0.0000000000000000e+00 0.0000000000000000e+00  -1.8968290343945491e-06 -2.1970689842443532e-06 0.0000000000000000e+00  2.1856138973626332e-04 0.0000000000000000e+00 0.0000000000000000e+00  4.0349795028235904e-04 0.0000000000000000e+00 0.0000000000000000e+00  5.5480968163824375e-04 0.0000000000000000e+00 0.0000000000000000e+00  6.7249658380409260e-04 0.0000000000000000e+00 0.0000000000000000e+00  7.5655865677989051e-04 0.0000000000000000e+00 0.0000000000000000e+00  8.0699590056563229e-04 0.0000000000000000e+00 0.0000000000000000e+00  8.2380831516126751e-04 0.0000000000000000e+00 0.0000000000000000e+00  8.0699590056665187e-04 0.0000000000000000e+00 0.0000000000000000e+00  7.5655865678164215e-04 0.0000000000000000e+00 0.0000000000000000e+00  6.7249658380626187e-04 0.0000000000000000e+00 0.0000000000000000e+00  5.5480968164030450e-04 0.0000000000000000e+00 0.0000000000000000e+00  4.0349795028411746e-04 0.0000000000000000e+00 0.0000000000000000e+00  2.1856138973725412e-04 0.0000000000000000e+00 0.0000000000000000e+00  0.0000000000000000e+00 0.0000000000000000e+00 0.0000000000000000e+00  0.0000000000000000e+00 0.0000000000000000e+00 0.0000000000000000e+00  0.0000000000000000e+00 0.0000000000000000e+00 0.0000000000000000e+00  0.0000000000000000e+00 0.0000000000000000e+00 0.0000000000000000e+00  0.0000000000000000e+00 0.0000000000000000e+00 0.0000000000000000e+00  0.0000000000000000e+00 0.0000000000000000e+00 0.0000000000000000e+00  0.0000000000000000e+00 0.0000000000000000e+00 0.0000000000000000e+00  0.0000000000000000e+00 0.0000000000000000e+00 0.0000000000000000e+00  0.0000000000000000e+00 0.0000000000000000e+00 0.0000000000000000e+00  0.0000000000000000e+00 0.0000000000000000e+00 0.0000000000000000e+00  0.0000000000000000e+00 0.0000000000000000e+00 0.0000000000000000e+00  0.0000000000000000e+00 0.0000000000000000e+00 0.0000000000000000e+00  0.0000000000000000e+00 0.0000000000000000e+00 0.0000000000000000e+00  0.0000000000000000e+00 0.0000000000000000e+00 0.0000000000000000e+00  0.0000000000000000e+00 0.0000000000000000e+00 0.0000000000000000e+00  0.0000000000000000e+00 0.0000000000000000e+00 0.0000000000000000e+00  0.0000000000000000e+00 0.0000000000000000e+00 0.0000000000000000e+00  0.0000000000000000e+00 0.0000000000000000e+00 0.0000000000000000e+00  0.0000000000000000e+00 0.0000000000000000e+00 0.0000000000000000e+00  0.0000000000000000e+00 0.0000000000000000e+00 0.0000000000000000e+00  0.0000000000000000e+00 0.0000000000000000e+00 0.0000000000000000e+00  0.0000000000000000e+00 0.0000000000000000e+00 0.0000000000000000e+00  0.0000000000000000e+00 0.0000000000000000e+00 0.0000000000000000e+00  0.0000000000000000e+00 0.0000000000000000e+00 0.0000000000000000e+00  0.0000000000000000e+00 0.0000000000000000e+00 0.0000000000000000e+00  0.0000000000000000e+00 0.0000000000000000e+00 0.0000000000000000e+00  0.0000000000000000e+00 0.0000000000000000e+00 0.0000000000000000e+00  0.0000000000000000e+00 0.0000000000000000e+00 0.0000000000000000e+00  0.0000000000000000e+00 0.0000000000000000e+00 0.0000000000000000e+00  0.0000000000000000e+00 0.0000000000000000e+00 0.0000000000000000e+00  0.0000000000000000e+00 0.0000000000000000e+00 0.0000000000000000e+00  0.0000000000000000e+00 0.0000000000000000e+00 0.0000000000000000e+00  0.0000000000000000e+00 0.0000000000000000e+00 0.0000000000000000e+00  0.0000000000000000e+00 0.0000000000000000e+00 0.0000000000000000e+00  0.0000000000000000e+00 0.0000000000000000e+00 0.0000000000000000e+00  0.0000000000000000e+00 0.0000000000000000e+00 0.0000000000000000e+00  0.0000000000000000e+00 0.0000000000000000e+00 0.0000000000000000e+00  0.0000000000000000e+00 0.0000000000000000e+00 0.0000000000000000e+00  7.4464620284405510e-04 2.3830132885029515e-05 0.0000000000000000e+00  5.3927270653380437e-04 2.4567665304920595e-06 0.0000000000000000e+00  7.2472398014590631e-04 -4.5178224611091608e-05 0.0000000000000000e+00  0.0000000000000000e+00 0.0000000000000000e+00 0.0000000000000000e+00  0.0000000000000000e+00 0.0000000000000000e+00 0.0000000000000000e+00  0.0000000000000000e+00 0.0000000000000000e+00 0.0000000000000000e+00  0.0000000000000000e+00 0.0000000000000000e+00 0.0000000000000000e+00  0.0000000000000000e+00 0.0000000000000000e+00 0.0000000000000000e+00  0.0000000000000000e+00 0.0000000000000000e+00 0.0000000000000000e+00  0.0000000000000000e+00 0.0000000000000000e+00 0.0000000000000000e+00  0.0000000000000000e+00 0.0000000000000000e+00 0.0000000000000000e+00  0.0000000000000000e+00 0.0000000000000000e+00 0.0000000000000000e+00  0.0000000000000000e+00 0.0000000000000000e+00 0.0000000000000000e+00  0.0000000000000000e+00 0.0000000000000000e+00 0.0000000000000000e+00  0.0000000000000000e+00 0.0000000000000000e+00 0.0000000000000000e+00  0.0000000000000000e+00 0.0000000000000000e+00 0.0000000000000000e+00  0.0000000000000000e+00 0.0000000000000000e+00 0.0000000000000000e+00  0.0000000000000000e+00 0.0000000000000000e+00 0.0000000000000000e+00  0.0000000000000000e+00 0.0000000000000000e+00 0.0000000000000000e+00  0.0000000000000000e+00 0.0000000000000000e+00 0.0000000000000000e+00  0.0000000000000000e+00 0.0000000000000000e+00 0.0000000000000000e+00  0.0000000000000000e+00 0.0000000000000000e+00 0.0000000000000000e+00  0.0000000000000000e+00 0.0000000000000000e+00 0.0000000000000000e+00  0.0000000000000000e+00 0.0000000000000000e+00 0.0000000000000000e+00  0.0000000000000000e+00 0.0000000000000000e+00 0.0000000000000000e+00  0.0000000000000000e+00 0.0000000000000000e+00 0.0000000000000000e+00  0.0000000000000000e+00 0.0000000000000000e+00 0.0000000000000000e+00  0.0000000000000000e+00 0.0000000000000000e+00 0.0000000000000000e+00  0.0000000000000000e+00 0.0000000000000000e+00 0.0000000000000000e+00  0.0000000000000000e+00 0.0000000000000000e+00 0.0000000000000000e+00  0.0000000000000000e+00 0.0000000000000000e+00 0.0000000000000000e+00  0.0000000000000000e+00 0.0000000000000000e+00 0.0000000000000000e+00  0.0000000000000000e+00 0.0000000000000000e+00 0.0000000000000000e+00  0.0000000000000000e+00 0.0000000000000000e+00 0.0000000000000000e+00  0.0000000000000000e+00 0.0000000000000000e+00 0.0000000000000000e+00  0.0000000000000000e+00 0.0000000000000000e+00 0.0000000000000000e+00  0.0000000000000000e+00 0.0000000000000000e+00 0.0000000000000000e+00  0.0000000000000000e+00 0.0000000000000000e+00 0.0000000000000000e+00  0.0000000000000000e+00 0.0000000000000000e+00 0.0000000000000000e+00  0.0000000000000000e+00 0.0000000000000000e+00 0.0000000000000000e+00  0.0000000000000000e+00 0.0000000000000000e+00 0.0000000000000000e+00  0.0000000000000000e+00 0.0000000000000000e+00 0.0000000000000000e+00  0.0000000000000000e+00 0.0000000000000000e+00 0.0000000000000000e+00  0.0000000000000000e+00 0.0000000000000000e+00 0.0000000000000000e+00  0.0000000000000000e+00 0.0000000000000000e+00 0.0000000000000000e+00  0.0000000000000000e+00 0.0000000000000000e+00 0.0000000000000000e+00  0.0000000000000000e+00 0.0000000000000000e+00 0.0000000000000000e+00  0.0000000000000000e+00 0.0000000000000000e+00 0.0000000000000000e+00  0.0000000000000000e+00 0.0000000000000000e+00 0.0000000000000000e+00  0.0000000000000000e+00 0.0000000000000000e+00 0.0000000000000000e+00  0.0000000000000000e+00 0.0000000000000000e+00 0.0000000000000000e+00  0.0000000000000000e+00 0.0000000000000000e+00 0.0000000000000000e+00  0.0000000000000000e+00 0.0000000000000000e+00 0.0000000000000000e+00  0.0000000000000000e+00 0.0000000000000000e+00 0.0000000000000000e+00  0.0000000000000000e+00 0.0000000000000000e+00 0.0000000000000000e+00  0.0000000000000000e+00 0.0000000000000000e+00 0.0000000000000000e+00  0.0000000000000000e+00 0.0000000000000000e+00 0.0000000000000000e+00  0.0000000000000000e+00 0.0000000000000000e+00 0.0000000000000000e+00  0.0000000000000000e+00 0.0000000000000000e+00 0.0000000000000000e+00  0.0000000000000000e+00 0.0000000000000000e+00 0.0000000000000000e+00  0.0000000000000000e+00 0.0000000000000000e+00 0.0000000000000000e+00  0.0000000000000000e+00 0.0000000000000000e+00 0.0000000000000000e+00  0.0000000000000000e+00 0.0000000000000000e+00 0.0000000000000000e+00  0.0000000000000000e+00 0.0000000000000000e+00 0.0000000000000000e+00  0.0000000000000000e+00 0.0000000000000000e+00 0.0000000000000000e+00  0.0000000000000000e+00 0.0000000000000000e+00 0.0000000000000000e+00  0.0000000000000000e+00 0.0000000000000000e+00 0.0000000000000000e+00  0.0000000000000000e+00 0.0000000000000000e+00 0.0000000000000000e+00  0.0000000000000000e+00 0.0000000000000000e+00 0.0000000000000000e+00  0.0000000000000000e+00 0.0000000000000000e+00 0.0000000000000000e+00  0.0000000000000000e+00 0.0000000000000000e+00 0.0000000000000000e+00  0.0000000000000000e+00 0.0000000000000000e+00 0.0000000000000000e+00  0.0000000000000000e+00 0.0000000000000000e+00 0.0000000000000000e+00  0.0000000000000000e+00 0.0000000000000000e+00 0.0000000000000000e+00  0.0000000000000000e+00 0.0000000000000000e+00 0.0000000000000000e+00  0.0000000000000000e+00 0.0000000000000000e+00 0.0000000000000000e+00  0.0000000000000000e+00 0.0000000000000000e+00 0.0000000000000000e+00  0.0000000000000000e+00 0.0000000000000000e+00 0.0000000000000000e+00  0.0000000000000000e+00 0.0000000000000000e+00 0.0000000000000000e+00  0.0000000000000000e+00 0.0000000000000000e+00 0.0000000000000000e+00  0.0000000000000000e+00 0.0000000000000000e+00 0.0000000000000000e+00  3.0346737928176797e-07 -4.4947795074882832e-06 0.0000000000000000e+00  7.4951208209275135e-07 -4.8333673587864834e-06 0.0000000000000000e+00  1.4275577691650932e-06 -4.9168378936181547e-06 0.0000000000000000e+00  2.2052305644918517e-06 -4.8610076244790025e-06 0.0000000000000000e+00  3.0132601110572830e-06 -4.8061129566393773e-06 0.0000000000000000e+00  3.7831008261331803e-06 -4.7858275850731417e-06 0.0000000000000000e+00  4.5316855880054862e-06 -4.7569274902613763e-06 0.0000000000000000e+00  5.2382042799820458e-06 -4.7250258341544954e-06 0.0000000000000000e+00  5.9197297023035171e-06 -4.6881557338195202e-06 0.0000000000000000e+00  6.5656089881810722e-06 -4.6395470826292122e-06 0.0000000000000000e+00  7.1776022230806382e-06 -4.5953238246075656e-06 0.0000000000000000e+00  7.7570025808199491e-06 -4.5324509160056985e-06 0.0000000000000000e+00  8.2961670528517964e-06 -4.4664076135191470e-06 0.0000000000000000e+00  8.8086874783970634e-06 -4.4020596707483572e-06 0.0000000000000000e+00  9.2741614591071905e-06 -4.3279846377147772e-06 0.0000000000000000e+00  9.7139517116934705e-06 -4.2645822294557143e-06 0.0000000000000000e+00  1.0111324242712456e-05 -4.1858579575976790e-06 0.0000000000000000e+00  1.0471784263975450e-05 -4.1352461319000940e-06 0.0000000000000000e+00  1.0791312325145464e-05 -4.0698536238923651e-06 0.0000000000000000e+00  1.1074719178907925e-05 -4.0361411556527089e-06 0.0000000000000000e+00  1.1313055991630142e-05 -3.9923290814618293e-06 0.0000000000000000e+00  1.1503244886405487e-05 -3.9700000784387467e-06 0.0000000000000000e+00  1.1657911550022680e-05 -3.9639255726591859e-06 0.0000000000000000e+00  1.1750362375108774e-05 -3.9615932378203415e-06 0.0000000000000000e+00  1.1809534800549055e-05 -3.9861070740383315e-06 0.0000000000000000e+00  1.1806451596997436e-05 -3.9920019030321312e-06 0.0000000000000000e+00  1.1746967250694667e-05 -4.0401326377012478e-06 0.0000000000000000e+00  1.1635405827653037e-05 -4.0560850947573689e-06 0.0000000000000000e+00  1.1463871087661154e-05 -4.1001956109545207e-06 0.0000000000000000e+00  1.1239925007062582e-05 -4.1160096486681611e-06 0.0000000000000000e+00  1.0957683227652776e-05 -4.1455421287454939e-06 0.0000000000000000e+00  1.0616290724874272e-05 -4.1447148533825928e-06 0.0000000000000000e+00  1.0225933555498203e-05 -4.1590946601524780e-06 0.0000000000000000e+00  9.7740661909832211e-06 -4.1269540457852611e-06 0.0000000000000000e+00  9.2587445406997858e-06 -4.1243885289966077e-06 0.0000000000000000e+00  8.6932608874217626e-06 -4.0931987661694735e-06 0.0000000000000000e+00  8.0716933550144680e-06 -4.0869355884429259e-06 0.0000000000000000e+00  7.3948387849917282e-06 -4.0561578063810495e-06 0.0000000000000000e+00  6.6558315386815267e-06 -4.0509273806822209e-06 0.0000000000000000e+00  5.8520683692217644e-06 -4.0344323775405721e-06 0.0000000000000000e+00  4.9841268696089237e-06 -4.0461665648137909e-06 0.0000000000000000e+00  4.0612221943665849e-06 -4.0587548615986639e-06 0.0000000000000000e+00  3.0504765959343957e-06 -4.0939413661069847e-06 0.0000000000000000e+00  1.9955768726109064e-06 -4.1398361365062881e-06 0.0000000000000000e+00  8.6125868357257157e-07 -4.1849147706126932e-06 0.0000000000000000e+00  -3.3466043393373385e-07 -4.2626481877282663e-06 0.0000000000000000e+00  -1.7809592053158496e-06 -3.3330609744030966e-06 0.0000000000000000e+00  -1.9886141914005168e-06 -1.0638592821903677e-06 0.0000000000000000e+00  -7.4916170677941723e-07 1.8780056927407368e-07 0.0000000000000000e+00  4.7598925594081190e-07 4.1671909441123834e-07 0.0000000000000000e+00  1.6426903731689054e-06 6.5117664818088039e-07 0.0000000000000000e+00  2.7385016215566040e-06 8.5938787002250855e-07 0.0000000000000000e+00  3.7829965819579305e-06 1.0528756360907266e-06 0.0000000000000000e+00  4.7391888918112982e-06 1.2261583312108341e-06 0.0000000000000000e+00  5.6432259734910391e-06 1.3828349211004179e-06 0.0000000000000000e+00  6.4693497754729051e-06 1.5326025103855073e-06 0.0000000000000000e+00  7.2324954153615346e-06 1.6531107389214121e-06 0.0000000000000000e+00  7.9255777108617161e-06 1.7908755151634590e-06 0.0000000000000000e+00  8.5517598094915656e-06 1.9039243357933526e-06 0.0000000000000000e+00  9.1123324185884919e-06 2.0348631119797210e-06 0.0000000000000000e+00  9.6097120325648440e-06 2.1447482837579750e-06 0.0000000000000000e+00  1.0047869410524805e-05 2.2805573716163951e-06 0.0000000000000000e+00  1.0424975216936113e-05 2.4033877519728447e-06 0.0000000000000000e+00  1.0748686001084013e-05 2.5553269536581986e-06 0.0000000000000000e+00  1.1015074514078708e-05 2.6986344074971735e-06 0.0000000000000000e+00  1.1229433021504811e-05 2.8638362231233405e-06 0.0000000000000000e+00  1.1393506042961125e-05 3.0117057748756016e-06 0.0000000000000000e+00  1.1510463948373339e-05 3.1758535586581698e-06 0.0000000000000000e+00  1.1581658247118696e-05 3.3193280026877796e-06 0.0000000000000000e+00  1.1605224413625984e-05 3.4715702068831619e-06 0.0000000000000000e+00  1.1579157666967387e-05 3.6066467219872108e-06 0.0000000000000000e+00  1.1514012352207295e-05 3.7276659243245749e-06 0.0000000000000000e+00  1.1389233311447496e-05 3.8353984219285436e-06 0.0000000000000000e+00  1.1236488563873006e-05 3.9216803218456626e-06 0.0000000000000000e+00  1.1028448359842695e-05 4.0088389720775704e-06 0.0000000000000000e+00  1.0778589890013922e-05 4.0584202337137498e-06 0.0000000000000000e+00  1.0480582941138314e-05 4.1272483379785030e-06 0.0000000000000000e+00  1.0136637536031729e-05 4.1568546083008166e-06 0.0000000000000000e+00  9.7493382728096279e-06 4.2054865805344776e-06 0.0000000000000000e+00  9.3145315993358006e-06 4.2303822126038350e-06 0.0000000000000000e+00  8.8491934372444678e-06 4.2656018229830049e-06 0.0000000000000000e+00  8.3327947178399563e-06 4.2959186024155503e-06 0.0000000000000000e+00  7.7864628302164228e-06 4.3317817260063440e-06 0.0000000000000000e+00  7.1975266439596649e-06 4.3734272253562666e-06 0.0000000000000000e+00  6.5726671338768856e-06 4.4056866638763094e-06 0.0000000000000000e+00  5.9148657533532979e-06 4.4559620718569182e-06 0.0000000000000000e+00  5.2200898412006868e-06 4.5037365038604556e-06 0.0000000000000000e+00  4.5048734070401134e-06 4.5550643596966370e-06 0.0000000000000000e+00  3.7507292429662307e-06 4.6113280707306148e-06 0.0000000000000000e+00  2.9785158098491984e-06 4.6629554346262233e-06 0.0000000000000000e+00  2.1714695222965624e-06 4.7526003387567123e-06 0.0000000000000000e+00  1.4041535413555842e-06 4.8327154260797382e-06 0.0000000000000000e+00  7.2667269296807216e-07 4.7710135769884958e-06 0.0000000000000000e+00  2.7340403027926238e-07 4.4418224435728752e-06 0.0000000000000000e+00  -3.0776736225199688e-07 -5.1074942120025575e-08 0.0000000000000000e+00  4.1145946807652519e-08 -1.9799163165671811e-06 0.0000000000000000e+00  2.2913604898450927e-06 -1.7294027881088099e-06 0.0000000000000000e+00  5.3586670095697822e-06 -1.3852784007058850e-06 0.0000000000000000e+00  1.7826009560240834e-06 -4.8942892784651818e-08 0.0000000000000000e+00  6.9508412433706364e-06 -1.2236264212905241e-06 0.0000000000000000e+00  3.3297024354003075e-06 -1.6498216795816130e-08 0.0000000000000000e+00  8.3231373530511551e-06 -1.1198893125056273e-06 0.0000000000000000e+00  5.6082952154276774e-06 -5.5334551050212892e-08 0.0000000000000000e+00  6.8814234297618664e-06 -1.1729368714033177e-07 0.0000000000000000e+00  9.4497338485612969e-06 -1.0226086951401819e-06 0.0000000000000000e+00  9.5406513375195149e-06 2.0403436001643278e-08 0.0000000000000000e+00  1.0998882484425855e-05 -7.5604098783299186e-07 0.0000000000000000e+00  8.0072361955293874e-06 -3.8289060134320307e-08 0.0000000000000000e+00  1.0304736898731256e-05 -4.7561969559321510e-09 0.0000000000000000e+00  1.1439005753041871e-05 -5.7198226018502589e-07 0.0000000000000000e+00  1.0338904321176658e-05 -9.0836658037955595e-07 0.0000000000000000e+00  1.0924672037551187e-05 -5.9668356151956324e-10 0.0000000000000000e+00  1.1668244588965996e-05 -3.8109490996168637e-07 0.0000000000000000e+00  1.1357754742489257e-05 1.3261402988598824e-08 0.0000000000000000e+00  1.1700284959192031e-05 -2.6051280305950645e-07 0.0000000000000000e+00  1.1568488885843021e-05 -1.0641385768796152e-07 0.0000000000000000e+00  8.7776770122902069e-06 -7.8186318183356598e-08 0.0000000000000000e+00  3.8310912092968438e-06 -1.5018123449957260e-06 0.0000000000000000e+00  4.4519498978363795e-06 -9.9739314554924230e-08 0.0000000000000000e+00  1.1428907906733452e-06 -1.0323019823578084e-06 0.0000000000000000e+00  8.2798501088583891e-07 1.7887851829794966e-06 0.0000000000000000e+00  7.6420828255666777e-06 -3.2803910555073759e-07 0.0000000000000000e+00  6.1367258435172914e-06 -4.8579080410040714e-07 0.0000000000000000e+00  2.5972407124708493e-06 -1.7531475151017311e-06 0.0000000000000000e+00  6.2443320948211072e-06 -1.4419531919024256e-06 0.0000000000000000e+00  1.0664580176306938e-05 1.2616820955790401e-07 0.0000000000000000e+00  8.8915583698638972e-06 -1.8737831436845197e-07 0.0000000000000000e+00  9.9266556511769845e-06 -1.2412471404848412e-06 0.0000000000000000e+00  1.1209833701199904e-05 3.3546922121592649e-07 0.0000000000000000e+00  7.4781121858500730e-06 -1.4052111999359667e-06 0.0000000000000000e+00  1.0633499212903737e-05 -1.1907349314057684e-06 0.0000000000000000e+00  1.1541889738938360e-05 5.6269009114723315e-07 0.0000000000000000e+00  9.8949262871496479e-06 -4.4776380219165095e-08 0.0000000000000000e+00  1.1175522692020993e-05 -1.4324279761000527e-06 0.0000000000000000e+00  1.1673390026381178e-05 7.8220554700685706e-07 0.0000000000000000e+00  -6.7662486099646341e-07 -1.0923484710258098e-06 0.0000000000000000e+00  -6.7192400299779826e-07 9.6953339278588818e-07 0.0000000000000000e+00  -9.1570310260532363e-07 -2.6210307197053711e-06 0.0000000000000000e+00  8.5447039673585776e-07 -2.0605140169310684e-06 0.0000000000000000e+00  1.1619872544281565e-05 1.2123276844254287e-06 0.0