<?xml version="1.0"?>
<VTKFile type="UnstructuredGrid"  version="0.1"  >
<UnstructuredGrid>
<Piece  NumberOfPoints="1419" NumberOfCells="2698">
<Points>
<DataArray  type="Float64"  NumberOfComponents="3"  format="ascii">0 0 0  0 0.41 0  2.5 0 0  2.5 0.41 0  0.6 0.19 0  0.6 0.21 0  0.25 0.2 0  0.15 0.2 0  0.2489897948556636 0.21 0  0.2489897948556636 0.19 0  0.6 0.2 0  0 0.3807142857143437 0  0 0.3514285714286952 0  0 0.3221428571430699 0  0 0.29285714285744 0  0 0.2635714285718054 0  0 0.2342857142861561 0  0 0.2050000000005308 0  0 0.175714285714732 0  0 0.1464285714289574 0  0 0.1171428571431897 0  0 0.08785714285737878 0  0 0.05857142857161107 0  0 0.02928571428580012 0  0.03015443760436003 0 0  0.06140001986583606 0 0  0.09377624077125973 0 0  0.1273239957535082 0 0  0.1620856860351972 0 0  0.1981052433264291 0 0  0.235428184091502 0 0  0.2741016576309132 0 0  0.3141745521465447 0 0  0.3556974926295285 0 0  0.3987229542472677 0 0  0.4433053055141081 0 0  0.4895008759286886 0 0  0.5373680609405097 0 0  0.5869673343216626 0 0  0.6383613676634521 0 0  0.6916151138468254 0 0  0.7467958595648856 0 0  0.8039733463919316 0 0  0.8632198139502143 0 0  0.9246101326867038 0 0  0.9882218810934433 0 0  1.054135445558498 0 0  1.122434100542598 0 0  1.193204177141305 0 0  1.266535089879536 0 0  1.342519516046404 0 0  1.421253448503939 0 0  1.502836389106271 0 0  1.587371439758838 0 0  1.674965418777374 0 0  1.765729001825544 0 0  1.859776908880082 0 0  1.957227977487062 0 0  2.058205329869943 0 0  2.162836591189951 0 0  2.271253957290865 0 0  2.383594446803425 0 0  2.5 0.1024999999997612 0  2.5 0.2049999999994743 0  2.5 0.3074999999997183 0  2.383594446803656 0.41 0  2.271253957291315 0.41 0  2.162836591190598 0.41 0  2.058205329870775 0.41 0  1.957227977488067 0.41 0  1.859776908881246 0.41 0  1.765729001826854 0.41 0  1.674965418778818 0.41 0  1.58737143976041 0.41 0  1.502836389107956 0.41 0  1.421253448505726 0.41 0  1.342519516048286 0.41 0  1.266535089881505 0.41 0  1.193204177143353 0.41 0  1.122434100544716 0.41 0  1.05413544556068 0.41 0  0.9882218810956305 0.41 0  0.9246101326886647 0.41 0  0.8632198139519631 0.41 0  0.8039733463934788 0.41 0  0.7467958595662458 0.41 0  0.6916151138480078 0.41 0  0.6383613676644679 0.41 0  0.5869673343225223 0.41 0  0.5373680609412221 0.41 0  0.4895008759292634 0.41 0  0.4433053055145528 0.41 0  0.3987229542475914 0.41 0  0.3556974926297398 0.41 0  0.3141745521466497 0.41 0  0.2741016576310038 0.41 0  0.2354281840915826 0.41 0  0.1981052433265003 0.41 0  0.1620856860352591 0.41 0  0.1273239957535623 0.41 0  0.09377624077128965 0.41 0  0.06140001986584975 0.41 0  0.03015443760436654 0.41 0  0.2497468076502589 0.2050254481002335 0  0.2497468076502614 0.1949745518997913 0  0.2469965252529372 0.1829317073451959 0  0.2439893735792749 0.1762316384219906 0  0.2400332147834255 0.1700443375285386 0  0.2352133972704371 0.1645032867342007 0  0.2296339016332438 0.1597280261969788 0  0.2234150974217223 0.1558215752574715 0  0.2166911463437691 0.1528682099456123 0  0.2096071079204251 0.1509316448471593 0  0.2023158100364996 0.1500536585536553 0  0.194974551899914 0.1502531923497262 0  0.1877417105387872 0.1515259415822739 0  0.1807733240461124 0.153844448527136 0  0.1742197252835808 0.15715869474974 0  0.1682222986673531 0.1613971801805478 0  0.162910430003803 0.1664684656256651 0  0.1583987151779087 0.1722631454351573 0  0.1547844879126891 0.178656207771761 0  0.1521457199348551 0.1855097315605723 0  0.1505393388476355 0.1926758619366523 0  0.1505393388476328 0.2073241380633295 0  0.1521457199348437 0.2144902684393899 0  0.1547844879126531 0.221343792228163 0  0.1583987151778488 0.2277368545647528 0  0.1629104300036858 0.2335315343742052 0  0.1682222986671726 0.2386028198193036 0  0.1742197252833576 0.2428413052501257 0  0.1807733240458683 0.2461555514727623 0  0.1877417105384929 0.2484740584176516 0  0.1949745518995776 0.2497468076502398 0  0.202315810036185 0.2499463414463592 0  0.2096071079201568 0.2490683551528932 0  0.2166911463435495 0.2471317900544655 0  0.2234150974215506 0.2441784247426195 0  0.2296339016331197 0.2402719738031125 0  0.2352133972703547 0.2354967132658811 0  0.2400332147833751 0.2299556624715287 0  0.2439893735792577 0.2237683615780412 0  0.246996525252926 0.2170682926548348 0  0.25645809709277 0.21 0  0.2639263993298655 0.21 0  0.271394701566961 0.21 0  0.2788630038040554 0.21 0  0.2863313060411479 0.21 0  0.2937996082782405 0.21 0  0.301267910515333 0.21 0  0.3087362127524279 0.21 0  0.3162045149895234 0.21 0  0.3236728172265972 0.21 0  0.3311411194636928 0.21 0  0.3386094217007701 0.21 0  0.3460777239378666 0.21 0  0.3535460261749672 0.21 0  0.3610143284120516 0.21 0  0.3684826306491596 0.21 0  0.3759509328862226 0.21 0  0.383419235123329 0.21 0  0.3908875373604028 0.21 0  0.3983558395975142 0.21 0  0.4058241418345938 0.21 0  0.4132924440716992 0.21 0  0.4207607463087888 0.21 0  0.4282290485459029 0.21 0  0.4356973507830418 0.21 0  0.4431656530201649 0.21 0  0.4506339552573136 0.21 0  0.4581022574944306 0.21 0  0.4655705597315852 0.21 0  0.4730388619686996 0.21 0  0.480507164205851 0.21 0  0.4879754664429498 0.21 0  0.4954437686800938 0.21 0  0.502912070917267 0.21 0  0.5103803731544119 0.21 0  0.5178486753915261 0.21 0  0.5253169776286404 0.21 0  0.5327852798657868 0.21 0  0.5402535821029386 0.21 0  0.54772188434007 0.21 0  0.5551901865771842 0.21 0  0.5626584888143201 0.21 0  0.5701267910514778 0.21 0  0.5775950932886138 0.21 0  0.5850633955257281 0.21 0  0.5925316977628483 0.21 0  0.6 0.2050000000000054 0  0.6 0.1950000000000217 0  0.5925316977628897 0.19 0  0.5850633955257988 0.19 0  0.5775950932887378 0.19 0  0.5701267910515998 0.19 0  0.5626584888145268 0.19 0  0.5551901865773963 0.19 0  0.547721884340339 0.19 0  0.5402535821032429 0.19 0  0.5327852798661811 0.19 0  0.5253169776290537 0.19 0  0.5178486753919799 0.19 0  0.5103803731549078 0.19 0  0.502912070917822 0.19 0  0.4954437686807294 0.19 0  0.4879754664436223 0.19 0  0.4805071642065402 0.19 0  0.4730388619694271 0.19 0  0.4655705597323621 0.19 0  0.4581022574952563 0.19 0  0.4506339552581777 0.19 0  0.4431656530210671 0.19 0  0.4356973507839815 0.19 0  0.4282290485468779 0.19 0  0.4207607463097617 0.19 0  0.4132924440726327 0.19 0  0.4058241418354857 0.19 0  0.3983558395983636 0.19 0  0.3908875373612097 0.19 0  0.3834192351240934 0.19 0  0.3759509328869369 0.19 0  0.3684826306498175 0.19 0  0.361014328412667 0.19 0  0.3535460261755617 0.19 0  0.3460777239384295 0.19 0  0.3386094217012945 0.19 0  0.3311411194641595 0.19 0  0.3236728172270245 0.19 0  0.3162045149898895 0.19 0  0.3087362127527544 0.19 0  0.3012679105156187 0.19 0  0.2937996082784807 0.19 0  0.2863313060413428 0.19 0  0.2788630038042048 0.19 0  0.2713947015670686 0.19 0  0.2639263993299336 0.19 0  0.2564580970927985 0.19 0  0.2607803159922026 0.2000727136295815 0  0.5887803774232762 0.2001272386983733 0  0.5745072403740523 0.2002044435018727 0  0.5511891430099709 0.2001122610077113 0  0.2751288526855082 0.20000000000002 0  0.5365194309847112 0.1999999999999436 0  0.2894621222999649 0.1998691686390484 0  0.5215828265105155 0.1999999999999228 0  0.3127789816668748 0.1998657885438805 0  0.3274069683451451 0.2000000000000796 0  0.5066462220363641 0.199999999999908 0  0.3650630746574081 0.199866017807523 0  0.476773013087985 0.1999999999998713 0  0.3417402379596385 0.1998691686391011 0  0.3796850840047755 0.200000000000134 0  0.4618364086138087 0.1999999999998546 0  0.4917096175621762 0.1999999999998808 0  0.3946216884789568 0.2000000000001512 0  0.446899804139621 0.1999999999998389 0  0.4089549580935208 0.1998691686391595 0  0.4322718174608562 0.200127451265745 0  0.4201487168029707 0.1999966199048527 0  0.3528922713220932 0.2000185703532356 0  0.5633122436674589 0.1999814296467508 0  0.3006558810093873 0.1999966199048318 0  0.5815926498168407 0.1966545283159175 0  0.2677053789419034 0.1964246479135325 0  0.5290511287476175 0.1970915826863981 0  0.5439877332217911 0.197091582686394 0  0.2825131256993216 0.2035478995978015 0  0.3199386661080599 0.202908417313604 0  0.4842413153250809 0.1970915826863873 0  0.5141145242734466 0.1970915826863843 0  0.3722167817676917 0.2029084173136195 0  0.4693047108508938 0.1970915826863783 0  0.3348752705822316 0.202908417313609 0  0.3871533862418661 0.2029084173136212 0  0.4543681063767183 0.1970915826863795 0  0.4991779197992749 0.1970915826863902 0  0.4020059614928624 0.203547899597858 0  0.4394315019025246 0.1970915826863714 0  0.2550657455369551 0.2034088125358657 0  0.2548908499171161 0.1966940311614271 0  0.5946539510196798 0.2024302972968126 0  0.267698176732111 0.2039977513680092 0  0.4261685417851465 0.196409292431739 0  0.3590076176283495 0.196411355804271 0  0.5571672426447437 0.2036011176410121 0  0.3066757059912147 0.1964092924317024 0  0.594380730180568 0.1966558399668133 0  0.4842413153245942 0.2040749161535287 0  0.4693047108503577 0.2040749161535231 0  0.3871533862424271 0.1959250838464788 0  0.372246743208829 0.1959123236376545 0  0.5141145242731028 0.2040749161535395 0  0.4543681063761134 0.2040749161535186 0  0.4019979587101454 0.1959834479682427 0  0.4394608940728603 0.2040870543693135 0  0.5439623148931173 0.2040856076781014 0  0.5290511287473298 0.2040749161535501 0  0.4991779197988497 0.2040749161535382 0  0.3347912413592433 0.1959225448935183 0  0.3199680582793816 0.1959123018030061 0  0.2825051229162361 0.1959834479681729 0  0.3590471196690275 0.2036304442587945 0  0.5571594006495384 0.1963685282145804 0  0.3067669986803285 0.203627750582736 0  0.4262598344738712 0.2036568242185335 0  0.5814408164431408 0.2041285596160068 0  0.5688286748170428 0.1961819304477386 0  0.4145905603063645 0.2038180695522843 0  0.3473758401724931 0.2038180695522752 0  0.2950977245128307 0.2038180695522663 0  0.5688286748170693 0.203818069552238 0  0.2950977245127906 0.1961819304477774 0  0.3473758401723931 0.1961819304478349 0  0.4145905603061963 0.1961819304479011 0  0.2601812407614425 0.2056861609747042
[...]
<PointData  Vectors="f_40-0"> 
<DataArray  type="Float64"  Name="f_40-0"  NumberOfComponents="3" format="ascii">0.0000000000000000e+00 0.0000000000000000e+00 0.0000000000000000e+00  0.0000000000000000e+00 0.0000000000000000e+00 0.0000000000000000e+00  0.0000000000000000e+00 0.0000000000000000e+00 0.0000000000000000e+00  0.0000000000000000e+00 0.0000000000000000e+00 0.0000000000000000e+00  -6.2023794984583287e-06 -9.8941715662902228e-04 0.0000000000000000e+00  7.3003474677908652e-05 -9.9377216618408665e-04 0.0000000000000000e+00  0.0000000000000000e+00 0.0000000000000000e+00 0.0000000000000000e+00  0.0000000000000000e+00 0.0000000000000000e+00 0.0000000000000000e+00  0.0000000000000000e+00 0.0000000000000000e+00 0.0000000000000000e+00  0.0000000000000000e+00 0.0000000000000000e+00 0.0000000000000000e+00  3.2788052639572577e-05 -9.9157642911946726e-04 0.0000000000000000e+00  1.4850443160846183e-01 0.0000000000000000e+00 0.0000000000000000e+00  2.7416202758487079e-01 0.0000000000000000e+00 0.0000000000000000e+00  3.7697278792919731e-01 0.0000000000000000e+00 0.0000000000000000e+00  4.5693671264156061e-01 0.0000000000000000e+00 0.0000000000000000e+00  5.1405380172195025e-01 0.0000000000000000e+00 0.0000000000000000e+00  5.4832405517036265e-01 0.0000000000000000e+00 0.0000000000000000e+00  5.5974747298676375e-01 0.0000000000000000e+00 0.0000000000000000e+00  5.4832405517105554e-01 0.0000000000000000e+00 0.0000000000000000e+00  5.1405380172314041e-01 0.0000000000000000e+00 0.0000000000000000e+00  4.5693671264303454e-01 0.0000000000000000e+00 0.0000000000000000e+00  3.7697278793059757e-01 0.0000000000000000e+00 0.0000000000000000e+00  2.7416202758606556e-01 0.0000000000000000e+00 0.0000000000000000e+00  1.4850443160913501e-01 0.0000000000000000e+00 0.0000000000000000e+00  0.0000000000000000e+00 0.0000000000000000e+00 0.0000000000000000e+00  0.0000000000000000e+00 0.0000000000000000e+00 0.0000000000000000e+00  0.0000000000000000e+00 0.0000000000000000e+00 0.0000000000000000e+00  0.0000000000000000e+00 0.0000000000000000e+00 0.0000000000000000e+00  0.0000000000000000e+00 0.0000000000000000e+00 0.0000000000000000e+00  0.0000000000000000e+00 0.0000000000000000e+00 0.0000000000000000e+00  0.0000000000000000e+00 0.0000000000000000e+00 0.0000000000000000e+00  0.0000000000000000e+00 0.0000000000000000e+00 0.0000000000000000e+00  0.0000000000000000e+00 0.0000000000000000e+00 0.0000000000000000e+00  0.0000000000000000e+00 0.0000000000000000e+00 0.0000000000000000e+00  0.0000000000000000e+00 0.0000000000000000e+00 0.0000000000000000e+00  0.0000000000000000e+00 0.0000000000000000e+00 0.0000000000000000e+00  0.0000000000000000e+00 0.0000000000000000e+00 0.0000000000000000e+00  0.0000000000000000e+00 0.0000000000000000e+00 0.0000000000000000e+00  0.0000000000000000e+00 0.0000000000000000e+00 0.0000000000000000e+00  0.0000000000000000e+00 0.0000000000000000e+00 0.0000000000000000e+00  0.0000000000000000e+00 0.0000000000000000e+00 0.0000000000000000e+00  0.0000000000000000e+00 0.0000000000000000e+00 0.0000000000000000e+00  0.0000000000000000e+00 0.0000000000000000e+00 0.0000000000000000e+00  0.0000000000000000e+00 0.0000000000000000e+00 0.0000000000000000e+00  0.0000000000000000e+00 0.0000000000000000e+00 0.0000000000000000e+00  0.0000000000000000e+00 0.0000000000000000e+00 0.0000000000000000e+00  0.0000000000000000e+00 0.0000000000000000e+00 0.0000000000000000e+00  0.0000000000000000e+00 0.0000000000000000e+00 0.0000000000000000e+00  0.0000000000000000e+00 0.0000000000000000e+00 0.0000000000000000e+00  0.0000000000000000e+00 0.0000000000000000e+00 0.0000000000000000e+00  0.0000000000000000e+00 0.0000000000000000e+00 0.0000000000000000e+00  0.0000000000000000e+00 0.0000000000000000e+00 0.0000000000000000e+00  0.0000000000000000e+00 0.0000000000000000e+00 0.0000000000000000e+00  0.0000000000000000e+00 0.0000000000000000e+00 0.0000000000000000e+00  0.0000000000000000e+00 0.0000000000000000e+00 0.0000000000000000e+00  0.0000000000000000e+00 0.0000000000000000e+00 0.0000000000000000e+00  0.0000000000000000e+00 0.0000000000000000e+00 0.0000000000000000e+00  0.0000000000000000e+00 0.0000000000000000e+00 0.0000000000000000e+00  0.0000000000000000e+00 0.0000000000000000e+00 0.0000000000000000e+00  0.0000000000000000e+00 0.0000000000000000e+00 0.0000000000000000e+00  0.0000000000000000e+00 0.0000000000000000e+00 0.0000000000000000e+00  0.0000000000000000e+00 0.0000000000000000e+00 0.0000000000000000e+00  5.3783155953954243e-01 1.2964747327376867e-02 0.0000000000000000e+00  3.7574371908228094e-01 -2.3880411527273260e-03 0.0000000000000000e+00  5.3710590367557465e-01 -7.2905799849484407e-03 0.0000000000000000e+00  0.0000000000000000e+00 0.0000000000000000e+00 0.0000000000000000e+00  0.0000000000000000e+00 0.0000000000000000e+00 0.0000000000000000e+00  0.0000000000000000e+00 0.0000000000000000e+00 0.0000000000000000e+00  0.0000000000000000e+00 0.0000000000000000e+00 0.0000000000000000e+00  0.0000000000000000e+00 0.0000000000000000e+00 0.0000000000000000e+00  0.0000000000000000e+00 0.0000000000000000e+00 0.0000000000000000e+00  0.0000000000000000e+00 0.0000000000000000e+00 0.0000000000000000e+00  0.0000000000000000e+00 0.0000000000000000e+00 0.0000000000000000e+00  0.0000000000000000e+00 0.0000000000000000e+00 0.0000000000000000e+00  0.0000000000000000e+00 0.0000000000000000e+00 0.0000000000000000e+00  0.0000000000000000e+00 0.0000000000000000e+00 0.0000000000000000e+00  0.0000000000000000e+00 0.0000000000000000e+00 0.0000000000000000e+00  0.0000000000000000e+00 0.0000000000000000e+00 0.0000000000000000e+00  0.0000000000000000e+00 0.0000000000000000e+00 0.0000000000000000e+00  0.0000000000000000e+00 0.0000000000000000e+00 0.0000000000000000e+00  0.0000000000000000e+00 0.0000000000000000e+00 0.0000000000000000e+00  0.0000000000000000e+00 0.0000000000000000e+00 0.0000000000000000e+00  0.0000000000000000e+00 0.0000000000000000e+00 0.0000000000000000e+00  0.0000000000000000e+00 0.0000000000000000e+00 0.0000000000000000e+00  0.0000000000000000e+00 0.0000000000000000e+00 0.0000000000000000e+00  0.0000000000000000e+00 0.0000000000000000e+00 0.0000000000000000e+00  0.0000000000000000e+00 0.0000000000000000e+00 0.0000000000000000e+00  0.0000000000000000e+00 0.0000000000000000e+00 0.0000000000000000e+00  0.0000000000000000e+00 0.0000000000000000e+00 0.0000000000000000e+00  0.0000000000000000e+00 0.0000000000000000e+00 0.0000000000000000e+00  0.0000000000000000e+00 0.0000000000000000e+00 0.0000000000000000e+00  0.0000000000000000e+00 0.0000000000000000e+00 0.0000000000000000e+00  0.0000000000000000e+00 0.0000000000000000e+00 0.0000000000000000e+00  0.0000000000000000e+00 0.0000000000000000e+00 0.0000000000000000e+00  0.0000000000000000e+00 0.0000000000000000e+00 0.0000000000000000e+00  0.0000000000000000e+00 0.0000000000000000e+00 0.0000000000000000e+00  0.0000000000000000e+00 0.0000000000000000e+00 0.0000000000000000e+00  0.0000000000000000e+00 0.0000000000000000e+00 0.0000000000000000e+00  0.0000000000000000e+00 0.0000000000000000e+00 0.0000000000000000e+00  0.0000000000000000e+00 0.0000000000000000e+00 0.0000000000000000e+00  0.0000000000000000e+00 0.0000000000000000e+00 0.0000000000000000e+00  0.0000000000000000e+00 0.0000000000000000e+00 0.0000000000000000e+00  0.0000000000000000e+00 0.0000000000000000e+00 0.0000000000000000e+00  0.0000000000000000e+00 0.0000000000000000e+00 0.0000000000000000e+00  0.0000000000000000e+00 0.0000000000000000e+00 0.0000000000000000e+00  0.0000000000000000e+00 0.0000000000000000e+00 0.0000000000000000e+00  0.0000000000000000e+00 0.0000000000000000e+00 0.0000000000000000e+00  0.0000000000000000e+00 0.0000000000000000e+00 0.0000000000000000e+00  0.0000000000000000e+00 0.0000000000000000e+00 0.0000000000000000e+00  0.0000000000000000e+00 0.0000000000000000e+00 0.0000000000000000e+00  0.0000000000000000e+00 0.0000000000000000e+00 0.0000000000000000e+00  0.0000000000000000e+00 0.0000000000000000e+00 0.0000000000000000e+00  0.0000000000000000e+00 0.0000000000000000e+00 0.0000000000000000e+00  0.0000000000000000e+00 0.0000000000000000e+00 0.0000000000000000e+00  0.0000000000000000e+00 0.0000000000000000e+00 0.0000000000000000e+00  0.0000000000000000e+00 0.0000000000000000e+00 0.0000000000000000e+00  0.0000000000000000e+00 0.0000000000000000e+00 0.0000000000000000e+00  0.0000000000000000e+00 0.0000000000000000e+00 0.0000000000000000e+00  0.0000000000000000e+00 0.0000000000000000e+00 0.0000000000000000e+00  0.0000000000000000e+00 0.0000000000000000e+00 0.0000000000000000e+00  0.0000000000000000e+00 0.0000000000000000e+00 0.0000000000000000e+00  0.0000000000000000e+00 0.0000000000000000e+00 0.0000000000000000e+00  0.0000000000000000e+00 0.0000000000000000e+00 0.0000000000000000e+00  0.0000000000000000e+00 0.0000000000000000e+00 0.0000000000000000e+00  0.0000000000000000e+00 0.0000000000000000e+00 0.0000000000000000e+00  0.0000000000000000e+00 0.0000000000000000e+00 0.0000000000000000e+00  0.0000000000000000e+00 0.0000000000000000e+00 0.0000000000000000e+00  0.0000000000000000e+00 0.0000000000000000e+00 0.0000000000000000e+00  0.0000000000000000e+00 0.0000000000000000e+00 0.0000000000000000e+00  0.0000000000000000e+00 0.0000000000000000e+00 0.0000000000000000e+00  0.0000000000000000e+00 0.0000000000000000e+00 0.0000000000000000e+00  0.0000000000000000e+00 0.0000000000000000e+00 0.0000000000000000e+00  0.0000000000000000e+00 0.0000000000000000e+00 0.0000000000000000e+00  0.0000000000000000e+00 0.0000000000000000e+00 0.0000000000000000e+00  0.0000000000000000e+00 0.0000000000000000e+00 0.0000000000000000e+00  0.0000000000000000e+00 0.0000000000000000e+00 0.0000000000000000e+00  0.0000000000000000e+00 0.0000000000000000e+00 0.0000000000000000e+00  0.0000000000000000e+00 0.0000000000000000e+00 0.0000000000000000e+00  0.0000000000000000e+00 0.0000000000000000e+00 0.0000000000000000e+00  0.0000000000000000e+00 0.0000000000000000e+00 0.0000000000000000e+00  0.0000000000000000e+00 0.0000000000000000e+00 0.0000000000000000e+00  0.0000000000000000e+00 0.0000000000000000e+00 0.0000000000000000e+00  0.0000000000000000e+00 0.0000000000000000e+00 0.0000000000000000e+00  2.7150052173916609e-06 -5.8084003942303062e-06 0.0000000000000000e+00  5.8977623819902242e-06 -8.2349731574514456e-06 0.0000000000000000e+00  9.2011244181908689e-06 -1.1879648657870809e-05 0.0000000000000000e+00  1.2881121154463670e-05 -1.6857117590907373e-05 0.0000000000000000e+00  1.6350922180693158e-05 -2.3174367020617415e-05 0.0000000000000000e+00  2.0153666443516443e-05 -3.0933697818201765e-05 0.0000000000000000e+00  2.3600543210747963e-05 -3.9756184436887492e-05 0.0000000000000000e+00  2.7036451384746980e-05 -5.0008731608517881e-05 0.0000000000000000e+00  3.0748200916217451e-05 -6.1359679623266525e-05 0.0000000000000000e+00  3.3981444776381035e-05 -7.3860843997844447e-05 0.0000000000000000e+00  3.7540182801973187e-05 -8.7542110278213722e-05 0.0000000000000000e+00  4.0593130837099383e-05 -1.0228073099414021e-04 0.0000000000000000e+00  4.3852672020330754e-05 -1.1809659234874480e-04 0.0000000000000000e+00  4.6717166238952325e-05 -1.3478728499101666e-04 0.0000000000000000e+00  4.9464871395048098e-05 -1.5255744522262545e-04 0.0000000000000000e+00  5.2332511160974435e-05 -1.7117599587004436e-04 0.0000000000000000e+00  5.4761428022279227e-05 -1.9062033602112617e-04 0.0000000000000000e+00  5.7336399550248980e-05 -2.1096524104672319e-04 0.0000000000000000e+00  5.9490614342451037e-05 -2.3201665407001276e-04 0.0000000000000000e+00  6.1751847575719230e-05 -2.5384488007990422e-04 0.0000000000000000e+00  6.3685924507658550e-05 -2.7632451305412272e-04 0.0000000000000000e+00  6.5629417592337518e-05 -2.9952379346451989e-04 0.0000000000000000e+00  6.7306163118072607e-05 -3.2323543484905564e-04 0.0000000000000000e+00  6.8858404928503282e-05 -3.4759932183011413e-04 0.0000000000000000e+00  7.0428930947396629e-05 -3.7244094132707416e-04 0.0000000000000000e+00  7.1756480363525347e-05 -3.9778854598443924e-04 0.0000000000000000e+00  7.3001771134692317e-05 -4.2367032586040372e-04 0.0000000000000000e+00  7.4084297478180453e-05 -4.4991212203493208e-04 0.0000000000000000e+00  7.5077675285537977e-05 -4.7662813850027504e-04 0.0000000000000000e+00  7.5915928911561882e-05 -5.0364783157594794e-04 0.0000000000000000e+00  7.6662677309119047e-05 -5.3107101502505492e-04 0.0000000000000000e+00  7.7259642307449415e-05 -5.5873310980476072e-04 0.0000000000000000e+00  7.7767886294785327e-05 -5.8673493616686180e-04 0.0000000000000000e+00  7.8127609720289319e-05 -6.1491400642747470e-04 0.0000000000000000e+00  7.8388158051968183e-05 -6.4338955031474165e-04 0.0000000000000000e+00  7.8517989308559425e-05 -6.7198805205652618e-04 0.0000000000000000e+00  7.8549842441784826e-05 -7.0081676412175713e-04 0.0000000000000000e+00  7.8454620807363854e-05 -7.2972401329563354e-04 0.0000000000000000e+00  7.8257879437242762e-05 -7.5881517995012460e-04 0.0000000000000000e+00  7.7935871169029092e-05 -7.8794755562605037e-04 0.0000000000000000e+00  7.7506387794134274e-05 -8.1720515392940741e-04 0.0000000000000000e+00  7.6968807714299306e-05 -8.4649065323265035e-04 0.0000000000000000e+00  7.6311736828398719e-05 -8.7584875711759977e-04 0.0000000000000000e+00  7.5593322736521311e-05 -9.0522792837192739e-04 0.0000000000000000e+00  7.4740614622209958e-05 -9.3459028658021692e-04 0.0000000000000000e+00  7.3824467313484381e-05 -9.6402821150101637e-04 0.0000000000000000e+00  5.2682694896869967e-05 -9.9265264278700842e-04 0.0000000000000000e+00  1.3120111258223154e-05 -9.9050680892480121e-04 0.0000000000000000e+00  -5.3039693338111823e-06 -9.5999682799387731e-04 0.0000000000000000e+00  -4.3242901616541869e-06 -9.3034003715408275e-04 0.0000000000000000e+00  -3.3927291974629874e-06 -9.0066088465430366e-04 0.0000000000000000e+00  -2.5538279124602282e-06 -8.7105759560458091e-04 0.0000000000000000e+00  -1.7711557334751172e-06 -8.4149052729864211e-04 0.0000000000000000e+00  -1.0799566731228665e-06 -8.1198665587257836e-04 0.0000000000000000e+00  -4.2231003804258898e-07 -7.8255479118915572e-04 0.0000000000000000e+00  1.3209527503366528e-07 -7.5318508504770333e-04 0.0000000000000000e+00  6.6598619680695883e-07 -7.2396178217425328e-04 0.0000000000000000e+00  1.0976648648487178e-06 -6.9481660495199357e-04 0.0000000000000000e+00  1.5296730672456838e-06 -6.6585651245338771e-04 0.0000000000000000e+00  1.8487153541316098e-06 -6.3702034348000851e-04 0.0000000000000000e+00  2.1880388916032029e-06 -6.0842395060085213e-04 0.0000000000000000e+00  2.4073046255595588e-06 -5.8000844268832872e-04 0.0000000000000000e+00  2.6708638939950963e-06 -5.5188267451986559e-04 0.0000000000000000e+00  2.7958923263031617e-06 -5.2399402857550119e-04 0.0000000000000000e+00  2.9910730172384761e-06 -4.9644773086663513e-04 0.0000000000000000e+00  3.0265389857270571e-06 -4.6919600622983377e-04 0.0000000000000000e+00  3.1520780653951470e-06 -4.4235815843556855e-04 0.0000000000000000e+00  3.1028251601218287e-06 -4.1588649912880249e-04 0.0000000000000000e+00  3.1758996559749414e-06 -3.8989249381230292e-04 0.0000000000000000e+00  3.0496717166646999e-06 -3.6433277179561205e-04 0.0000000000000000e+00  3.0448963313240860e-06 -3.3930715319373711e-04 0.0000000000000000e+00  2.8773278505500831e-06 -3.1476144894846910e-04 0.0000000000000000e+00  2.6535374487986242e-06 -2.9088255790221879e-04 0.0000000000000000e+00  2.5631660617806432e-06 -2.6750581783398453e-04 0.0000000000000000e+00  2.3184953102630482e-06 -2.4482347275373739e-04 0.0000000000000000e+00  2.1293444186137911e-06 -2.2284551846844474e-04 0.0000000000000000e+00  1.8325487631829449e-06 -2.0157262206962692e-04 0.0000000000000000e+00  1.5845312109826674e-06 -1.8110764044477286e-04 0.0000000000000000e+00  1.2317217018181591e-06 -1.6140439916194222e-04 0.0000000000000000e+00  1.0206934716878015e-06 -1.4270181991960776e-04 0.0000000000000000e+00  5.9028951833156880e-07 -1.2474757489965558e-04 0.0000000000000000e+00  1.2294305499559906e-07 -1.0793074327347046e-04 0.0000000000000000e+00  -1.1752367682849520e-07 -9.1921204302807029e-05 0.0000000000000000e+00  -5.1913922629714374e-07 -7.7088755731645521e-05 0.0000000000000000e+00  -8.1427261176041000e-07 -6.3354089580254527e-05 0.0000000000000000e+00  -1.1964969870991893e-06 -5.0745625741851038e-05 0.0000000000000000e+00  -1.3355135040958886e-06 -3.9472514014168405e-05 0.0000000000000000e+00  -1.7065713430842127e-06 -2.9244442849449199e-05 0.0000000000000000e+00  -2.0367166427859250e-06 -2.0513268228272850e-05 0.0000000000000000e+00  -1.9887098625954020e-06 -1.2858571894848513e-05 0.0000000000000000e+00  -2.0788759729864353e-06 -6.6458093872425939e-06 0.0000000000000000e+00  -1.7813973237042223e-06 -1.8054030954768531e-06 0.0000000000000000e+00  -1.5549755544773806e-06 1.4761358023906539e-06 0.0000000000000000e+00  -7.5281635229348076e-07 3.1388940615774584e-06 0.0000000000000000e+00  8.3517119879490864e-07 -1.3717536608174628e-06 0.0000000000000000e+00  3.5014880102679747e-05 -9.4717857105005101e-04 0.0000000000000000e+00  3.7144418187379753e-05 -8.9076301069113432e-04 0.0000000000000000e+00  3.8860690564230111e-05 -7.9884085244588904e-04 0.0000000000000000e+00  4.5153339177850470e-06 -8.2147369589514017e-06 0.0000000000000000e+00  3.9276641018551351e-05 -7.4133061264029570e-04 0.0000000000000000e+00  7.8383538005317151e-06 -2.0119773787310792e-05 0.0000000000000000e+00  3.9824687869775216e-05 -6.8324438678392429e-04 0.0000000000000000e+00  1.3625844228174492e-05 -4.9846694239697397e-05 0.0000000000000000e+00  1.7482924558164962e-05 -7.4601354888573579e-05 0.0000000000000000e+00  4.0039807101484022e-05 -6.2577554405322648e-04 0.0000000000000000e+00  2.5657571524933704e-05 -1.5697794519428578e-04 0.0000000000000000e+00  3.9493981572079622e-05 -5.1353690782157549e-04 0.0000000000000000e+00  2.0647518233061184e-05 -1.0287514772594875e-04 0.0000000000000000e+00  2.8789930536716344e-05 -1.9544740860720963e-04 0.0000000000000000e+00  3.8738364087381575e-05 -4.5922319501997898e-04 0.0000000000000000e+00  3.9928408015603266e-05 -5.6913262073490724e-04 0.0000000000000000e+00  3.1337710016571865e-05 -2.3782158137009306e-04 0.0000000000000000e+00  3.7658478295662974e-05 -4.0645897508298566e-04 0.0000000000000000e+00  3.3075170902090762e-05 -2.8110552979779285e-04 0.0000000000000000e+00  3.6728137290194754e-05 -3.5658989053307917e-04 0.0000000000000000e+00  3.4890870584632263e-05 -3.1674178008101703e-04 0.0000000000000000e+00  2.3444778556233373e-05 -1.2780607776919199e-04 0.0000000000000000e+00  3.7336504474609659e-05 -8.4653616214705929e-04 0.0000000000000000e+00  1.0748881721923477e-05 -3.3119597251914536e-05 0.0000000000000000e+00  2.2273257739283324e-05 -9.1800349726253586e-04 0.0000000000000000e+00  1.0375028177846292e-06 -2.3135448537040817e-06 0.0000000000000000e+00  2.8309248078344813e-05 -7.1138023039365571e-04 0.0000000000000000e+00  2.7505353344056093e-05 -7.6975699452939278e-04 0.0000000000000000e+00  9.1962984796470227e-06 -1.5724351611011371e-05 0.0000000000000000e+00  2.0501245994843889e-05 -6.3075153658988801e-05 0.0000000000000000e+00  2.8962279042763846e-05 -5.4020512496698130e-04 0.0000000000000000e+00  2.8815416135526416e-05 -6.5352888953859167e-04 0.0000000000000000e+00  3.4988159694850969e-05 -1.7690224366442343e-04 0.0000000000000000e+00  2.8621378697667012e-05 -4.8517176259582932e-04 0.0000000000000000e+00  2.4996332502538089e-05 -9.0484653249899184e-05 0.0000000000000000e+00  3.8301636365734418e-05 -2.1768032833444258e-04 0.0000000000000000e+00  2.8004925834018034e-05 -4.3155292647845670e-04 0.0000000000000000e+00  2.9028833530899112e-05 -5.9639713599928933e-04 0.0000000000000000e+00  4.3149486916920598e-05 -2.6150319144466368e-04 0.0000000000000000e+00  2.7114070604773535e-05 -3.7961861719474309e-04 0.0000000000000000e+00  1.6818600483365013e-07 -1.3415919309076618e-06 0.0000000000000000e+00  -4.2410436190493579e-07 7.6560497096388639e-07 0.0000000000000000e+00  4.3250284807126804e-05 -9.7088395257444323e-04 0.0000000000000000e+00  4.5799726828521761e-06 -6.2526261708697435e-06 0.00000000