<?xml version="1.0"?>
<VTKFile type="UnstructuredGrid"  version="0.1"  >
<UnstructuredGrid>
<Piece  NumberOfPoints="1419" NumberOfCells="2698">
<Points>
<DataArray  type="Float64"  NumberOfComponents="3"  format="ascii">0 0 0  0 0.41 0  2.5 0 0  2.5 0.41 0  0.6 0.19 0  0.6 0.21 0  0.25 0.2 0  0.15 0.2 0  0.2489897948556636 0.21 0  0.2489897948556636 0.19 0  0.6 0.2 0  0 0.3807142857143437 0  0 0.3514285714286952 0  0 0.3221428571430699 0  0 0.29285714285744 0  0 0.2635714285718054 0  0 0.2342857142861561 0  0 0.2050000000005308 0  0 0.175714285714732 0  0 0.1464285714289574 0  0 0.1171428571431897 0  0 0.08785714285737878 0  0 0.05857142857161107 0  0 0.02928571428580012 0  0.03015443760436003 0 0  0.06140001986583606 0 0  0.09377624077125973 0 0  0.1273239957535082 0 0  0.1620856860351972 0 0  0.1981052433264291 0 0  0.235428184091502 0 0  0.2741016576309132 0 0  0.3141745521465447 0 0  0.3556974926295285 0 0  0.3987229542472677 0 0  0.4433053055141081 0 0  0.4895008759286886 0 0  0.5373680609405097 0 0  0.5869673343216626 0 0  0.6383613676634521 0 0  0.6916151138468254 0 0  0.7467958595648856 0 0  0.8039733463919316 0 0  0.8632198139502143 0 0  0.9246101326867038 0 0  0.9882218810934433 0 0  1.054135445558498 0 0  1.122434100542598 0 0  1.193204177141305 0 0  1.266535089879536 0 0  1.342519516046404 0 0  1.421253448503939 0 0  1.502836389106271 0 0  1.587371439758838 0 0  1.674965418777374 0 0  1.765729001825544 0 0  1.859776908880082 0 0  1.957227977487062 0 0  2.058205329869943 0 0  2.162836591189951 0 0  2.271253957290865 0 0  2.383594446803425 0 0  2.5 0.1024999999997612 0  2.5 0.2049999999994743 0  2.5 0.3074999999997183 0  2.383594446803656 0.41 0  2.271253957291315 0.41 0  2.162836591190598 0.41 0  2.058205329870775 0.41 0  1.957227977488067 0.41 0  1.859776908881246 0.41 0  1.765729001826854 0.41 0  1.674965418778818 0.41 0  1.58737143976041 0.41 0  1.502836389107956 0.41 0  1.421253448505726 0.41 0  1.342519516048286 0.41 0  1.266535089881505 0.41 0  1.193204177143353 0.41 0  1.122434100544716 0.41 0  1.05413544556068 0.41 0  0.9882218810956305 0.41 0  0.9246101326886647 0.41 0  0.8632198139519631 0.41 0  0.8039733463934788 0.41 0  0.7467958595662458 0.41 0  0.6916151138480078 0.41 0  0.6383613676644679 0.41 0  0.5869673343225223 0.41 0  0.5373680609412221 0.41 0  0.4895008759292634 0.41 0  0.4433053055145528 0.41 0  0.3987229542475914 0.41 0  0.3556974926297398 0.41 0  0.3141745521466497 0.41 0  0.2741016576310038 0.41 0  0.2354281840915826 0.41 0  0.1981052433265003 0.41 0  0.1620856860352591 0.41 0  0.1273239957535623 0.41 0  0.09377624077128965 0.41 0  0.06140001986584975 0.41 0  0.03015443760436654 0.41 0  0.2497468076502589 0.2050254481002335 0  0.2497468076502614 0.1949745518997913 0  0.2469965252529372 0.1829317073451959 0  0.2439893735792749 0.1762316384219906 0  0.2400332147834255 0.1700443375285386 0  0.2352133972704371 0.1645032867342007 0  0.2296339016332438 0.1597280261969788 0  0.2234150974217223 0.1558215752574715 0  0.2166911463437691 0.1528682099456123 0  0.2096071079204251 0.1509316448471593 0  0.2023158100364996 0.1500536585536553 0  0.194974551899914 0.1502531923497262 0  0.1877417105387872 0.1515259415822739 0  0.1807733240461124 0.153844448527136 0  0.1742197252835808 0.15715869474974 0  0.1682222986673531 0.1613971801805478 0  0.162910430003803 0.1664684656256651 0  0.1583987151779087 0.1722631454351573 0  0.1547844879126891 0.178656207771761 0  0.1521457199348551 0.1855097315605723 0  0.1505393388476355 0.1926758619366523 0  0.1505393388476328 0.2073241380633295 0  0.1521457199348437 0.2144902684393899 0  0.1547844879126531 0.221343792228163 0  0.1583987151778488 0.2277368545647528 0  0.1629104300036858 0.2335315343742052 0  0.1682222986671726 0.2386028198193036 0  0.1742197252833576 0.2428413052501257 0  0.1807733240458683 0.2461555514727623 0  0.1877417105384929 0.2484740584176516 0  0.1949745518995776 0.2497468076502398 0  0.202315810036185 0.2499463414463592 0  0.2096071079201568 0.2490683551528932 0  0.2166911463435495 0.2471317900544655 0  0.2234150974215506 0.2441784247426195 0  0.2296339016331197 0.2402719738031125 0  0.2352133972703547 0.2354967132658811 0  0.2400332147833751 0.2299556624715287 0  0.2439893735792577 0.2237683615780412 0  0.246996525252926 0.2170682926548348 0  0.25645809709277 0.21 0  0.2639263993298655 0.21 0  0.271394701566961 0.21 0  0.2788630038040554 0.21 0  0.2863313060411479 0.21 0  0.2937996082782405 0.21 0  0.301267910515333 0.21 0  0.3087362127524279 0.21 0  0.3162045149895234 0.21 0  0.3236728172265972 0.21 0  0.3311411194636928 0.21 0  0.3386094217007701 0.21 0  0.3460777239378666 0.21 0  0.3535460261749672 0.21 0  0.3610143284120516 0.21 0  0.3684826306491596 0.21 0  0.3759509328862226 0.21 0  0.383419235123329 0.21 0  0.3908875373604028 0.21 0  0.3983558395975142 0.21 0  0.4058241418345938 0.21 0  0.4132924440716992 0.21 0  0.4207607463087888 0.21 0  0.4282290485459029 0.21 0  0.4356973507830418 0.21 0  0.4431656530201649 0.21 0  0.4506339552573136 0.21 0  0.4581022574944306 0.21 0  0.4655705597315852 0.21 0  0.4730388619686996 0.21 0  0.480507164205851 0.21 0  0.4879754664429498 0.21 0  0.4954437686800938 0.21 0  0.502912070917267 0.21 0  0.5103803731544119 0.21 0  0.5178486753915261 0.21 0  0.5253169776286404 0.21 0  0.5327852798657868 0.21 0  0.5402535821029386 0.21 0  0.54772188434007 0.21 0  0.5551901865771842 0.21 0  0.5626584888143201 0.21 0  0.5701267910514778 0.21 0  0.5775950932886138 0.21 0  0.5850633955257281 0.21 0  0.5925316977628483 0.21 0  0.6 0.2050000000000054 0  0.6 0.1950000000000217 0  0.5925316977628897 0.19 0  0.5850633955257988 0.19 0  0.5775950932887378 0.19 0  0.5701267910515998 0.19 0  0.5626584888145268 0.19 0  0.5551901865773963 0.19 0  0.547721884340339 0.19 0  0.5402535821032429 0.19 0  0.5327852798661811 0.19 0  0.5253169776290537 0.19 0  0.5178486753919799 0.19 0  0.5103803731549078 0.19 0  0.502912070917822 0.19 0  0.4954437686807294 0.19 0  0.4879754664436223 0.19 0  0.4805071642065402 0.19 0  0.4730388619694271 0.19 0  0.4655705597323621 0.19 0  0.4581022574952563 0.19 0  0.4506339552581777 0.19 0  0.4431656530210671 0.19 0  0.4356973507839815 0.19 0  0.4282290485468779 0.19 0  0.4207607463097617 0.19 0  0.4132924440726327 0.19 0  0.4058241418354857 0.19 0  0.3983558395983636 0.19 0  0.3908875373612097 0.19 0  0.3834192351240934 0.19 0  0.3759509328869369 0.19 0  0.3684826306498175 0.19 0  0.361014328412667 0.19 0  0.3535460261755617 0.19 0  0.3460777239384295 0.19 0  0.3386094217012945 0.19 0  0.3311411194641595 0.19 0  0.3236728172270245 0.19 0  0.3162045149898895 0.19 0  0.3087362127527544 0.19 0  0.3012679105156187 0.19 0  0.2937996082784807 0.19 0  0.2863313060413428 0.19 0  0.2788630038042048 0.19 0  0.2713947015670686 0.19 0  0.2639263993299336 0.19 0  0.2564580970927985 0.19 0  0.2607803159922026 0.2000727136295815 0  0.5887803774232762 0.2001272386983733 0  0.5745072403740523 0.2002044435018727 0  0.5511891430099709 0.2001122610077113 0  0.2751288526855082 0.20000000000002 0  0.5365194309847112 0.1999999999999436 0  0.2894621222999649 0.1998691686390484 0  0.5215828265105155 0.1999999999999228 0  0.3127789816668748 0.1998657885438805 0  0.3274069683451451 0.2000000000000796 0  0.5066462220363641 0.199999999999908 0  0.3650630746574081 0.199866017807523 0  0.476773013087985 0.1999999999998713 0  0.3417402379596385 0.1998691686391011 0  0.3796850840047755 0.200000000000134 0  0.4618364086138087 0.1999999999998546 0  0.4917096175621762 0.1999999999998808 0  0.3946216884789568 0.2000000000001512 0  0.446899804139621 0.1999999999998389 0  0.4089549580935208 0.1998691686391595 0  0.4322718174608562 0.200127451265745 0  0.4201487168029707 0.1999966199048527 0  0.3528922713220932 0.2000185703532356 0  0.5633122436674589 0.1999814296467508 0  0.3006558810093873 0.1999966199048318 0  0.5815926498168407 0.1966545283159175 0  0.2677053789419034 0.1964246479135325 0  0.5290511287476175 0.1970915826863981 0  0.5439877332217911 0.197091582686394 0  0.2825131256993216 0.2035478995978015 0  0.3199386661080599 0.202908417313604 0  0.4842413153250809 0.1970915826863873 0  0.5141145242734466 0.1970915826863843 0  0.3722167817676917 0.2029084173136195 0  0.4693047108508938 0.1970915826863783 0  0.3348752705822316 0.202908417313609 0  0.3871533862418661 0.2029084173136212 0  0.4543681063767183 0.1970915826863795 0  0.4991779197992749 0.1970915826863902 0  0.4020059614928624 0.203547899597858 0  0.4394315019025246 0.1970915826863714 0  0.2550657455369551 0.2034088125358657 0  0.2548908499171161 0.1966940311614271 0  0.5946539510196798 0.2024302972968126 0  0.267698176732111 0.2039977513680092 0  0.4261685417851465 0.196409292431739 0  0.3590076176283495 0.196411355804271 0  0.5571672426447437 0.2036011176410121 0  0.3066757059912147 0.1964092924317024 0  0.594380730180568 0.1966558399668133 0  0.4842413153245942 0.2040749161535287 0  0.4693047108503577 0.2040749161535231 0  0.3871533862424271 0.1959250838464788 0  0.372246743208829 0.1959123236376545 0  0.5141145242731028 0.2040749161535395 0  0.4543681063761134 0.2040749161535186 0  0.4019979587101454 0.1959834479682427 0  0.4394608940728603 0.2040870543693135 0  0.5439623148931173 0.2040856076781014 0  0.5290511287473298 0.2040749161535501 0  0.4991779197988497 0.2040749161535382 0  0.3347912413592433 0.1959225448935183 0  0.3199680582793816 0.1959123018030061 0  0.2825051229162361 0.1959834479681729 0  0.3590471196690275 0.2036304442587945 0  0.5571594006495384 0.1963685282145804 0  0.3067669986803285 0.203627750582736 0  0.4262598344738712 0.2036568242185335 0  0.5814408164431408 0.2041285596160068 0  0.5688286748170428 0.1961819304477386 0  0.4145905603063645 0.2038180695522843 0  0.3473758401724931 0.2038180695522752 0  0.2950977245128307 0.2038180695522663 0  0.5688286748170693 0.203818069552238 0  0.2950977245127906 0.1961819304477774 0  0.3473758401723931 0.1961819304478349 0  0.4145905603061963 0.1961819304479011 0  0.2601812407614425 0.2056861609747042
[...]
<PointData  Vectors="f_40-0"> 
<DataArray  type="Float64"  Name="f_40-0"  NumberOfComponents="3" format="ascii">0.0000000000000000e+00 0.0000000000000000e+00 0.0000000000000000e+00  0.0000000000000000e+00 0.0000000000000000e+00 0.0000000000000000e+00  0.0000000000000000e+00 0.0000000000000000e+00 0.0000000000000000e+00  0.0000000000000000e+00 0.0000000000000000e+00 0.0000000000000000e+00  -9.3109163638514945e-06 -4.2452017016695839e-04 0.0000000000000000e+00  2.4765793747305108e-05 -4.3016835576281578e-04 0.0000000000000000e+00  0.0000000000000000e+00 0.0000000000000000e+00 0.0000000000000000e+00  0.0000000000000000e+00 0.0000000000000000e+00 0.0000000000000000e+00  0.0000000000000000e+00 0.0000000000000000e+00 0.0000000000000000e+00  0.0000000000000000e+00 0.0000000000000000e+00 0.0000000000000000e+00  7.1291377839797795e-06 -4.2734385412684505e-04 0.0000000000000000e+00  6.2656358124472331e-02 0.0000000000000000e+00 0.0000000000000000e+00  1.1567327653749505e-01 0.0000000000000000e+00 0.0000000000000000e+00  1.5905075523905574e-01 0.0000000000000000e+00 0.0000000000000000e+00  1.9278879422920459e-01 0.0000000000000000e+00 0.0000000000000000e+00  2.1688739350793718e-01 0.0000000000000000e+00 0.0000000000000000e+00  2.3134655307525220e-01 0.0000000000000000e+00 0.0000000000000000e+00  2.3616627293113510e-01 0.0000000000000000e+00 0.0000000000000000e+00  2.3134655307554450e-01 0.0000000000000000e+00 0.0000000000000000e+00  2.1688739350843933e-01 0.0000000000000000e+00 0.0000000000000000e+00  1.9278879422982645e-01 0.0000000000000000e+00 0.0000000000000000e+00  1.5905075523964649e-01 0.0000000000000000e+00 0.0000000000000000e+00  1.1567327653799916e-01 0.0000000000000000e+00 0.0000000000000000e+00  6.2656358124756381e-02 0.0000000000000000e+00 0.0000000000000000e+00  0.0000000000000000e+00 0.0000000000000000e+00 0.0000000000000000e+00  0.0000000000000000e+00 0.0000000000000000e+00 0.0000000000000000e+00  0.0000000000000000e+00 0.0000000000000000e+00 0.0000000000000000e+00  0.0000000000000000e+00 0.0000000000000000e+00 0.0000000000000000e+00  0.0000000000000000e+00 0.0000000000000000e+00 0.0000000000000000e+00  0.0000000000000000e+00 0.0000000000000000e+00 0.0000000000000000e+00  0.0000000000000000e+00 0.0000000000000000e+00 0.0000000000000000e+00  0.0000000000000000e+00 0.0000000000000000e+00 0.0000000000000000e+00  0.0000000000000000e+00 0.0000000000000000e+00 0.0000000000000000e+00  0.0000000000000000e+00 0.0000000000000000e+00 0.0000000000000000e+00  0.0000000000000000e+00 0.0000000000000000e+00 0.0000000000000000e+00  0.0000000000000000e+00 0.0000000000000000e+00 0.0000000000000000e+00  0.0000000000000000e+00 0.0000000000000000e+00 0.0000000000000000e+00  0.0000000000000000e+00 0.0000000000000000e+00 0.0000000000000000e+00  0.0000000000000000e+00 0.0000000000000000e+00 0.0000000000000000e+00  0.0000000000000000e+00 0.0000000000000000e+00 0.0000000000000000e+00  0.0000000000000000e+00 0.0000000000000000e+00 0.0000000000000000e+00  0.0000000000000000e+00 0.0000000000000000e+00 0.0000000000000000e+00  0.0000000000000000e+00 0.0000000000000000e+00 0.0000000000000000e+00  0.0000000000000000e+00 0.0000000000000000e+00 0.0000000000000000e+00  0.0000000000000000e+00 0.0000000000000000e+00 0.0000000000000000e+00  0.0000000000000000e+00 0.0000000000000000e+00 0.0000000000000000e+00  0.0000000000000000e+00 0.0000000000000000e+00 0.0000000000000000e+00  0.0000000000000000e+00 0.0000000000000000e+00 0.0000000000000000e+00  0.0000000000000000e+00 0.0000000000000000e+00 0.0000000000000000e+00  0.0000000000000000e+00 0.0000000000000000e+00 0.0000000000000000e+00  0.0000000000000000e+00 0.0000000000000000e+00 0.0000000000000000e+00  0.0000000000000000e+00 0.0000000000000000e+00 0.0000000000000000e+00  0.0000000000000000e+00 0.0000000000000000e+00 0.0000000000000000e+00  0.0000000000000000e+00 0.0000000000000000e+00 0.0000000000000000e+00  0.0000000000000000e+00 0.0000000000000000e+00 0.0000000000000000e+00  0.0000000000000000e+00 0.0000000000000000e+00 0.0000000000000000e+00  0.0000000000000000e+00 0.0000000000000000e+00 0.0000000000000000e+00  0.0000000000000000e+00 0.0000000000000000e+00 0.0000000000000000e+00  0.0000000000000000e+00 0.0000000000000000e+00 0.0000000000000000e+00  0.0000000000000000e+00 0.0000000000000000e+00 0.0000000000000000e+00  0.0000000000000000e+00 0.0000000000000000e+00 0.0000000000000000e+00  0.0000000000000000e+00 0.0000000000000000e+00 0.0000000000000000e+00  2.2555437916145429e-01 9.0419379658777319e-03 0.0000000000000000e+00  1.5922128447285760e-01 -1.9220102998780905e-03 0.0000000000000000e+00  2.2740545031334503e-01 -8.3975260455651565e-03 0.0000000000000000e+00  0.0000000000000000e+00 0.0000000000000000e+00 0.0000000000000000e+00  0.0000000000000000e+00 0.0000000000000000e+00 0.0000000000000000e+00  0.0000000000000000e+00 0.0000000000000000e+00 0.0000000000000000e+00  0.0000000000000000e+00 0.0000000000000000e+00 0.0000000000000000e+00  0.0000000000000000e+00 0.0000000000000000e+00 0.0000000000000000e+00  0.0000000000000000e+00 0.0000000000000000e+00 0.0000000000000000e+00  0.0000000000000000e+00 0.0000000000000000e+00 0.0000000000000000e+00  0.0000000000000000e+00 0.0000000000000000e+00 0.0000000000000000e+00  0.0000000000000000e+00 0.0000000000000000e+00 0.0000000000000000e+00  0.0000000000000000e+00 0.0000000000000000e+00 0.0000000000000000e+00  0.0000000000000000e+00 0.0000000000000000e+00 0.0000000000000000e+00  0.0000000000000000e+00 0.0000000000000000e+00 0.0000000000000000e+00  0.0000000000000000e+00 0.0000000000000000e+00 0.0000000000000000e+00  0.0000000000000000e+00 0.0000000000000000e+00 0.0000000000000000e+00  0.0000000000000000e+00 0.0000000000000000e+00 0.0000000000000000e+00  0.0000000000000000e+00 0.0000000000000000e+00 0.0000000000000000e+00  0.0000000000000000e+00 0.0000000000000000e+00 0.0000000000000000e+00  0.0000000000000000e+00 0.0000000000000000e+00 0.0000000000000000e+00  0.0000000000000000e+00 0.0000000000000000e+00 0.0000000000000000e+00  0.0000000000000000e+00 0.0000000000000000e+00 0.0000000000000000e+00  0.0000000000000000e+00 0.0000000000000000e+00 0.0000000000000000e+00  0.0000000000000000e+00 0.0000000000000000e+00 0.0000000000000000e+00  0.0000000000000000e+00 0.0000000000000000e+00 0.0000000000000000e+00  0.0000000000000000e+00 0.0000000000000000e+00 0.0000000000000000e+00  0.0000000000000000e+00 0.0000000000000000e+00 0.0000000000000000e+00  0.0000000000000000e+00 0.0000000000000000e+00 0.0000000000000000e+00  0.0000000000000000e+00 0.0000000000000000e+00 0.0000000000000000e+00  0.0000000000000000e+00 0.0000000000000000e+00 0.0000000000000000e+00  0.0000000000000000e+00 0.0000000000000000e+00 0.0000000000000000e+00  0.0000000000000000e+00 0.0000000000000000e+00 0.0000000000000000e+00  0.0000000000000000e+00 0.0000000000000000e+00 0.0000000000000000e+00  0.0000000000000000e+00 0.0000000000000000e+00 0.0000000000000000e+00  0.0000000000000000e+00 0.0000000000000000e+00 0.0000000000000000e+00  0.0000000000000000e+00 0.0000000000000000e+00 0.0000000000000000e+00  0.0000000000000000e+00 0.0000000000000000e+00 0.0000000000000000e+00  0.0000000000000000e+00 0.0000000000000000e+00 0.0000000000000000e+00  0.0000000000000000e+00 0.0000000000000000e+00 0.0000000000000000e+00  0.0000000000000000e+00 0.0000000000000000e+00 0.0000000000000000e+00  0.0000000000000000e+00 0.0000000000000000e+00 0.0000000000000000e+00  0.0000000000000000e+00 0.0000000000000000e+00 0.0000000000000000e+00  0.0000000000000000e+00 0.0000000000000000e+00 0.0000000000000000e+00  0.0000000000000000e+00 0.0000000000000000e+00 0.0000000000000000e+00  0.0000000000000000e+00 0.0000000000000000e+00 0.0000000000000000e+00  0.0000000000000000e+00 0.0000000000000000e+00 0.0000000000000000e+00  0.0000000000000000e+00 0.0000000000000000e+00 0.0000000000000000e+00  0.0000000000000000e+00 0.0000000000000000e+00 0.0000000000000000e+00  0.0000000000000000e+00 0.0000000000000000e+00 0.0000000000000000e+00  0.0000000000000000e+00 0.0000000000000000e+00 0.0000000000000000e+00  0.0000000000000000e+00 0.0000000000000000e+00 0.0000000000000000e+00  0.0000000000000000e+00 0.0000000000000000e+00 0.0000000000000000e+00  0.0000000000000000e+00 0.0000000000000000e+00 0.0000000000000000e+00  0.0000000000000000e+00 0.0000000000000000e+00 0.0000000000000000e+00  0.0000000000000000e+00 0.0000000000000000e+00 0.0000000000000000e+00  0.0000000000000000e+00 0.0000000000000000e+00 0.0000000000000000e+00  0.0000000000000000e+00 0.0000000000000000e+00 0.0000000000000000e+00  0.0000000000000000e+00 0.0000000000000000e+00 0.0000000000000000e+00  0.0000000000000000e+00 0.0000000000000000e+00 0.0000000000000000e+00  0.0000000000000000e+00 0.0000000000000000e+00 0.0000000000000000e+00  0.0000000000000000e+00 0.0000000000000000e+00 0.0000000000000000e+00  0.0000000000000000e+00 0.0000000000000000e+00 0.0000000000000000e+00  0.0000000000000000e+00 0.0000000000000000e+00 0.0000000000000000e+00  0.0000000000000000e+00 0.0000000000000000e+00 0.0000000000000000e+00  0.0000000000000000e+00 0.0000000000000000e+00 0.0000000000000000e+00  0.0000000000000000e+00 0.0000000000000000e+00 0.0000000000000000e+00  0.0000000000000000e+00 0.0000000000000000e+00 0.0000000000000000e+00  0.0000000000000000e+00 0.0000000000000000e+00 0.0000000000000000e+00  0.0000000000000000e+00 0.0000000000000000e+00 0.0000000000000000e+00  0.0000000000000000e+00 0.0000000000000000e+00 0.0000000000000000e+00  0.0000000000000000e+00 0.0000000000000000e+00 0.0000000000000000e+00  0.0000000000000000e+00 0.0000000000000000e+00 0.0000000000000000e+00  0.0000000000000000e+00 0.0000000000000000e+00 0.0000000000000000e+00  0.0000000000000000e+00 0.0000000000000000e+00 0.0000000000000000e+00  0.0000000000000000e+00 0.0000000000000000e+00 0.0000000000000000e+00  0.0000000000000000e+00 0.0000000000000000e+00 0.0000000000000000e+00  0.0000000000000000e+00 0.0000000000000000e+00 0.0000000000000000e+00  0.0000000000000000e+00 0.0000000000000000e+00 0.0000000000000000e+00  0.0000000000000000e+00 0.0000000000000000e+00 0.0000000000000000e+00  0.0000000000000000e+00 0.0000000000000000e+00 0.0000000000000000e+00  1.5520317785978174e-06 -6.1370405812713932e-06 0.0000000000000000e+00  3.4310207707097480e-06 -7.4813986194973822e-06 0.0000000000000000e+00  5.5268482133496565e-06 -9.1292330464378843e-06 0.0000000000000000e+00  7.8351933216782038e-06 -1.1250271678458997e-05 0.0000000000000000e+00  1.0026923433215758e-05 -1.3924182661415013e-05 0.0000000000000000e+00  1.2279072775551338e-05 -1.7266485864422050e-05 0.0000000000000000e+00  1.4321841047593935e-05 -2.1063862656248780e-05 0.0000000000000000e+00  1.6277993217371968e-05 -2.5482612232100372e-05 0.0000000000000000e+00  1.8299481595791423e-05 -3.0383827660151701e-05 0.0000000000000000e+00  2.0054736687662324e-05 -3.5766742536274908e-05 0.0000000000000000e+00  2.1892551652158232e-05 -4.1683266272038185e-05 0.0000000000000000e+00  2.3470220034177189e-05 -4.8027062804313229e-05 0.0000000000000000e+00  2.5082569539088611e-05 -5.4844449195451870e-05 0.0000000000000000e+00  2.6499666359808375e-05 -6.2036450593508645e-05 0.0000000000000000e+00  2.7821818445529990e-05 -6.9677291385448516e-05 0.0000000000000000e+00  2.9167554951396225e-05 -7.7688240507090689e-05 0.0000000000000000e+00  3.0287695730083584e-05 -8.6027837333971997e-05 0.0000000000000000e+00  3.1434833184620659e-05 -9.4771978008569913e-05 0.0000000000000000e+00  3.2370770276051286e-05 -1.0378834095708741e-04 0.0000000000000000e+00  3.3320581259339529e-05 -1.1315772869755599e-04 0.0000000000000000e+00  3.4097150104422377e-05 -1.2277875832719635e-04 0.0000000000000000e+00  3.4838929917980449e-05 -1.3271803761213236e-04 0.0000000000000000e+00  3.5443239828981462e-05 -1.4287638369904154e-04 0.0000000000000000e+00  3.5955635247550503e-05 -1.5330451568001306e-04 0.0000000000000000e+00  3.6449992796715588e-05 -1.6395045467449193e-04 0.0000000000000000e+00  3.6801639416191987e-05 -1.7479089010327001e-04 0.0000000000000000e+00  3.7080220058448783e-05 -1.8588679629184978e-04 0.0000000000000000e+00  3.7257303124784231e-05 -1.9711076607299824e-04 0.0000000000000000e+00  3.7359011381887863e-05 -2.0855973919860359e-04 0.0000000000000000e+00  3.7361475263036910e-05 -2.2011863661043315e-04 0.0000000000000000e+00  3.7289918815304258e-05 -2.3186865022917496e-04 0.0000000000000000e+00  3.7117707803310507e-05 -2.4370027472809437e-04 0.0000000000000000e+00  3.6875246167495075e-05 -2.5569917647003305e-04 0.0000000000000000e+00  3.6530961357488995e-05 -2.6774885518094450e-04 0.0000000000000000e+00  3.6106035058591246e-05 -2.7995174710795142e-04 0.0000000000000000e+00  3.5591443517519577e-05 -2.9218375150321790e-04 0.0000000000000000e+00  3.4999683838716456e-05 -3.0453549374242047e-04 0.0000000000000000e+00  3.4317958200691952e-05 -3.1689963593526337e-04 0.0000000000000000e+00  3.3555773068407988e-05 -3.2936278313234861e-04 0.0000000000000000e+00  3.2701145762932748e-05 -3.4182354933488281e-04 0.0000000000000000e+00  3.1759789129618278e-05 -3.5435023078536371e-04 0.0000000000000000e+00  3.0742448450951014e-05 -3.6688125304202787e-04 0.0000000000000000e+00  2.9630887261206234e-05 -3.7944833401899075e-04 0.0000000000000000e+00  2.8471076457805164e-05 -3.9202078560081111e-04 0.0000000000000000e+00  2.7211375958506501e-05 -4.0457343073493766e-04 0.0000000000000000e+00  2.5925512446548625e-05 -4.1720375380500686e-04 0.0000000000000000e+00  1.5742956279501053e-05 -4.2873744519573742e-04 0.0000000000000000e+00  -1.2623721906831474e-06 -4.2595276513532717e-04 0.0000000000000000e+00  -8.1027592460197650e-06 -4.1205762346105266e-04 0.0000000000000000e+00  -6.7766956093337669e-06 -3.9927277745631286e-04 0.0000000000000000e+00  -5.4739469318530887e-06 -3.8645330425328764e-04 0.0000000000000000e+00  -4.2558166125034159e-06 -3.7368420861872933e-04 0.0000000000000000e+00  -3.0853974418709431e-06 -3.6093415095227107e-04 0.0000000000000000e+00  -2.0012149443554646e-06 -3.4821328443075661e-04 0.0000000000000000e+00  -9.6151467927369648e-07 -3.3552845156602121e-04 0.0000000000000000e+00  -8.8618835005462646e-09 -3.2285985271202034e-04 0.0000000000000000e+00  8.9879462281679075e-07 -3.1027298569273013e-04 0.0000000000000000e+00  1.7256762294023497e-06 -2.9769862115715387e-04 0.0000000000000000e+00  2.5161682018805516e-06 -2.8522436708816411e-04 0.0000000000000000e+00  3.2224159281330575e-06 -2.7278268283496121e-04 0.0000000000000000e+00  3.9014091366783139e-06 -2.6046354807709229e-04 0.0000000000000000e+00  4.4933673212312988e-06 -2.4820157516713720e-04 0.0000000000000000e+00  5.0681874540025272e-06 -2.3608559506741009e-04 0.0000000000000000e+00  5.5488476763113378e-06 -2.2405082852252245e-04 0.0000000000000000e+00  6.0237030117400667e-06 -2.1218261439119951e-04 0.0000000000000000e+00  6.3950563870582897e-06 -2.0041947330734508e-04 0.0000000000000000e+00  6.7694463001991626e-06 -1.8885439774231629e-04 0.0000000000000000e+00  7.0348206918691741e-06 -1.7742597135519240e-04 0.0000000000000000e+00  7.3172648279159016e-06 -1.6622249517854676e-04 0.0000000000000000e+00  7.4802288405544224e-06 -1.5518569898810325e-04 0.0000000000000000e+00  7.6554729669792567e-06 -1.4438906444860797e-04 0.0000000000000000e+00  7.7339140490062945e-06 -1.3379444857787557e-04 0.0000000000000000e+00  7.7468687430430048e-06 -1.2348316810954847e-04 0.0000000000000000e+00  7.7929340958639610e-06 -1.1339239026775919e-04 0.0000000000000000e+00  7.7317606218715372e-06 -1.0358182428857862e-04 0.0000000000000000e+00  7.6596951190225949e-06 -9.4093310331215879e-05 0.0000000000000000e+00  7.5068262948672514e-06 -8.4876380671737884e-05 0.0000000000000000e+00  7.3392453457976590e-06 -7.6024818566447876e-05 0.0000000000000000e+00  7.0916850039868477e-06 -6.7466925199469304e-05 0.0000000000000000e+00  6.8630406842161238e-06 -5.9348114535364972e-05 0.0000000000000000e+00  6.5172900958993732e-06 -5.1531596632761031e-05 0.0000000000000000e+00  6.1128179375309409e-06 -4.4198474315641870e-05 0.0000000000000000e+00  5.7798646682693604e-06 -3.7200417920041567e-05 0.0000000000000000e+00  5.3270716484259160e-06 -3.0686126443917623e-05 0.0000000000000000e+00  4.8776064537205617e-06 -2.4655438484331042e-05 0.0000000000000000e+00  4.3376366093693647e-06 -1.9071676855318332e-05 0.0000000000000000e+00  3.8454733771827873e-06 -1.4067338099884570e-05 0.0000000000000000e+00  3.2080628622790139e-06 -9.4983880789903515e-06 0.0000000000000000e+00  2.5138246987554132e-06 -5.5685487847043537e-06 0.0000000000000000e+00  1.9372174000410424e-06 -2.1087221129442499e-06 0.0000000000000000e+00  1.2224373034275327e-06 7.6161876637371034e-07 0.0000000000000000e+00  6.6255355934354556e-07 2.9960664714586175e-06 0.0000000000000000e+00  1.1965676696846081e-07 4.4288643940771353e-06 0.0000000000000000e+00  -6.7571294017085569e-09 4.9064304199565675e-06 0.0000000000000000e+00  2.8397683067647971e-07 -6.5433162901219822e-07 0.0000000000000000e+00  9.5731782223215660e-06 -4.0826796551102213e-04 0.0000000000000000e+00  1.2272484007222998e-05 -3.8403747924797908e-04 0.0000000000000000e+00  1.5536517354785777e-05 -3.4453566257394838e-04 0.0000000000000000e+00  3.7403776722882454e-06 -3.6827128426562253e-06 0.0000000000000000e+00  1.7113500187749106e-05 -3.1980947133764280e-04 0.0000000000000000e+00  6.4907790387223770e-06 -8.9028408669131137e-06 0.0000000000000000e+00  1.8632805699420765e-05 -2.9485697116100293e-04 0.0000000000000000e+00  1.0594482873330136e-05 -2.1974782294622487e-05 0.0000000000000000e+00  1.2970977833756541e-05 -3.2832016828584357e-05 0.0000000000000000e+00  1.9865004261311167e-05 -2.7016825819586556e-04 0.0000000000000000e+00  1.7563426730001115e-05 -6.8520731030129634e-05 0.0000000000000000e+00  2.1481495611336916e-05 -2.2194675842865532e-04 0.0000000000000000e+00  1.4864848027257688e-05 -4.5087703472612265e-05 0.0000000000000000e+00  1.9071747286813522e-05 -8.5164577700072743e-05 0.0000000000000000e+00  2.1871333912180960e-05 -1.9860822741579189e-04 0.0000000000000000e+00  2.0813754201812008e-05 -2.4583265289822656e-04 0.0000000000000000e+00  2.0203280573703295e-05 -1.0341775994494255e-04 0.0000000000000000e+00  2.1982733583379081e-05 -1.7593244469848199e-04 0.0000000000000000e+00  2.0862488915061300e-05 -1.2200408918045211e-04 0.0000000000000000e+00  2.2017034812143344e-05 -1.5453060452291876e-04 0.0000000000000000e+00  2.1471259823506031e-05 -1.3736534692200186e-04 0.0000000000000000e+00  1.6359629669928523e-05 -5.5945321170979975e-05 0.0000000000000000e+00  1.3599252329449071e-05 -3.6499745724311641e-04 0.0000000000000000e+00  8.5732755079085173e-06 -1.4678071152723335e-05 0.0000000000000000e+00  5.0222104998351101e-06 -3.9512294398526358e-04 0.0000000000000000e+00  1.3685080361338160e-06 3.7873768198023176e-07 0.0000000000000000e+00  1.3061958767818956e-05 -3.0633224600146159e-04 0.0000000000000000e+00  1.1360784610150085e-05 -3.3143399987045462e-04 0.0000000000000000e+00  6.4960080329601784e-06 -8.3147942258995948e-06 0.0000000000000000e+00  1.3957556878568951e-05 -2.8762067176564648e-05 0.0000000000000000e+00  1.6546459150820778e-05 -2.3271762867741066e-04 0.0000000000000000e+00  1.4490782319637753e-05 -2.8145467441474523e-04 0.0000000000000000e+00  2.1683454763903247e-05 -7.8029294980091048e-05 0.0000000000000000e+00  1.7183975751071316e-05 -2.0904685640620935e-04 0.0000000000000000e+00  1.6526909687909010e-05 -4.0674545776810909e-05 0.0000000000000000e+00  2.3204069674300035e-05 -9.5588219514833265e-05 0.0000000000000000e+00  1.7562971264946321e-05 -1.8598061938476646e-04 0.0000000000000000e+00  1.5650141662351921e-05 -2.5688412597209081e-04 0.0000000000000000e+00  2.5257377661185201e-05 -1.1461102452096846e-04 0.0000000000000000e+00  1.7686340806003471e-05 -1.6363595572415078e-04 0.0000000000000000e+00  -3.8596804763815337e-07 -1.4630584095285340e-06 0.0000000000000000e+00  -6.4688656047998600e-07 1.1042099205095243e-06 0.0000000000000000e+00  1.2337978956642342e-05 -4.1885712553080251e-04 0.0000000000000000e+00  2.9543236048768230e-06 -4.4012767393953087e-06 0.0000000000000000e+0