<?xml version="1.0"?>
<VTKFile type="UnstructuredGrid"  version="0.1"  >
<UnstructuredGrid>
<Piece  NumberOfPoints="1419" NumberOfCells="2698">
<Points>
<DataArray  type="Float64"  NumberOfComponents="3"  format="ascii">0 0 0  0 0.41 0  2.5 0 0  2.5 0.41 0  0.6 0.19 0  0.6 0.21 0  0.25 0.2 0  0.15 0.2 0  0.2489897948556636 0.21 0  0.2489897948556636 0.19 0  0.6 0.2 0  0 0.3807142857143437 0  0 0.3514285714286952 0  0 0.3221428571430699 0  0 0.29285714285744 0  0 0.2635714285718054 0  0 0.2342857142861561 0  0 0.2050000000005308 0  0 0.175714285714732 0  0 0.1464285714289574 0  0 0.1171428571431897 0  0 0.08785714285737878 0  0 0.05857142857161107 0  0 0.02928571428580012 0  0.03015443760436003 0 0  0.06140001986583606 0 0  0.09377624077125973 0 0  0.1273239957535082 0 0  0.1620856860351972 0 0  0.1981052433264291 0 0  0.235428184091502 0 0  0.2741016576309132 0 0  0.3141745521465447 0 0  0.3556974926295285 0 0  0.3987229542472677 0 0  0.4433053055141081 0 0  0.4895008759286886 0 0  0.5373680609405097 0 0  0.5869673343216626 0 0  0.6383613676634521 0 0  0.6916151138468254 0 0  0.7467958595648856 0 0  0.8039733463919316 0 0  0.8632198139502143 0 0  0.9246101326867038 0 0  0.9882218810934433 0 0  1.054135445558498 0 0  1.122434100542598 0 0  1.193204177141305 0 0  1.266535089879536 0 0  1.342519516046404 0 0  1.421253448503939 0 0  1.502836389106271 0 0  1.587371439758838 0 0  1.674965418777374 0 0  1.765729001825544 0 0  1.859776908880082 0 0  1.957227977487062 0 0  2.058205329869943 0 0  2.162836591189951 0 0  2.271253957290865 0 0  2.383594446803425 0 0  2.5 0.1024999999997612 0  2.5 0.2049999999994743 0  2.5 0.3074999999997183 0  2.383594446803656 0.41 0  2.271253957291315 0.41 0  2.162836591190598 0.41 0  2.058205329870775 0.41 0  1.957227977488067 0.41 0  1.859776908881246 0.41 0  1.765729001826854 0.41 0  1.674965418778818 0.41 0  1.58737143976041 0.41 0  1.502836389107956 0.41 0  1.421253448505726 0.41 0  1.342519516048286 0.41 0  1.266535089881505 0.41 0  1.193204177143353 0.41 0  1.122434100544716 0.41 0  1.05413544556068 0.41 0  0.9882218810956305 0.41 0  0.9246101326886647 0.41 0  0.8632198139519631 0.41 0  0.8039733463934788 0.41 0  0.7467958595662458 0.41 0  0.6916151138480078 0.41 0  0.6383613676644679 0.41 0  0.5869673343225223 0.41 0  0.5373680609412221 0.41 0  0.4895008759292634 0.41 0  0.4433053055145528 0.41 0  0.3987229542475914 0.41 0  0.3556974926297398 0.41 0  0.3141745521466497 0.41 0  0.2741016576310038 0.41 0  0.2354281840915826 0.41 0  0.1981052433265003 0.41 0  0.1620856860352591 0.41 0  0.1273239957535623 0.41 0  0.09377624077128965 0.41 0  0.06140001986584975 0.41 0  0.03015443760436654 0.41 0  0.2497468076502589 0.2050254481002335 0  0.2497468076502614 0.1949745518997913 0  0.2469965252529372 0.1829317073451959 0  0.2439893735792749 0.1762316384219906 0  0.2400332147834255 0.1700443375285386 0  0.2352133972704371 0.1645032867342007 0  0.2296339016332438 0.1597280261969788 0  0.2234150974217223 0.1558215752574715 0  0.2166911463437691 0.1528682099456123 0  0.2096071079204251 0.1509316448471593 0  0.2023158100364996 0.1500536585536553 0  0.194974551899914 0.1502531923497262 0  0.1877417105387872 0.1515259415822739 0  0.1807733240461124 0.153844448527136 0  0.1742197252835808 0.15715869474974 0  0.1682222986673531 0.1613971801805478 0  0.162910430003803 0.1664684656256651 0  0.1583987151779087 0.1722631454351573 0  0.1547844879126891 0.178656207771761 0  0.1521457199348551 0.1855097315605723 0  0.1505393388476355 0.1926758619366523 0  0.1505393388476328 0.2073241380633295 0  0.1521457199348437 0.2144902684393899 0  0.1547844879126531 0.221343792228163 0  0.1583987151778488 0.2277368545647528 0  0.1629104300036858 0.2335315343742052 0  0.1682222986671726 0.2386028198193036 0  0.1742197252833576 0.2428413052501257 0  0.1807733240458683 0.2461555514727623 0  0.1877417105384929 0.2484740584176516 0  0.1949745518995776 0.2497468076502398 0  0.202315810036185 0.2499463414463592 0  0.2096071079201568 0.2490683551528932 0  0.2166911463435495 0.2471317900544655 0  0.2234150974215506 0.2441784247426195 0  0.2296339016331197 0.2402719738031125 0  0.2352133972703547 0.2354967132658811 0  0.2400332147833751 0.2299556624715287 0  0.2439893735792577 0.2237683615780412 0  0.246996525252926 0.2170682926548348 0  0.25645809709277 0.21 0  0.2639263993298655 0.21 0  0.271394701566961 0.21 0  0.2788630038040554 0.21 0  0.2863313060411479 0.21 0  0.2937996082782405 0.21 0  0.301267910515333 0.21 0  0.3087362127524279 0.21 0  0.3162045149895234 0.21 0  0.3236728172265972 0.21 0  0.3311411194636928 0.21 0  0.3386094217007701 0.21 0  0.3460777239378666 0.21 0  0.3535460261749672 0.21 0  0.3610143284120516 0.21 0  0.3684826306491596 0.21 0  0.3759509328862226 0.21 0  0.383419235123329 0.21 0  0.3908875373604028 0.21 0  0.3983558395975142 0.21 0  0.4058241418345938 0.21 0  0.4132924440716992 0.21 0  0.4207607463087888 0.21 0  0.4282290485459029 0.21 0  0.4356973507830418 0.21 0  0.4431656530201649 0.21 0  0.4506339552573136 0.21 0  0.4581022574944306 0.21 0  0.4655705597315852 0.21 0  0.4730388619686996 0.21 0  0.480507164205851 0.21 0  0.4879754664429498 0.21 0  0.4954437686800938 0.21 0  0.502912070917267 0.21 0  0.5103803731544119 0.21 0  0.5178486753915261 0.21 0  0.5253169776286404 0.21 0  0.5327852798657868 0.21 0  0.5402535821029386 0.21 0  0.54772188434007 0.21 0  0.5551901865771842 0.21 0  0.5626584888143201 0.21 0  0.5701267910514778 0.21 0  0.5775950932886138 0.21 0  0.5850633955257281 0.21 0  0.5925316977628483 0.21 0  0.6 0.2050000000000054 0  0.6 0.1950000000000217 0  0.5925316977628897 0.19 0  0.5850633955257988 0.19 0  0.5775950932887378 0.19 0  0.5701267910515998 0.19 0  0.5626584888145268 0.19 0  0.5551901865773963 0.19 0  0.547721884340339 0.19 0  0.5402535821032429 0.19 0  0.5327852798661811 0.19 0  0.5253169776290537 0.19 0  0.5178486753919799 0.19 0  0.5103803731549078 0.19 0  0.502912070917822 0.19 0  0.4954437686807294 0.19 0  0.4879754664436223 0.19 0  0.4805071642065402 0.19 0  0.4730388619694271 0.19 0  0.4655705597323621 0.19 0  0.4581022574952563 0.19 0  0.4506339552581777 0.19 0  0.4431656530210671 0.19 0  0.4356973507839815 0.19 0  0.4282290485468779 0.19 0  0.4207607463097617 0.19 0  0.4132924440726327 0.19 0  0.4058241418354857 0.19 0  0.3983558395983636 0.19 0  0.3908875373612097 0.19 0  0.3834192351240934 0.19 0  0.3759509328869369 0.19 0  0.3684826306498175 0.19 0  0.361014328412667 0.19 0  0.3535460261755617 0.19 0  0.3460777239384295 0.19 0  0.3386094217012945 0.19 0  0.3311411194641595 0.19 0  0.3236728172270245 0.19 0  0.3162045149898895 0.19 0  0.3087362127527544 0.19 0  0.3012679105156187 0.19 0  0.2937996082784807 0.19 0  0.2863313060413428 0.19 0  0.2788630038042048 0.19 0  0.2713947015670686 0.19 0  0.2639263993299336 0.19 0  0.2564580970927985 0.19 0  0.2607803159922026 0.2000727136295815 0  0.5887803774232762 0.2001272386983733 0  0.5745072403740523 0.2002044435018727 0  0.5511891430099709 0.2001122610077113 0  0.2751288526855082 0.20000000000002 0  0.5365194309847112 0.1999999999999436 0  0.2894621222999649 0.1998691686390484 0  0.5215828265105155 0.1999999999999228 0  0.3127789816668748 0.1998657885438805 0  0.3274069683451451 0.2000000000000796 0  0.5066462220363641 0.199999999999908 0  0.3650630746574081 0.199866017807523 0  0.476773013087985 0.1999999999998713 0  0.3417402379596385 0.1998691686391011 0  0.3796850840047755 0.200000000000134 0  0.4618364086138087 0.1999999999998546 0  0.4917096175621762 0.1999999999998808 0  0.3946216884789568 0.2000000000001512 0  0.446899804139621 0.1999999999998389 0  0.4089549580935208 0.1998691686391595 0  0.4322718174608562 0.200127451265745 0  0.4201487168029707 0.1999966199048527 0  0.3528922713220932 0.2000185703532356 0  0.5633122436674589 0.1999814296467508 0  0.3006558810093873 0.1999966199048318 0  0.5815926498168407 0.1966545283159175 0  0.2677053789419034 0.1964246479135325 0  0.5290511287476175 0.1970915826863981 0  0.5439877332217911 0.197091582686394 0  0.2825131256993216 0.2035478995978015 0  0.3199386661080599 0.202908417313604 0  0.4842413153250809 0.1970915826863873 0  0.5141145242734466 0.1970915826863843 0  0.3722167817676917 0.2029084173136195 0  0.4693047108508938 0.1970915826863783 0  0.3348752705822316 0.202908417313609 0  0.3871533862418661 0.2029084173136212 0  0.4543681063767183 0.1970915826863795 0  0.4991779197992749 0.1970915826863902 0  0.4020059614928624 0.203547899597858 0  0.4394315019025246 0.1970915826863714 0  0.2550657455369551 0.2034088125358657 0  0.2548908499171161 0.1966940311614271 0  0.5946539510196798 0.2024302972968126 0  0.267698176732111 0.2039977513680092 0  0.4261685417851465 0.196409292431739 0  0.3590076176283495 0.196411355804271 0  0.5571672426447437 0.2036011176410121 0  0.3066757059912147 0.1964092924317024 0  0.594380730180568 0.1966558399668133 0  0.4842413153245942 0.2040749161535287 0  0.4693047108503577 0.2040749161535231 0  0.3871533862424271 0.1959250838464788 0  0.372246743208829 0.1959123236376545 0  0.5141145242731028 0.2040749161535395 0  0.4543681063761134 0.2040749161535186 0  0.4019979587101454 0.1959834479682427 0  0.4394608940728603 0.2040870543693135 0  0.5439623148931173 0.2040856076781014 0  0.5290511287473298 0.2040749161535501 0  0.4991779197988497 0.2040749161535382 0  0.3347912413592433 0.1959225448935183 0  0.3199680582793816 0.1959123018030061 0  0.2825051229162361 0.1959834479681729 0  0.3590471196690275 0.2036304442587945 0  0.5571594006495384 0.1963685282145804 0  0.3067669986803285 0.203627750582736 0  0.4262598344738712 0.2036568242185335 0  0.5814408164431408 0.2041285596160068 0  0.5688286748170428 0.1961819304477386 0  0.4145905603063645 0.2038180695522843 0  0.3473758401724931 0.2038180695522752 0  0.2950977245128307 0.2038180695522663 0  0.5688286748170693 0.203818069552238 0  0.2950977245127906 0.1961819304477774 0  0.3473758401723931 0.1961819304478349 0  0.4145905603061963 0.1961819304479011 0  0.2601812407614425 0.2056861609747042
[...]
<PointData  Vectors="f_40-0"> 
<DataArray  type="Float64"  Name="f_40-0"  NumberOfComponents="3" format="ascii">0.0000000000000000e+00 0.0000000000000000e+00 0.0000000000000000e+00  0.0000000000000000e+00 0.0000000000000000e+00 0.0000000000000000e+00  0.0000000000000000e+00 0.0000000000000000e+00 0.0000000000000000e+00  0.0000000000000000e+00 0.0000000000000000e+00 0.0000000000000000e+00  -2.2365201465258976e-05 -1.1307589607600131e-04 0.0000000000000000e+00  -1.3307565188425700e-05 -1.1924014704030523e-04 0.0000000000000000e+00  0.0000000000000000e+00 0.0000000000000000e+00 0.0000000000000000e+00  0.0000000000000000e+00 0.0000000000000000e+00 0.0000000000000000e+00  0.0000000000000000e+00 0.0000000000000000e+00 0.0000000000000000e+00  0.0000000000000000e+00 0.0000000000000000e+00 0.0000000000000000e+00  -1.8312765242619977e-05 -1.1616267717887248e-04 0.0000000000000000e+00  1.7850827011627587e-02 0.0000000000000000e+00 0.0000000000000000e+00  3.2955372944545425e-02 0.0000000000000000e+00 0.0000000000000000e+00  4.5313637798749966e-02 0.0000000000000000e+00 0.0000000000000000e+00  5.4925621574255519e-02 0.0000000000000000e+00 0.0000000000000000e+00  6.1791324271060828e-02 0.0000000000000000e+00 0.0000000000000000e+00  6.5910745889165512e-02 0.0000000000000000e+00 0.0000000000000000e+00  6.7283886428565420e-02 0.0000000000000000e+00 0.0000000000000000e+00  6.5910745889248792e-02 0.0000000000000000e+00 0.0000000000000000e+00  6.1791324271203894e-02 0.0000000000000000e+00 0.0000000000000000e+00  5.4925621574432697e-02 0.0000000000000000e+00 0.0000000000000000e+00  4.5313637798918276e-02 0.0000000000000000e+00 0.0000000000000000e+00  3.2955372944689046e-02 0.0000000000000000e+00 0.0000000000000000e+00  1.7850827011708509e-02 0.0000000000000000e+00 0.0000000000000000e+00  0.0000000000000000e+00 0.0000000000000000e+00 0.0000000000000000e+00  0.0000000000000000e+00 0.0000000000000000e+00 0.0000000000000000e+00  0.0000000000000000e+00 0.0000000000000000e+00 0.0000000000000000e+00  0.0000000000000000e+00 0.0000000000000000e+00 0.0000000000000000e+00  0.0000000000000000e+00 0.0000000000000000e+00 0.0000000000000000e+00  0.0000000000000000e+00 0.0000000000000000e+00 0.0000000000000000e+00  0.0000000000000000e+00 0.0000000000000000e+00 0.0000000000000000e+00  0.0000000000000000e+00 0.0000000000000000e+00 0.0000000000000000e+00  0.0000000000000000e+00 0.0000000000000000e+00 0.0000000000000000e+00  0.0000000000000000e+00 0.0000000000000000e+00 0.0000000000000000e+00  0.0000000000000000e+00 0.0000000000000000e+00 0.0000000000000000e+00  0.0000000000000000e+00 0.0000000000000000e+00 0.0000000000000000e+00  0.0000000000000000e+00 0.0000000000000000e+00 0.0000000000000000e+00  0.0000000000000000e+00 0.0000000000000000e+00 0.0000000000000000e+00  0.0000000000000000e+00 0.0000000000000000e+00 0.0000000000000000e+00  0.0000000000000000e+00 0.0000000000000000e+00 0.0000000000000000e+00  0.0000000000000000e+00 0.0000000000000000e+00 0.0000000000000000e+00  0.0000000000000000e+00 0.0000000000000000e+00 0.0000000000000000e+00  0.0000000000000000e+00 0.0000000000000000e+00 0.0000000000000000e+00  0.0000000000000000e+00 0.0000000000000000e+00 0.0000000000000000e+00  0.0000000000000000e+00 0.0000000000000000e+00 0.0000000000000000e+00  0.0000000000000000e+00 0.0000000000000000e+00 0.0000000000000000e+00  0.0000000000000000e+00 0.0000000000000000e+00 0.0000000000000000e+00  0.0000000000000000e+00 0.0000000000000000e+00 0.0000000000000000e+00  0.0000000000000000e+00 0.0000000000000000e+00 0.0000000000000000e+00  0.0000000000000000e+00 0.0000000000000000e+00 0.0000000000000000e+00  0.0000000000000000e+00 0.0000000000000000e+00 0.0000000000000000e+00  0.0000000000000000e+00 0.0000000000000000e+00 0.0000000000000000e+00  0.0000000000000000e+00 0.0000000000000000e+00 0.0000000000000000e+00  0.0000000000000000e+00 0.0000000000000000e+00 0.0000000000000000e+00  0.0000000000000000e+00 0.0000000000000000e+00 0.0000000000000000e+00  0.0000000000000000e+00 0.0000000000000000e+00 0.0000000000000000e+00  0.0000000000000000e+00 0.0000000000000000e+00 0.0000000000000000e+00  0.0000000000000000e+00 0.0000000000000000e+00 0.0000000000000000e+00  0.0000000000000000e+00 0.0000000000000000e+00 0.0000000000000000e+00  0.0000000000000000e+00 0.0000000000000000e+00 0.0000000000000000e+00  0.0000000000000000e+00 0.0000000000000000e+00 0.0000000000000000e+00  0.0000000000000000e+00 0.0000000000000000e+00 0.0000000000000000e+00  6.4232832509496657e-02 2.7892782090627854e-03 0.0000000000000000e+00  4.5404094651292727e-02 -5.1474793512999413e-04 0.0000000000000000e+00  6.4699850429180084e-02 -3.3290817124193841e-03 0.0000000000000000e+00  0.0000000000000000e+00 0.0000000000000000e+00 0.0000000000000000e+00  0.0000000000000000e+00 0.0000000000000000e+00 0.0000000000000000e+00  0.0000000000000000e+00 0.0000000000000000e+00 0.0000000000000000e+00  0.0000000000000000e+00 0.0000000000000000e+00 0.0000000000000000e+00  0.0000000000000000e+00 0.0000000000000000e+00 0.0000000000000000e+00  0.0000000000000000e+00 0.0000000000000000e+00 0.0000000000000000e+00  0.0000000000000000e+00 0.0000000000000000e+00 0.0000000000000000e+00  0.0000000000000000e+00 0.0000000000000000e+00 0.0000000000000000e+00  0.0000000000000000e+00 0.0000000000000000e+00 0.0000000000000000e+00  0.0000000000000000e+00 0.0000000000000000e+00 0.0000000000000000e+00  0.0000000000000000e+00 0.0000000000000000e+00 0.0000000000000000e+00  0.0000000000000000e+00 0.0000000000000000e+00 0.0000000000000000e+00  0.0000000000000000e+00 0.0000000000000000e+00 0.0000000000000000e+00  0.0000000000000000e+00 0.0000000000000000e+00 0.0000000000000000e+00  0.0000000000000000e+00 0.0000000000000000e+00 0.0000000000000000e+00  0.0000000000000000e+00 0.0000000000000000e+00 0.0000000000000000e+00  0.0000000000000000e+00 0.0000000000000000e+00 0.0000000000000000e+00  0.0000000000000000e+00 0.0000000000000000e+00 0.0000000000000000e+00  0.0000000000000000e+00 0.0000000000000000e+00 0.0000000000000000e+00  0.0000000000000000e+00 0.0000000000000000e+00 0.0000000000000000e+00  0.0000000000000000e+00 0.0000000000000000e+00 0.0000000000000000e+00  0.0000000000000000e+00 0.0000000000000000e+00 0.0000000000000000e+00  0.0000000000000000e+00 0.0000000000000000e+00 0.0000000000000000e+00  0.0000000000000000e+00 0.0000000000000000e+00 0.0000000000000000e+00  0.0000000000000000e+00 0.0000000000000000e+00 0.0000000000000000e+00  0.0000000000000000e+00 0.0000000000000000e+00 0.0000000000000000e+00  0.0000000000000000e+00 0.0000000000000000e+00 0.0000000000000000e+00  0.0000000000000000e+00 0.0000000000000000e+00 0.0000000000000000e+00  0.0000000000000000e+00 0.0000000000000000e+00 0.0000000000000000e+00  0.0000000000000000e+00 0.0000000000000000e+00 0.0000000000000000e+00  0.0000000000000000e+00 0.0000000000000000e+00 0.0000000000000000e+00  0.0000000000000000e+00 0.0000000000000000e+00 0.0000000000000000e+00  0.0000000000000000e+00 0.0000000000000000e+00 0.0000000000000000e+00  0.0000000000000000e+00 0.0000000000000000e+00 0.0000000000000000e+00  0.0000000000000000e+00 0.0000000000000000e+00 0.0000000000000000e+00  0.0000000000000000e+00 0.0000000000000000e+00 0.0000000000000000e+00  0.0000000000000000e+00 0.0000000000000000e+00 0.0000000000000000e+00  0.0000000000000000e+00 0.0000000000000000e+00 0.0000000000000000e+00  0.0000000000000000e+00 0.0000000000000000e+00 0.0000000000000000e+00  0.0000000000000000e+00 0.0000000000000000e+00 0.0000000000000000e+00  0.0000000000000000e+00 0.0000000000000000e+00 0.0000000000000000e+00  0.0000000000000000e+00 0.0000000000000000e+00 0.0000000000000000e+00  0.0000000000000000e+00 0.0000000000000000e+00 0.0000000000000000e+00  0.0000000000000000e+00 0.0000000000000000e+00 0.0000000000000000e+00  0.0000000000000000e+00 0.0000000000000000e+00 0.0000000000000000e+00  0.0000000000000000e+00 0.0000000000000000e+00 0.0000000000000000e+00  0.0000000000000000e+00 0.0000000000000000e+00 0.0000000000000000e+00  0.0000000000000000e+00 0.0000000000000000e+00 0.0000000000000000e+00  0.0000000000000000e+00 0.0000000000000000e+00 0.0000000000000000e+00  0.0000000000000000e+00 0.0000000000000000e+00 0.0000000000000000e+00  0.0000000000000000e+00 0.0000000000000000e+00 0.0000000000000000e+00  0.0000000000000000e+00 0.0000000000000000e+00 0.0000000000000000e+00  0.0000000000000000e+00 0.0000000000000000e+00 0.0000000000000000e+00  0.0000000000000000e+00 0.0000000000000000e+00 0.0000000000000000e+00  0.0000000000000000e+00 0.0000000000000000e+00 0.0000000000000000e+00  0.0000000000000000e+00 0.0000000000000000e+00 0.0000000000000000e+00  0.0000000000000000e+00 0.0000000000000000e+00 0.0000000000000000e+00  0.0000000000000000e+00 0.0000000000000000e+00 0.0000000000000000e+00  0.0000000000000000e+00 0.0000000000000000e+00 0.0000000000000000e+00  0.0000000000000000e+00 0.0000000000000000e+00 0.0000000000000000e+00  0.0000000000000000e+00 0.0000000000000000e+00 0.0000000000000000e+00  0.0000000000000000e+00 0.0000000000000000e+00 0.0000000000000000e+00  0.0000000000000000e+00 0.0000000000000000e+00 0.0000000000000000e+00  0.0000000000000000e+00 0.0000000000000000e+00 0.0000000000000000e+00  0.0000000000000000e+00 0.0000000000000000e+00 0.0000000000000000e+00  0.0000000000000000e+00 0.0000000000000000e+00 0.0000000000000000e+00  0.0000000000000000e+00 0.0000000000000000e+00 0.0000000000000000e+00  0.0000000000000000e+00 0.0000000000000000e+00 0.0000000000000000e+00  0.0000000000000000e+00 0.0000000000000000e+00 0.0000000000000000e+00  0.0000000000000000e+00 0.0000000000000000e+00 0.0000000000000000e+00  0.0000000000000000e+00 0.0000000000000000e+00 0.0000000000000000e+00  0.0000000000000000e+00 0.0000000000000000e+00 0.0000000000000000e+00  0.0000000000000000e+00 0.0000000000000000e+00 0.0000000000000000e+00  0.0000000000000000e+00 0.0000000000000000e+00 0.0000000000000000e+00  0.0000000000000000e+00 0.0000000000000000e+00 0.0000000000000000e+00  0.0000000000000000e+00 0.0000000000000000e+00 0.0000000000000000e+00  0.0000000000000000e+00 0.0000000000000000e+00 0.0000000000000000e+00  0.0000000000000000e+00 0.0000000000000000e+00 0.0000000000000000e+00  3.3457536143393850e-07 -5.5083852346659992e-06 0.0000000000000000e+00  8.6740470276727808e-07 -6.1996836756489631e-06 0.0000000000000000e+00  1.6372299796171882e-06 -6.7703417378880932e-06 0.0000000000000000e+00  2.5414681724997290e-06 -7.3707436211114401e-06 0.0000000000000000e+00  3.4237085408332843e-06 -8.1295590467976322e-06 0.0000000000000000e+00  4.2797275633210526e-06 -9.1202427446447492e-06 0.0000000000000000e+00  5.0496922959518878e-06 -1.0237427855049919e-05 0.0000000000000000e+00  5.7526165560528914e-06 -1.1531722385411226e-05 0.0000000000000000e+00  6.4462759511683140e-06 -1.2962261533020367e-05 0.0000000000000000e+00  7.0259447727828686e-06 -1.4514511199723372e-05 0.0000000000000000e+00  7.5925277944886469e-06 -1.6226562035953775e-05 0.0000000000000000e+00  8.0523676517726209e-06 -1.8032753719458977e-05 0.0000000000000000e+00  8.4788257476983096e-06 -1.9969774049706477e-05 0.0000000000000000e+00  8.8251177922200470e-06 -2.2005004227801903e-05 0.0000000000000000e+00  9.1013702743215762e-06 -2.4145006145170649e-05 0.0000000000000000e+00  9.3539932871475722e-06 -2.6387469478142495e-05 0.0000000000000000e+00  9.5062465000789734e-06 -2.8688546786599675e-05 0.0000000000000000e+00  9.6249315997507633e-06 -3.1112307123163045e-05 0.0000000000000000e+00  9.6534151075515028e-06 -3.3570973360853268e-05 0.0000000000000000e+00  9.6470520108312135e-06 -3.6138457545455637e-05 0.0000000000000000e+00  9.5586255959932055e-06 -3.8735071802188016e-05 0.0000000000000000e+00  9.4146799059025561e-06 -4.1416793393390792e-05 0.0000000000000000e+00  9.2112366944193799e-06 -4.4148293426035820e-05 0.0000000000000000e+00  8.9393308666676636e-06 -4.6927403457287544e-05 0.0000000000000000e+00  8.6319438710753409e-06 -4.9769517341956584e-05 0.0000000000000000e+00  8.2466762420587004e-06 -5.2626176097211629e-05 0.0000000000000000e+00  7.8000497049420732e-06 -5.5568491653173422e-05 0.0000000000000000e+00  7.2943113245899455e-06 -5.8506046174388916e-05 0.0000000000000000e+00  6.7279228504561587e-06 -6.1515326875316754e-05 0.0000000000000000e+00  6.1023552284770227e-06 -6.4524413037228776e-05 0.0000000000000000e+00  5.4198200088640540e-06 -6.7593596207196773e-05 0.0000000000000000e+00  4.6735603257573673e-06 -7.0656884760483799e-05 0.0000000000000000e+00  3.8757188314481120e-06 -7.3779855842380417e-05 0.0000000000000000e+00  3.0123715717073920e-06 -7.6884482422591639e-05 0.0000000000000000e+00  2.0878858813985712e-06 -8.0052546850719098e-05 0.0000000000000000e+00  1.1063315542434633e-06 -8.3202532705441872e-05 0.0000000000000000e+00  6.8314038462658347e-08 -8.6404374804591424e-05 0.0000000000000000e+00  -1.0296247817194072e-06 -8.9588845189375393e-05 0.0000000000000000e+00  -2.1874328103732635e-06 -9.2820918590376679e-05 0.0000000000000000e+00  -3.4092352677439275e-06 -9.6035201435849796e-05 0.0000000000000000e+00  -4.6951783112414808e-06 -9.9281634954774130e-05 0.0000000000000000e+00  -6.0324137212031364e-06 -1.0252429658940056e-04 0.0000000000000000e+00  -7.4400164470313817e-06 -1.0578578241339238e-04 0.0000000000000000e+00  -8.8819946532064971e-06 -1.0904777927888669e-04 0.0000000000000000e+00  -1.0392983011925963e-05 -1.1229790167560111e-04 0.0000000000000000e+00  -1.1910140846770534e-05 -1.1561979643773729e-04 0.0000000000000000e+00  -1.5975935201089243e-05 -1.1768754723326334e-04 0.0000000000000000e+00  -2.0475233281882557e-05 -1.1463859828903678e-04 0.0000000000000000e+00  -2.0930235021308304e-05 -1.0996323651771998e-04 0.0000000000000000e+00  -1.9385050791605156e-05 -1.0654354714380859e-04 0.0000000000000000e+00  -1.7846497867570438e-05 -1.0309232486524444e-04 0.0000000000000000e+00  -1.6373211182959697e-05 -9.9671986217666805e-05 0.0000000000000000e+00  -1.4937675228305059e-05 -9.6262250832750777e-05 0.0000000000000000e+00  -1.3574809050669725e-05 -9.2865539016249738e-05 0.0000000000000000e+00  -1.2254523303160253e-05 -8.9485358911872703e-05 0.0000000000000000e+00  -1.1003337838444670e-05 -8.6102636518271478e-05 0.0000000000000000e+00  -9.8020756827514768e-06 -8.2761473936595931e-05 0.0000000000000000e+00  -8.6630002933444078e-06 -7.9403714034957665e-05 0.0000000000000000e+00  -7.5742145327495937e-06 -7.6093448431527661e-05 0.0000000000000000e+00  -6.5472829705652139e-06 -7.2771036543028340e-05 0.0000000000000000e+00  -5.5681811478996682e-06 -6.9499051377048659e-05 0.0000000000000000e+00  -4.6501946443117958e-06 -6.6217682417959889e-05 0.0000000000000000e+00  -3.7782148848205241e-06 -6.2990775003901988e-05 0.0000000000000000e+00  -2.9680213428810031e-06 -5.9758205456082322e-05 0.0000000000000000e+00  -2.2018507534512742e-06 -5.6581648433790141e-05 0.0000000000000000e+00  -1.4994148876458672e-06 -5.3404001920968503e-05 0.0000000000000000e+00  -8.3828644827810924e-07 -5.0290378201896146e-05 0.0000000000000000e+00  -2.4028926448701236e-07 -4.7182167219665317e-05 0.0000000000000000e+00  3.2000146768004033e-07 -4.4142462430874651e-05 0.0000000000000000e+00  8.1486557954280359e-07 -4.1115871395377535e-05 0.0000000000000000e+00  1.2660641225841456e-06 -3.8152268405848630e-05 0.0000000000000000e+00  1.6658309408090363e-06 -3.5229522765476216e-05 0.0000000000000000e+00  2.0032258653311084e-06 -3.2365772329974788e-05 0.0000000000000000e+00  2.3220506607001468e-06 -2.9558070026671901e-05 0.0000000000000000e+00  2.5710695293524150e-06 -2.6796210038677859e-05 0.0000000000000000e+00  2.7804557938846475e-06 -2.4133134092267977e-05 0.0000000000000000e+00  2.9327506723598546e-06 -2.1503620244539286e-05 0.0000000000000000e+00  3.0440773642392845e-06 -1.8987319070088160e-05 0.0000000000000000e+00  3.0998455352396045e-06 -1.6513727383375607e-05 0.0000000000000000e+00  3.1197388204166409e-06 -1.4165893541920262e-05 0.0000000000000000e+00  3.0865748171949263e-06 -1.1881891322845440e-05 0.0000000000000000e+00  2.9977830231290216e-06 -9.7253920747807119e-06 0.0000000000000000e+00  2.9031950634095993e-06 -7.6529004018887266e-06 0.0000000000000000e+00  2.7398431345423946e-06 -5.7010101504652277e-06 0.0000000000000000e+00  2.5448286504077978e-06 -3.8929147056053803e-06 0.0000000000000000e+00  2.2950391755083358e-06 -2.1895325330626666e-06 0.0000000000000000e+00  2.0245536679316115e-06 -6.5408902618598918e-07 0.0000000000000000e+00  1.6934600913525960e-06 7.6177903302595915e-07 0.0000000000000000e+00  1.3112726243030526e-06 1.9970945108331493e-06 0.0000000000000000e+00  9.4568634706940051e-07 3.0924723180959212e-06 0.0000000000000000e+00  5.0322853541485532e-07 4.0494855715114701e-06 0.0000000000000000e+00  1.3138658674425700e-07 4.8041036094063261e-06 0.0000000000000000e+00  -1.6727366857602320e-07 5.2000227902960711e-06 0.0000000000000000e+00  -1.6981313431681081e-07 5.0814201764153177e-06 0.0000000000000000e+00  -7.8656922715158511e-07 -2.4772901710829231e-07 0.0000000000000000e+00  -1.5756442881514797e-05 -1.1112484977188734e-04 0.0000000000000000e+00  -1.2708135515422908e-05 -1.0473962402132897e-04 0.0000000000000000e+00  -8.4236508245763134e-06 -9.4325297772930109e-05 0.0000000000000000e+00  1.1469252874274712e-06 -1.1808441651245079e-06 0.0000000000000000e+00  -6.0534800026300746e-06 -8.7806597171436669e-05 0.0000000000000000e+00  2.4050521271703046e-06 -2.7465134562335824e-06 0.0000000000000000e+00  -3.8119607883735408e-06 -8.1262348699692800e-05 0.0000000000000000e+00  4.0898519915371964e-06 -6.7111359738024874e-06 0.0000000000000000e+00  4.9336026492090471e-06 -9.9858231837826645e-06 0.0000000000000000e+00  -1.8001191343567251e-06 -7.4786895368737335e-05 0.0000000000000000e+00  6.0982248887607965e-06 -2.0261273187191200e-05 0.0000000000000000e+00  1.5420283552427841e-06 -6.2091924019802729e-05 0.0000000000000000e+00  5.5214322729781295e-06 -1.3524282645598474e-05 0.0000000000000000e+00  6.2325562517132018e-06 -2.5011621710329003e-05 0.0000000000000000e+00  2.8756135055524419e-06 -5.5903325911715499e-05 0.0000000000000000e+00  -1.5805712104391087e-08 -6.8391572901406358e-05 0.0000000000000000e+00  6.1202365532076453e-06 -3.0104754442633463e-05 0.0000000000000000e+00  3.9852941403572473e-06 -4.9849539491062572e-05 0.0000000000000000e+00  5.7634317117045392e-06 -3.5188551547421107e-05 0.0000000000000000e+00  4.9118815877497704e-06 -4.4129266716384307e-05 0.0000000000000000e+00  5.4009009296546672e-06 -3.9429714680579417e-05 0.0000000000000000e+00  5.8850650270799405e-06 -1.6715680873720091e-05 0.0000000000000000e+00  -1.0680819411211663e-05 -9.9674083767409047e-05 0.0000000000000000e+00  3.2726706697873745e-06 -4.5584576925870895e-06 0.0000000000000000e+00  -1.5757053530537833e-05 -1.0689009506978649e-04 0.0000000000000000e+00  7.3163007190877171e-08 1.5484471136376127e-06 0.0000000000000000e+00  -6.1765374272471824e-06 -8.3522899037530665e-05 0.0000000000000000e+00  -8.5438293093222128e-06 -9.0136916292099750e-05 0.0000000000000000e+00  2.2197839564460443e-06 -3.9685792684482932e-06 0.0000000000000000e+00  5.1677551972935646e-06 -9.8532057660659956e-06 0.0000000000000000e+00  -4.3324606640525658e-07 -6.4104518783803820e-05 0.0000000000000000e+00  -4.0367308099207529e-06 -7.6970885343511831e-05 0.0000000000000000e+00  7.1340634071455549e-06 -2.4008916477411957e-05 0.0000000000000000e+00  1.0350205376366108e-06 -5.7817749756412146e-05 0.0000000000000000e+00  6.0034937017699429e-06 -1.3341929449239688e-05 0.0000000000000000e+00  7.1879103899547778e-06 -2.8914552088092834e-05 0.0000000000000000e+00  2.2825470764564769e-06 -5.1654123044059171e-05 0.0000000000000000e+00  -2.1232681205109481e-06 -7.0493182614846683e-05 0.0000000000000000e+00  7.2526002492765793e-06 -3.4378110058483223e-05 0.0000000000000000e+00  3.3127240651428589e-06 -4.5638203368061417e-05 0.0000000000000000e+00  -9.6302386226085723e-07 -1.3261340337221441e-06 0.0000000000000000e+00  -1.0293367615637829e-06 1.1119764526698678e-06 0.0000000000000000e+00  -1.6023811842839129e-05 -1.1443127810784204e-04 0.0000000000000000e+00  5.8031839459600467e-07 -3.0197