<?xml version="1.0"?>
<VTKFile type="UnstructuredGrid"  version="0.1"  >
<UnstructuredGrid>
<Piece  NumberOfPoints="1419" NumberOfCells="2698">
<Points>
<DataArray  type="Float64"  NumberOfComponents="3"  format="ascii">0 0 0  0 0.41 0  2.5 0 0  2.5 0.41 0  0.6 0.19 0  0.6 0.21 0  0.25 0.2 0  0.15 0.2 0  0.2489897948556636 0.21 0  0.2489897948556636 0.19 0  0.6 0.2 0  0 0.3807142857143437 0  0 0.3514285714286952 0  0 0.3221428571430699 0  0 0.29285714285744 0  0 0.2635714285718054 0  0 0.2342857142861561 0  0 0.2050000000005308 0  0 0.175714285714732 0  0 0.1464285714289574 0  0 0.1171428571431897 0  0 0.08785714285737878 0  0 0.05857142857161107 0  0 0.02928571428580012 0  0.03015443760436003 0 0  0.06140001986583606 0 0  0.09377624077125973 0 0  0.1273239957535082 0 0  0.1620856860351972 0 0  0.1981052433264291 0 0  0.235428184091502 0 0  0.2741016576309132 0 0  0.3141745521465447 0 0  0.3556974926295285 0 0  0.3987229542472677 0 0  0.4433053055141081 0 0  0.4895008759286886 0 0  0.5373680609405097 0 0  0.5869673343216626 0 0  0.6383613676634521 0 0  0.6916151138468254 0 0  0.7467958595648856 0 0  0.8039733463919316 0 0  0.8632198139502143 0 0  0.9246101326867038 0 0  0.9882218810934433 0 0  1.054135445558498 0 0  1.122434100542598 0 0  1.193204177141305 0 0  1.266535089879536 0 0  1.342519516046404 0 0  1.421253448503939 0 0  1.502836389106271 0 0  1.587371439758838 0 0  1.674965418777374 0 0  1.765729001825544 0 0  1.859776908880082 0 0  1.957227977487062 0 0  2.058205329869943 0 0  2.162836591189951 0 0  2.271253957290865 0 0  2.383594446803425 0 0  2.5 0.1024999999997612 0  2.5 0.2049999999994743 0  2.5 0.3074999999997183 0  2.383594446803656 0.41 0  2.271253957291315 0.41 0  2.162836591190598 0.41 0  2.058205329870775 0.41 0  1.957227977488067 0.41 0  1.859776908881246 0.41 0  1.765729001826854 0.41 0  1.674965418778818 0.41 0  1.58737143976041 0.41 0  1.502836389107956 0.41 0  1.421253448505726 0.41 0  1.342519516048286 0.41 0  1.266535089881505 0.41 0  1.193204177143353 0.41 0  1.122434100544716 0.41 0  1.05413544556068 0.41 0  0.9882218810956305 0.41 0  0.9246101326886647 0.41 0  0.8632198139519631 0.41 0  0.8039733463934788 0.41 0  0.7467958595662458 0.41 0  0.6916151138480078 0.41 0  0.6383613676644679 0.41 0  0.5869673343225223 0.41 0  0.5373680609412221 0.41 0  0.4895008759292634 0.41 0  0.4433053055145528 0.41 0  0.3987229542475914 0.41 0  0.3556974926297398 0.41 0  0.3141745521466497 0.41 0  0.2741016576310038 0.41 0  0.2354281840915826 0.41 0  0.1981052433265003 0.41 0  0.1620856860352591 0.41 0  0.1273239957535623 0.41 0  0.09377624077128965 0.41 0  0.06140001986584975 0.41 0  0.03015443760436654 0.41 0  0.2497468076502589 0.2050254481002335 0  0.2497468076502614 0.1949745518997913 0  0.2469965252529372 0.1829317073451959 0  0.2439893735792749 0.1762316384219906 0  0.2400332147834255 0.1700443375285386 0  0.2352133972704371 0.1645032867342007 0  0.2296339016332438 0.1597280261969788 0  0.2234150974217223 0.1558215752574715 0  0.2166911463437691 0.1528682099456123 0  0.2096071079204251 0.1509316448471593 0  0.2023158100364996 0.1500536585536553 0  0.194974551899914 0.1502531923497262 0  0.1877417105387872 0.1515259415822739 0  0.1807733240461124 0.153844448527136 0  0.1742197252835808 0.15715869474974 0  0.1682222986673531 0.1613971801805478 0  0.162910430003803 0.1664684656256651 0  0.1583987151779087 0.1722631454351573 0  0.1547844879126891 0.178656207771761 0  0.1521457199348551 0.1855097315605723 0  0.1505393388476355 0.1926758619366523 0  0.1505393388476328 0.2073241380633295 0  0.1521457199348437 0.2144902684393899 0  0.1547844879126531 0.221343792228163 0  0.1583987151778488 0.2277368545647528 0  0.1629104300036858 0.2335315343742052 0  0.1682222986671726 0.2386028198193036 0  0.1742197252833576 0.2428413052501257 0  0.1807733240458683 0.2461555514727623 0  0.1877417105384929 0.2484740584176516 0  0.1949745518995776 0.2497468076502398 0  0.202315810036185 0.2499463414463592 0  0.2096071079201568 0.2490683551528932 0  0.2166911463435495 0.2471317900544655 0  0.2234150974215506 0.2441784247426195 0  0.2296339016331197 0.2402719738031125 0  0.2352133972703547 0.2354967132658811 0  0.2400332147833751 0.2299556624715287 0  0.2439893735792577 0.2237683615780412 0  0.246996525252926 0.2170682926548348 0  0.25645809709277 0.21 0  0.2639263993298655 0.21 0  0.271394701566961 0.21 0  0.2788630038040554 0.21 0  0.2863313060411479 0.21 0  0.2937996082782405 0.21 0  0.301267910515333 0.21 0  0.3087362127524279 0.21 0  0.3162045149895234 0.21 0  0.3236728172265972 0.21 0  0.3311411194636928 0.21 0  0.3386094217007701 0.21 0  0.3460777239378666 0.21 0  0.3535460261749672 0.21 0  0.3610143284120516 0.21 0  0.3684826306491596 0.21 0  0.3759509328862226 0.21 0  0.383419235123329 0.21 0  0.3908875373604028 0.21 0  0.3983558395975142 0.21 0  0.4058241418345938 0.21 0  0.4132924440716992 0.21 0  0.4207607463087888 0.21 0  0.4282290485459029 0.21 0  0.4356973507830418 0.21 0  0.4431656530201649 0.21 0  0.4506339552573136 0.21 0  0.4581022574944306 0.21 0  0.4655705597315852 0.21 0  0.4730388619686996 0.21 0  0.480507164205851 0.21 0  0.4879754664429498 0.21 0  0.4954437686800938 0.21 0  0.502912070917267 0.21 0  0.5103803731544119 0.21 0  0.5178486753915261 0.21 0  0.5253169776286404 0.21 0  0.5327852798657868 0.21 0  0.5402535821029386 0.21 0  0.54772188434007 0.21 0  0.5551901865771842 0.21 0  0.5626584888143201 0.21 0  0.5701267910514778 0.21 0  0.5775950932886138 0.21 0  0.5850633955257281 0.21 0  0.5925316977628483 0.21 0  0.6 0.2050000000000054 0  0.6 0.1950000000000217 0  0.5925316977628897 0.19 0  0.5850633955257988 0.19 0  0.5775950932887378 0.19 0  0.5701267910515998 0.19 0  0.5626584888145268 0.19 0  0.5551901865773963 0.19 0  0.547721884340339 0.19 0  0.5402535821032429 0.19 0  0.5327852798661811 0.19 0  0.5253169776290537 0.19 0  0.5178486753919799 0.19 0  0.5103803731549078 0.19 0  0.502912070917822 0.19 0  0.4954437686807294 0.19 0  0.4879754664436223 0.19 0  0.4805071642065402 0.19 0  0.4730388619694271 0.19 0  0.4655705597323621 0.19 0  0.4581022574952563 0.19 0  0.4506339552581777 0.19 0  0.4431656530210671 0.19 0  0.4356973507839815 0.19 0  0.4282290485468779 0.19 0  0.4207607463097617 0.19 0  0.4132924440726327 0.19 0  0.4058241418354857 0.19 0  0.3983558395983636 0.19 0  0.3908875373612097 0.19 0  0.3834192351240934 0.19 0  0.3759509328869369 0.19 0  0.3684826306498175 0.19 0  0.361014328412667 0.19 0  0.3535460261755617 0.19 0  0.3460777239384295 0.19 0  0.3386094217012945 0.19 0  0.3311411194641595 0.19 0  0.3236728172270245 0.19 0  0.3162045149898895 0.19 0  0.3087362127527544 0.19 0  0.3012679105156187 0.19 0  0.2937996082784807 0.19 0  0.2863313060413428 0.19 0  0.2788630038042048 0.19 0  0.2713947015670686 0.19 0  0.2639263993299336 0.19 0  0.2564580970927985 0.19 0  0.2607803159922026 0.2000727136295815 0  0.5887803774232762 0.2001272386983733 0  0.5745072403740523 0.2002044435018727 0  0.5511891430099709 0.2001122610077113 0  0.2751288526855082 0.20000000000002 0  0.5365194309847112 0.1999999999999436 0  0.2894621222999649 0.1998691686390484 0  0.5215828265105155 0.1999999999999228 0  0.3127789816668748 0.1998657885438805 0  0.3274069683451451 0.2000000000000796 0  0.5066462220363641 0.199999999999908 0  0.3650630746574081 0.199866017807523 0  0.476773013087985 0.1999999999998713 0  0.3417402379596385 0.1998691686391011 0  0.3796850840047755 0.200000000000134 0  0.4618364086138087 0.1999999999998546 0  0.4917096175621762 0.1999999999998808 0  0.3946216884789568 0.2000000000001512 0  0.446899804139621 0.1999999999998389 0  0.4089549580935208 0.1998691686391595 0  0.4322718174608562 0.200127451265745 0  0.4201487168029707 0.1999966199048527 0  0.3528922713220932 0.2000185703532356 0  0.5633122436674589 0.1999814296467508 0  0.3006558810093873 0.1999966199048318 0  0.5815926498168407 0.1966545283159175 0  0.2677053789419034 0.1964246479135325 0  0.5290511287476175 0.1970915826863981 0  0.5439877332217911 0.197091582686394 0  0.2825131256993216 0.2035478995978015 0  0.3199386661080599 0.202908417313604 0  0.4842413153250809 0.1970915826863873 0  0.5141145242734466 0.1970915826863843 0  0.3722167817676917 0.2029084173136195 0  0.4693047108508938 0.1970915826863783 0  0.3348752705822316 0.202908417313609 0  0.3871533862418661 0.2029084173136212 0  0.4543681063767183 0.1970915826863795 0  0.4991779197992749 0.1970915826863902 0  0.4020059614928624 0.203547899597858 0  0.4394315019025246 0.1970915826863714 0  0.2550657455369551 0.2034088125358657 0  0.2548908499171161 0.1966940311614271 0  0.5946539510196798 0.2024302972968126 0  0.267698176732111 0.2039977513680092 0  0.4261685417851465 0.196409292431739 0  0.3590076176283495 0.196411355804271 0  0.5571672426447437 0.2036011176410121 0  0.3066757059912147 0.1964092924317024 0  0.594380730180568 0.1966558399668133 0  0.4842413153245942 0.2040749161535287 0  0.4693047108503577 0.2040749161535231 0  0.3871533862424271 0.1959250838464788 0  0.372246743208829 0.1959123236376545 0  0.5141145242731028 0.2040749161535395 0  0.4543681063761134 0.2040749161535186 0  0.4019979587101454 0.1959834479682427 0  0.4394608940728603 0.2040870543693135 0  0.5439623148931173 0.2040856076781014 0  0.5290511287473298 0.2040749161535501 0  0.4991779197988497 0.2040749161535382 0  0.3347912413592433 0.1959225448935183 0  0.3199680582793816 0.1959123018030061 0  0.2825051229162361 0.1959834479681729 0  0.3590471196690275 0.2036304442587945 0  0.5571594006495384 0.1963685282145804 0  0.3067669986803285 0.203627750582736 0  0.4262598344738712 0.2036568242185335 0  0.5814408164431408 0.2041285596160068 0  0.5688286748170428 0.1961819304477386 0  0.4145905603063645 0.2038180695522843 0  0.3473758401724931 0.2038180695522752 0  0.2950977245128307 0.2038180695522663 0  0.5688286748170693 0.203818069552238 0  0.2950977245127906 0.1961819304477774 0  0.3473758401723931 0.1961819304478349 0  0.4145905603061963 0.1961819304479011 0  0.2601812407614425 0.2056861609747042
[...]
<PointData  Vectors="f_40-0"> 
<DataArray  type="Float64"  Name="f_40-0"  NumberOfComponents="3" format="ascii">0.0000000000000000e+00 0.0000000000000000e+00 0.0000000000000000e+00  0.0000000000000000e+00 0.0000000000000000e+00 0.0000000000000000e+00  0.0000000000000000e+00 0.0000000000000000e+00 0.0000000000000000e+00  0.0000000000000000e+00 0.0000000000000000e+00 0.0000000000000000e+00  -6.9235208514939678e-06 -4.9974152771425895e-04 0.0000000000000000e+00  3.2822605996020290e-05 -5.0520428832016775e-04 0.0000000000000000e+00  0.0000000000000000e+00 0.0000000000000000e+00 0.0000000000000000e+00  0.0000000000000000e+00 0.0000000000000000e+00 0.0000000000000000e+00  0.0000000000000000e+00 0.0000000000000000e+00 0.0000000000000000e+00  0.0000000000000000e+00 0.0000000000000000e+00 0.0000000000000000e+00  1.2345590497426985e-05 -5.0246992517836942e-04 0.0000000000000000e+00  7.4248935024509841e-02 0.0000000000000000e+00 0.0000000000000000e+00  1.3707495696833497e-01 0.0000000000000000e+00 0.0000000000000000e+00  1.8847806583146062e-01 0.0000000000000000e+00 0.0000000000000000e+00  2.2845826161394628e-01 0.0000000000000000e+00 0.0000000000000000e+00  2.5701554431578683e-01 0.0000000000000000e+00 0.0000000000000000e+00  2.7414991393698052e-01 0.0000000000000000e+00 0.0000000000000000e+00  2.7986137047751025e-01 0.0000000000000000e+00 0.0000000000000000e+00  2.7414991393732696e-01 0.0000000000000000e+00 0.0000000000000000e+00  2.5701554431638185e-01 0.0000000000000000e+00 0.0000000000000000e+00  2.2845826161468319e-01 0.0000000000000000e+00 0.0000000000000000e+00  1.8847806583216070e-01 0.0000000000000000e+00 0.0000000000000000e+00  1.3707495696893235e-01 0.0000000000000000e+00 0.0000000000000000e+00  7.4248935024846446e-02 0.0000000000000000e+00 0.0000000000000000e+00  0.0000000000000000e+00 0.0000000000000000e+00 0.0000000000000000e+00  0.0000000000000000e+00 0.0000000000000000e+00 0.0000000000000000e+00  0.0000000000000000e+00 0.0000000000000000e+00 0.0000000000000000e+00  0.0000000000000000e+00 0.0000000000000000e+00 0.0000000000000000e+00  0.0000000000000000e+00 0.0000000000000000e+00 0.0000000000000000e+00  0.0000000000000000e+00 0.0000000000000000e+00 0.0000000000000000e+00  0.0000000000000000e+00 0.0000000000000000e+00 0.0000000000000000e+00  0.0000000000000000e+00 0.0000000000000000e+00 0.0000000000000000e+00  0.0000000000000000e+00 0.0000000000000000e+00 0.0000000000000000e+00  0.0000000000000000e+00 0.0000000000000000e+00 0.0000000000000000e+00  0.0000000000000000e+00 0.0000000000000000e+00 0.0000000000000000e+00  0.0000000000000000e+00 0.0000000000000000e+00 0.0000000000000000e+00  0.0000000000000000e+00 0.0000000000000000e+00 0.0000000000000000e+00  0.0000000000000000e+00 0.0000000000000000e+00 0.0000000000000000e+00  0.0000000000000000e+00 0.0000000000000000e+00 0.0000000000000000e+00  0.0000000000000000e+00 0.0000000000000000e+00 0.0000000000000000e+00  0.0000000000000000e+00 0.0000000000000000e+00 0.0000000000000000e+00  0.0000000000000000e+00 0.0000000000000000e+00 0.0000000000000000e+00  0.0000000000000000e+00 0.0000000000000000e+00 0.0000000000000000e+00  0.0000000000000000e+00 0.0000000000000000e+00 0.0000000000000000e+00  0.0000000000000000e+00 0.0000000000000000e+00 0.0000000000000000e+00  0.0000000000000000e+00 0.0000000000000000e+00 0.0000000000000000e+00  0.0000000000000000e+00 0.0000000000000000e+00 0.0000000000000000e+00  0.0000000000000000e+00 0.0000000000000000e+00 0.0000000000000000e+00  0.0000000000000000e+00 0.0000000000000000e+00 0.0000000000000000e+00  0.0000000000000000e+00 0.0000000000000000e+00 0.0000000000000000e+00  0.0000000000000000e+00 0.0000000000000000e+00 0.0000000000000000e+00  0.0000000000000000e+00 0.0000000000000000e+00 0.0000000000000000e+00  0.0000000000000000e+00 0.0000000000000000e+00 0.0000000000000000e+00  0.0000000000000000e+00 0.0000000000000000e+00 0.0000000000000000e+00  0.0000000000000000e+00 0.0000000000000000e+00 0.0000000000000000e+00  0.0000000000000000e+00 0.0000000000000000e+00 0.0000000000000000e+00  0.0000000000000000e+00 0.0000000000000000e+00 0.0000000000000000e+00  0.0000000000000000e+00 0.0000000000000000e+00 0.0000000000000000e+00  0.0000000000000000e+00 0.0000000000000000e+00 0.0000000000000000e+00  0.0000000000000000e+00 0.0000000000000000e+00 0.0000000000000000e+00  0.0000000000000000e+00 0.0000000000000000e+00 0.0000000000000000e+00  0.0000000000000000e+00 0.0000000000000000e+00 0.0000000000000000e+00  2.6755868409833572e-01 1.0279351273349743e-02 0.0000000000000000e+00  1.8844672603326201e-01 -2.1929484650700512e-03 0.0000000000000000e+00  2.6941693710889780e-01 -9.0587934786046272e-03 0.0000000000000000e+00  0.0000000000000000e+00 0.0000000000000000e+00 0.0000000000000000e+00  0.0000000000000000e+00 0.0000000000000000e+00 0.0000000000000000e+00  0.0000000000000000e+00 0.0000000000000000e+00 0.0000000000000000e+00  0.0000000000000000e+00 0.0000000000000000e+00 0.0000000000000000e+00  0.0000000000000000e+00 0.0000000000000000e+00 0.0000000000000000e+00  0.0000000000000000e+00 0.0000000000000000e+00 0.0000000000000000e+00  0.0000000000000000e+00 0.0000000000000000e+00 0.0000000000000000e+00  0.0000000000000000e+00 0.0000000000000000e+00 0.0000000000000000e+00  0.0000000000000000e+00 0.0000000000000000e+00 0.0000000000000000e+00  0.0000000000000000e+00 0.0000000000000000e+00 0.0000000000000000e+00  0.0000000000000000e+00 0.0000000000000000e+00 0.0000000000000000e+00  0.0000000000000000e+00 0.0000000000000000e+00 0.0000000000000000e+00  0.0000000000000000e+00 0.0000000000000000e+00 0.0000000000000000e+00  0.0000000000000000e+00 0.0000000000000000e+00 0.0000000000000000e+00  0.0000000000000000e+00 0.0000000000000000e+00 0.0000000000000000e+00  0.0000000000000000e+00 0.0000000000000000e+00 0.0000000000000000e+00  0.0000000000000000e+00 0.0000000000000000e+00 0.0000000000000000e+00  0.0000000000000000e+00 0.0000000000000000e+00 0.0000000000000000e+00  0.0000000000000000e+00 0.0000000000000000e+00 0.0000000000000000e+00  0.0000000000000000e+00 0.0000000000000000e+00 0.0000000000000000e+00  0.0000000000000000e+00 0.0000000000000000e+00 0.0000000000000000e+00  0.0000000000000000e+00 0.0000000000000000e+00 0.0000000000000000e+00  0.0000000000000000e+00 0.0000000000000000e+00 0.0000000000000000e+00  0.0000000000000000e+00 0.0000000000000000e+00 0.0000000000000000e+00  0.0000000000000000e+00 0.0000000000000000e+00 0.0000000000000000e+00  0.0000000000000000e+00 0.0000000000000000e+00 0.0000000000000000e+00  0.0000000000000000e+00 0.0000000000000000e+00 0.0000000000000000e+00  0.0000000000000000e+00 0.0000000000000000e+00 0.0000000000000000e+00  0.0000000000000000e+00 0.0000000000000000e+00 0.0000000000000000e+00  0.0000000000000000e+00 0.0000000000000000e+00 0.0000000000000000e+00  0.0000000000000000e+00 0.0000000000000000e+00 0.0000000000000000e+00  0.0000000000000000e+00 0.0000000000000000e+00 0.0000000000000000e+00  0.0000000000000000e+00 0.0000000000000000e+00 0.0000000000000000e+00  0.0000000000000000e+00 0.0000000000000000e+00 0.0000000000000000e+00  0.0000000000000000e+00 0.0000000000000000e+00 0.0000000000000000e+00  0.0000000000000000e+00 0.0000000000000000e+00 0.0000000000000000e+00  0.0000000000000000e+00 0.0000000000000000e+00 0.0000000000000000e+00  0.0000000000000000e+00 0.0000000000000000e+00 0.0000000000000000e+00  0.0000000000000000e+00 0.0000000000000000e+00 0.0000000000000000e+00  0.0000000000000000e+00 0.0000000000000000e+00 0.0000000000000000e+00  0.0000000000000000e+00 0.0000000000000000e+00 0.0000000000000000e+00  0.0000000000000000e+00 0.0000000000000000e+00 0.0000000000000000e+00  0.0000000000000000e+00 0.0000000000000000e+00 0.0000000000000000e+00  0.0000000000000000e+00 0.0000000000000000e+00 0.0000000000000000e+00  0.0000000000000000e+00 0.0000000000000000e+00 0.0000000000000000e+00  0.0000000000000000e+00 0.0000000000000000e+00 0.0000000000000000e+00  0.0000000000000000e+00 0.0000000000000000e+00 0.0000000000000000e+00  0.0000000000000000e+00 0.0000000000000000e+00 0.0000000000000000e+00  0.0000000000000000e+00 0.0000000000000000e+00 0.0000000000000000e+00  0.0000000000000000e+00 0.0000000000000000e+00 0.0000000000000000e+00  0.0000000000000000e+00 0.0000000000000000e+00 0.0000000000000000e+00  0.0000000000000000e+00 0.0000000000000000e+00 0.0000000000000000e+00  0.0000000000000000e+00 0.0000000000000000e+00 0.0000000000000000e+00  0.0000000000000000e+00 0.0000000000000000e+00 0.0000000000000000e+00  0.0000000000000000e+00 0.0000000000000000e+00 0.0000000000000000e+00  0.0000000000000000e+00 0.0000000000000000e+00 0.0000000000000000e+00  0.0000000000000000e+00 0.0000000000000000e+00 0.0000000000000000e+00  0.0000000000000000e+00 0.0000000000000000e+00 0.0000000000000000e+00  0.0000000000000000e+00 0.0000000000000000e+00 0.0000000000000000e+00  0.0000000000000000e+00 0.0000000000000000e+00 0.0000000000000000e+00  0.0000000000000000e+00 0.0000000000000000e+00 0.0000000000000000e+00  0.0000000000000000e+00 0.0000000000000000e+00 0.0000000000000000e+00  0.0000000000000000e+00 0.0000000000000000e+00 0.0000000000000000e+00  0.0000000000000000e+00 0.0000000000000000e+00 0.0000000000000000e+00  0.0000000000000000e+00 0.0000000000000000e+00 0.0000000000000000e+00  0.0000000000000000e+00 0.0000000000000000e+00 0.0000000000000000e+00  0.0000000000000000e+00 0.0000000000000000e+00 0.0000000000000000e+00  0.0000000000000000e+00 0.0000000000000000e+00 0.0000000000000000e+00  0.0000000000000000e+00 0.0000000000000000e+00 0.0000000000000000e+00  0.0000000000000000e+00 0.0000000000000000e+00 0.0000000000000000e+00  0.0000000000000000e+00 0.0000000000000000e+00 0.0000000000000000e+00  0.0000000000000000e+00 0.0000000000000000e+00 0.0000000000000000e+00  0.0000000000000000e+00 0.0000000000000000e+00 0.0000000000000000e+00  0.0000000000000000e+00 0.0000000000000000e+00 0.0000000000000000e+00  0.0000000000000000e+00 0.0000000000000000e+00 0.0000000000000000e+00  0.0000000000000000e+00 0.0000000000000000e+00 0.0000000000000000e+00  0.0000000000000000e+00 0.0000000000000000e+00 0.0000000000000000e+00  0.0000000000000000e+00 0.0000000000000000e+00 0.0000000000000000e+00  1.8270770969774635e-06 -6.2385808463537456e-06 0.0000000000000000e+00  4.0084140664362707e-06 -7.7780553938100028e-06 0.0000000000000000e+00  6.3939035639212815e-06 -9.7528265281559088e-06 0.0000000000000000e+00  9.0128395754345444e-06 -1.2330162888374366e-05 0.0000000000000000e+00  1.1490493690596089e-05 -1.5572376098359930e-05 0.0000000000000000e+00  1.4055289849628955e-05 -1.9599839789193568e-05 0.0000000000000000e+00  1.6378888628468334e-05 -2.4169162561063516e-05 0.0000000000000000e+00  1.8612266598754470e-05 -2.9475389115707186e-05 0.0000000000000000e+00  2.0930165588234186e-05 -3.5351791299784867e-05 0.0000000000000000e+00  2.2942552858418976e-05 -4.1799783275384010e-05 0.0000000000000000e+00  2.5060119193312830e-05 -4.8872128706672892e-05 0.0000000000000000e+00  2.6879048928734323e-05 -5.6451297161907310e-05 0.0000000000000000e+00  2.8746866442237319e-05 -6.4583390040650685e-05 0.0000000000000000e+00  3.0391291771533072e-05 -7.3152737668747450e-05 0.0000000000000000e+00  3.1933512233824049e-05 -8.2247023340513781e-05 0.0000000000000000e+00  3.3507565768383229e-05 -9.1768668759722424e-05 0.0000000000000000e+00  3.4827748138572425e-05 -1.0167525529729774e-04 0.0000000000000000e+00  3.6185402355164221e-05 -1.1204353246576156e-04 0.0000000000000000e+00  3.7306101190432097e-05 -1.2273012490038193e-04 0.0000000000000000e+00  3.8448211879820955e-05 -1.3381632493382291e-04 0.0000000000000000e+00  3.9398384084182242e-05 -1.4519468980127791e-04 0.0000000000000000e+00  4.0315652260853093e-05 -1.5693292015033956e-04 0.0000000000000000e+00  4.1080564462715752e-05 -1.6891914891716187e-04 0.0000000000000000e+00  4.1748080512146931e-05 -1.8121233128735122e-04 0.0000000000000000e+00  4.2399193066296964e-05 -1.9374824890627202e-04 0.0000000000000000e+00  4.2895501986502688e-05 -2.0650685586562250e-04 0.0000000000000000e+00  4.3315850812505262e-05 -2.1954739145151869e-04 0.0000000000000000e+00  4.3627111745262784e-05 -2.3273527954625566e-04 0.0000000000000000e+00  4.3859774757196801e-05 -2.4617109619305824e-04 0.0000000000000000e+00  4.3986374451785668e-05 -2.5973214056217793e-04 0.0000000000000000e+00  4.4035550532453055e-05 -2.7350323754410589e-04 0.0000000000000000e+00  4.3978093437098897e-05 -2.8736765661484037e-04 0.0000000000000000e+00  4.3847034061740654e-05 -3.0141435778424370e-04 0.0000000000000000e+00  4.3608237111695912e-05 -3.1552089527453443e-04 0.0000000000000000e+00  4.3285347521374379e-05 -3.2979349805598311e-04 0.0000000000000000e+00  4.2867584736627372e-05 -3.4410130104726706e-04 0.0000000000000000e+00  4.2369032594149521e-05 -3.5853850082473546e-04 0.0000000000000000e+00  4.1775641343199874e-05 -3.7299184551079591e-04 0.0000000000000000e+00  4.1098270241043178e-05 -3.8755171937156848e-04 0.0000000000000000e+00  4.0323730437723415e-05 -4.0211131250349517e-04 0.0000000000000000e+00  3.9458579766551032e-05 -4.1674205618186710e-04 0.0000000000000000e+00  3.8513090793334624e-05 -4.3137848106681161e-04 0.0000000000000000e+00  3.7468764403862393e-05 -4.4605426476174788e-04 0.0000000000000000e+00  3.6373423214442629e-05 -4.6073680835348035e-04 0.0000000000000000e+00  3.5171973289990485e-05 -4.7539844494694558e-04 0.0000000000000000e+00  3.3937394207411313e-05 -4.9013642997761868e-04 0.0000000000000000e+00  2.2377474839900960e-05 -5.0381807747937866e-04 0.0000000000000000e+00  2.5379352378515723e-06 -5.0112477194613021e-04 0.0000000000000000e+00  -5.7569923653869088e-06 -4.8514308498561463e-04 0.0000000000000000e+00  -4.4796556036060441e-06 -4.7023582680646655e-04 0.0000000000000000e+00  -3.2317463816210673e-06 -4.5529497753414382e-04 0.0000000000000000e+00  -2.0726611735442451e-06 -4.4040852958394206e-04 0.0000000000000000e+00  -9.6376989817275963e-07 -4.2554292374062750e-04 0.0000000000000000e+00  5.5657386624179304e-08 -4.1070955040934569e-04 0.0000000000000000e+00  1.0294942320179341e-06 -3.9591559403277229e-04 0.0000000000000000e+00  1.9124917512227669e-06 -3.8114089521914900e-04 0.0000000000000000e+00  2.7503365321673120e-06 -3.6645424683480108e-04 0.0000000000000000e+00  3.5037381837464975e-06 -3.5178384919611923e-04 0.0000000000000000e+00  4.2218541728641739e-06 -3.3722108497881800e-04 0.0000000000000000e+00  4.8515269375456000e-06 -3.2269667178876467e-04 0.0000000000000000e+00  5.4559080698431189e-06 -3.0830538939324441e-04 0.0000000000000000e+00  5.9690454800404210e-06 -2.9398018518082575e-04 0.0000000000000000e+00  6.4684070392290703e-06 -2.7981388619521927e-04 0.0000000000000000e+00  6.8685775145629365e-06 -2.6574048535811805e-04 0.0000000000000000e+00  7.2679863774323956e-06 -2.5184911852382932e-04 0.0000000000000000e+00  7.5578559934129565e-06 -2.3807752779651502e-04 0.0000000000000000e+00  7.8570341895522711e-06 -2.2452348887260008e-04 0.0000000000000000e+00  8.0405564520925144e-06 -2.1112536596428977e-04 0.0000000000000000e+00  8.2498291324178884e-06 -1.9797550976099110e-04 0.0000000000000000e+00  8.3315915530653420e-06 -1.8501580787173440e-04 0.0000000000000000e+00  8.4352235655032714e-06 -1.7232398736987843e-04 0.0000000000000000e+00  8.4353878538225465e-06 -1.5986026040975683e-04 0.0000000000000000e+00  8.3704690253779871e-06 -1.4771750681752611e-04 0.0000000000000000e+00  8.3487779913184140e-06 -1.3582335485796008e-04 0.0000000000000000e+00  8.2150030108399567e-06 -1.2425139935265156e-04 0.0000000000000000e+00  8.0774309362550327e-06 -1.1304168277482613e-04 0.0000000000000000e+00  7.8565873321634076e-06 -1.0214947347784841e-04 0.0000000000000000e+00  7.6284046926758800e-06 -9.1670923922400455e-05 0.0000000000000000e+00  7.3177657278610737e-06 -8.1537748526513357e-05 0.0000000000000000e+00  7.0407808492990652e-06 -7.1908325997695408e-05 0.0000000000000000e+00  6.6352925219286794e-06 -6.2632643144128631e-05 0.0000000000000000e+00  6.1731736179949663e-06 -5.3918929143059422e-05 0.0000000000000000e+00  5.8026721685780883e-06 -4.5596963013038015e-05 0.0000000000000000e+00  5.3046570027193197e-06 -3.7844411128769638e-05 0.0000000000000000e+00  4.8220967810547209e-06 -3.0655332139758219e-05 0.0000000000000000e+00  4.2449670876735129e-06 -2.3999357178039524e-05 0.0000000000000000e+00  3.7382731074568851e-06 -1.8025675244810158e-05 0.0000000000000000e+00  3.0696349446428924e-06 -1.2570160310190100e-05 0.0000000000000000e+00  2.3495553624550375e-06 -7.8752199138518231e-06 0.0000000000000000e+00  1.7804124220073559e-06 -3.7393674354360147e-06 0.0000000000000000e+00  1.0665731769843884e-06 -3.1924763865737609e-07 0.0000000000000000e+00  5.3958980864204522e-07 2.3479620615386339e-06 0.0000000000000000e+00  1.8998911960638980e-08 4.0882833296962732e-06 0.0000000000000000e+00  -4.9225963600113723e-08 4.7560075894663308e-06 0.0000000000000000e+00  4.7804389846003939e-07 -7.8622061158285269e-07 0.0000000000000000e+00  1.4759381628698127e-05 -4.8021319193441406e-04 0.0000000000000000e+00  1.7373223947312274e-05 -4.5193958272091693e-04 0.0000000000000000e+00  2.0404045814811166e-05 -4.0584766657325030e-04 0.0000000000000000e+00  4.1817048737169087e-06 -4.4469610796174573e-06 0.0000000000000000e+00  2.1802318797727517e-05 -3.7699128014705597e-04 0.0000000000000000e+00  7.1974166602328000e-06 -1.0739032318317056e-05 0.0000000000000000e+00  2.3160722265559927e-05 -3.4785195404179770e-04 0.0000000000000000e+00  1.1770854210594836e-05 -2.6401939133501265e-05 0.0000000000000000e+00  1.4462023065748840e-05 -3.9361985012213903e-05 0.0000000000000000e+00  2.4220712796877310e-05 -3.1900328828995115e-04 0.0000000000000000e+00  1.9751868189879873e-05 -8.1857161216912296e-05 0.0000000000000000e+00  2.5460864678055834e-05 -2.6258561390417681e-04 0.0000000000000000e+00  1.6617135022147069e-05 -5.3990915354585562e-05 0.0000000000000000e+00  2.1550312896682443e-05 -1.0158421126910145e-04 0.0000000000000000e+00  2.5647323819860422e-05 -2.3523399595307907e-04 0.0000000000000000e+00  2.4986441323924759e-05 -2.9054534653560448e-04 0.0000000000000000e+00  2.2940628369998189e-05 -1.2318795012353090e-04 0.0000000000000000e+00  2.5545242381778348e-05 -2.0862143977527626e-04 0.0000000000000000e+00  2.3807418375272568e-05 -1.4515262341987129e-04 0.0000000000000000e+00  2.5393769534663625e-05 -1.8345387427821461e-04 0.0000000000000000e+00  2.4625433966676327e-05 -1.6325244904630539e-04 0.0000000000000000e+00  1.8350683897673571e-05 -6.6897813955800052e-05 0.0000000000000000e+00  1.8540228423534216e-05 -4.2973413958402758e-04 0.0000000000000000e+00  9.5173365775979379e-06 -1.7649961986640120e-05 0.0000000000000000e+00  9.1732213454043400e-06 -4.6505527076361262e-04 0.0000000000000000e+00  1.5271602321535450e-06 -2.2649623139320366e-08 0.0000000000000000e+00  1.6857820912908950e-05 -3.6143092736326738e-04 0.0000000000000000e+00  1.5307878522332733e-05 -3.9073113547889677e-04 0.0000000000000000e+00  7.3364123101108713e-06 -9.5927420477817659e-06 0.0000000000000000e+00  1.5710737218977387e-05 -3.4188605494984005e-05 0.0000000000000000e+00  1.9832538379721107e-05 -2.7539643254033890e-04 0.0000000000000000e+00  1.8125718042865960e-05 -3.3237749649587210e-04 0.0000000000000000e+00  2.4637517621130011e-05 -9.2853276749505894e-05 0.0000000000000000e+00  2.0283971453864151e-05 -2.4767950605006996e-04 0.0000000000000000e+00  1.8642828581438205e-05 -4.8416187667497304e-05 0.0000000000000000e+00  2.6461098012235521e-05 -1.1366363620533924e-04 0.0000000000000000e+00  2.0469531829454763e-05 -2.2063542735832294e-04 0.0000000000000000e+00  1.9114773659442896e-05 -3.0366324606091944e-04 0.0000000000000000e+00  2.8950417507505174e-05 -1.3610567928666267e-04 0.0000000000000000e+00  2.0392660544503251e-05 -1.9439764878002603e-04 0.0000000000000000e+00  -2.6296108448598323e-07 -1.4857286076339749e-06 0.0000000000000000e+00  -5.7984156786465415e-07 1.0759156910962666e-06 0.0000000000000000e+00  1.8214129661007102e-05 -4.9244790397242320e-04 0.0000000000000000e+00  3.4308283464402030e-06 -4.7894043497672812e-06 0.0000000000000000e+00 