<?xml version="1.0"?>
<VTKFile type="UnstructuredGrid"  version="0.1"  >
<UnstructuredGrid>
<Piece  NumberOfPoints="1419" NumberOfCells="2698">
<Points>
<DataArray  type="Float64"  NumberOfComponents="3"  format="ascii">0 0 0  0 0.41 0  2.5 0 0  2.5 0.41 0  0.6 0.19 0  0.6 0.21 0  0.25 0.2 0  0.15 0.2 0  0.2489897948556636 0.21 0  0.2489897948556636 0.19 0  0.6 0.2 0  0 0.3807142857143437 0  0 0.3514285714286952 0  0 0.3221428571430699 0  0 0.29285714285744 0  0 0.2635714285718054 0  0 0.2342857142861561 0  0 0.2050000000005308 0  0 0.175714285714732 0  0 0.1464285714289574 0  0 0.1171428571431897 0  0 0.08785714285737878 0  0 0.05857142857161107 0  0 0.02928571428580012 0  0.03015443760436003 0 0  0.06140001986583606 0 0  0.09377624077125973 0 0  0.1273239957535082 0 0  0.1620856860351972 0 0  0.1981052433264291 0 0  0.235428184091502 0 0  0.2741016576309132 0 0  0.3141745521465447 0 0  0.3556974926295285 0 0  0.3987229542472677 0 0  0.4433053055141081 0 0  0.4895008759286886 0 0  0.5373680609405097 0 0  0.5869673343216626 0 0  0.6383613676634521 0 0  0.6916151138468254 0 0  0.7467958595648856 0 0  0.8039733463919316 0 0  0.8632198139502143 0 0  0.9246101326867038 0 0  0.9882218810934433 0 0  1.054135445558498 0 0  1.122434100542598 0 0  1.193204177141305 0 0  1.266535089879536 0 0  1.342519516046404 0 0  1.421253448503939 0 0  1.502836389106271 0 0  1.587371439758838 0 0  1.674965418777374 0 0  1.765729001825544 0 0  1.859776908880082 0 0  1.957227977487062 0 0  2.058205329869943 0 0  2.162836591189951 0 0  2.271253957290865 0 0  2.383594446803425 0 0  2.5 0.1024999999997612 0  2.5 0.2049999999994743 0  2.5 0.3074999999997183 0  2.383594446803656 0.41 0  2.271253957291315 0.41 0  2.162836591190598 0.41 0  2.058205329870775 0.41 0  1.957227977488067 0.41 0  1.859776908881246 0.41 0  1.765729001826854 0.41 0  1.674965418778818 0.41 0  1.58737143976041 0.41 0  1.502836389107956 0.41 0  1.421253448505726 0.41 0  1.342519516048286 0.41 0  1.266535089881505 0.41 0  1.193204177143353 0.41 0  1.122434100544716 0.41 0  1.05413544556068 0.41 0  0.9882218810956305 0.41 0  0.9246101326886647 0.41 0  0.8632198139519631 0.41 0  0.8039733463934788 0.41 0  0.7467958595662458 0.41 0  0.6916151138480078 0.41 0  0.6383613676644679 0.41 0  0.5869673343225223 0.41 0  0.5373680609412221 0.41 0  0.4895008759292634 0.41 0  0.4433053055145528 0.41 0  0.3987229542475914 0.41 0  0.3556974926297398 0.41 0  0.3141745521466497 0.41 0  0.2741016576310038 0.41 0  0.2354281840915826 0.41 0  0.1981052433265003 0.41 0  0.1620856860352591 0.41 0  0.1273239957535623 0.41 0  0.09377624077128965 0.41 0  0.06140001986584975 0.41 0  0.03015443760436654 0.41 0  0.2497468076502589 0.2050254481002335 0  0.2497468076502614 0.1949745518997913 0  0.2469965252529372 0.1829317073451959 0  0.2439893735792749 0.1762316384219906 0  0.2400332147834255 0.1700443375285386 0  0.2352133972704371 0.1645032867342007 0  0.2296339016332438 0.1597280261969788 0  0.2234150974217223 0.1558215752574715 0  0.2166911463437691 0.1528682099456123 0  0.2096071079204251 0.1509316448471593 0  0.2023158100364996 0.1500536585536553 0  0.194974551899914 0.1502531923497262 0  0.1877417105387872 0.1515259415822739 0  0.1807733240461124 0.153844448527136 0  0.1742197252835808 0.15715869474974 0  0.1682222986673531 0.1613971801805478 0  0.162910430003803 0.1664684656256651 0  0.1583987151779087 0.1722631454351573 0  0.1547844879126891 0.178656207771761 0  0.1521457199348551 0.1855097315605723 0  0.1505393388476355 0.1926758619366523 0  0.1505393388476328 0.2073241380633295 0  0.1521457199348437 0.2144902684393899 0  0.1547844879126531 0.221343792228163 0  0.1583987151778488 0.2277368545647528 0  0.1629104300036858 0.2335315343742052 0  0.1682222986671726 0.2386028198193036 0  0.1742197252833576 0.2428413052501257 0  0.1807733240458683 0.2461555514727623 0  0.1877417105384929 0.2484740584176516 0  0.1949745518995776 0.2497468076502398 0  0.202315810036185 0.2499463414463592 0  0.2096071079201568 0.2490683551528932 0  0.2166911463435495 0.2471317900544655 0  0.2234150974215506 0.2441784247426195 0  0.2296339016331197 0.2402719738031125 0  0.2352133972703547 0.2354967132658811 0  0.2400332147833751 0.2299556624715287 0  0.2439893735792577 0.2237683615780412 0  0.246996525252926 0.2170682926548348 0  0.25645809709277 0.21 0  0.2639263993298655 0.21 0  0.271394701566961 0.21 0  0.2788630038040554 0.21 0  0.2863313060411479 0.21 0  0.2937996082782405 0.21 0  0.301267910515333 0.21 0  0.3087362127524279 0.21 0  0.3162045149895234 0.21 0  0.3236728172265972 0.21 0  0.3311411194636928 0.21 0  0.3386094217007701 0.21 0  0.3460777239378666 0.21 0  0.3535460261749672 0.21 0  0.3610143284120516 0.21 0  0.3684826306491596 0.21 0  0.3759509328862226 0.21 0  0.383419235123329 0.21 0  0.3908875373604028 0.21 0  0.3983558395975142 0.21 0  0.4058241418345938 0.21 0  0.4132924440716992 0.21 0  0.4207607463087888 0.21 0  0.4282290485459029 0.21 0  0.4356973507830418 0.21 0  0.4431656530201649 0.21 0  0.4506339552573136 0.21 0  0.4581022574944306 0.21 0  0.4655705597315852 0.21 0  0.4730388619686996 0.21 0  0.480507164205851 0.21 0  0.4879754664429498 0.21 0  0.4954437686800938 0.21 0  0.502912070917267 0.21 0  0.5103803731544119 0.21 0  0.5178486753915261 0.21 0  0.5253169776286404 0.21 0  0.5327852798657868 0.21 0  0.5402535821029386 0.21 0  0.54772188434007 0.21 0  0.5551901865771842 0.21 0  0.5626584888143201 0.21 0  0.5701267910514778 0.21 0  0.5775950932886138 0.21 0  0.5850633955257281 0.21 0  0.5925316977628483 0.21 0  0.6 0.2050000000000054 0  0.6 0.1950000000000217 0  0.5925316977628897 0.19 0  0.5850633955257988 0.19 0  0.5775950932887378 0.19 0  0.5701267910515998 0.19 0  0.5626584888145268 0.19 0  0.5551901865773963 0.19 0  0.547721884340339 0.19 0  0.5402535821032429 0.19 0  0.5327852798661811 0.19 0  0.5253169776290537 0.19 0  0.5178486753919799 0.19 0  0.5103803731549078 0.19 0  0.502912070917822 0.19 0  0.4954437686807294 0.19 0  0.4879754664436223 0.19 0  0.4805071642065402 0.19 0  0.4730388619694271 0.19 0  0.4655705597323621 0.19 0  0.4581022574952563 0.19 0  0.4506339552581777 0.19 0  0.4431656530210671 0.19 0  0.4356973507839815 0.19 0  0.4282290485468779 0.19 0  0.4207607463097617 0.19 0  0.4132924440726327 0.19 0  0.4058241418354857 0.19 0  0.3983558395983636 0.19 0  0.3908875373612097 0.19 0  0.3834192351240934 0.19 0  0.3759509328869369 0.19 0  0.3684826306498175 0.19 0  0.361014328412667 0.19 0  0.3535460261755617 0.19 0  0.3460777239384295 0.19 0  0.3386094217012945 0.19 0  0.3311411194641595 0.19 0  0.3236728172270245 0.19 0  0.3162045149898895 0.19 0  0.3087362127527544 0.19 0  0.3012679105156187 0.19 0  0.2937996082784807 0.19 0  0.2863313060413428 0.19 0  0.2788630038042048 0.19 0  0.2713947015670686 0.19 0  0.2639263993299336 0.19 0  0.2564580970927985 0.19 0  0.2607803159922026 0.2000727136295815 0  0.5887803774232762 0.2001272386983733 0  0.5745072403740523 0.2002044435018727 0  0.5511891430099709 0.2001122610077113 0  0.2751288526855082 0.20000000000002 0  0.5365194309847112 0.1999999999999436 0  0.2894621222999649 0.1998691686390484 0  0.5215828265105155 0.1999999999999228 0  0.3127789816668748 0.1998657885438805 0  0.3274069683451451 0.2000000000000796 0  0.5066462220363641 0.199999999999908 0  0.3650630746574081 0.199866017807523 0  0.476773013087985 0.1999999999998713 0  0.3417402379596385 0.1998691686391011 0  0.3796850840047755 0.200000000000134 0  0.4618364086138087 0.1999999999998546 0  0.4917096175621762 0.1999999999998808 0  0.3946216884789568 0.2000000000001512 0  0.446899804139621 0.1999999999998389 0  0.4089549580935208 0.1998691686391595 0  0.4322718174608562 0.200127451265745 0  0.4201487168029707 0.1999966199048527 0  0.3528922713220932 0.2000185703532356 0  0.5633122436674589 0.1999814296467508 0  0.3006558810093873 0.1999966199048318 0  0.5815926498168407 0.1966545283159175 0  0.2677053789419034 0.1964246479135325 0  0.5290511287476175 0.1970915826863981 0  0.5439877332217911 0.197091582686394 0  0.2825131256993216 0.2035478995978015 0  0.3199386661080599 0.202908417313604 0  0.4842413153250809 0.1970915826863873 0  0.5141145242734466 0.1970915826863843 0  0.3722167817676917 0.2029084173136195 0  0.4693047108508938 0.1970915826863783 0  0.3348752705822316 0.202908417313609 0  0.3871533862418661 0.2029084173136212 0  0.4543681063767183 0.1970915826863795 0  0.4991779197992749 0.1970915826863902 0  0.4020059614928624 0.203547899597858 0  0.4394315019025246 0.1970915826863714 0  0.2550657455369551 0.2034088125358657 0  0.2548908499171161 0.1966940311614271 0  0.5946539510196798 0.2024302972968126 0  0.267698176732111 0.2039977513680092 0  0.4261685417851465 0.196409292431739 0  0.3590076176283495 0.196411355804271 0  0.5571672426447437 0.2036011176410121 0  0.3066757059912147 0.1964092924317024 0  0.594380730180568 0.1966558399668133 0  0.4842413153245942 0.2040749161535287 0  0.4693047108503577 0.2040749161535231 0  0.3871533862424271 0.1959250838464788 0  0.372246743208829 0.1959123236376545 0  0.5141145242731028 0.2040749161535395 0  0.4543681063761134 0.2040749161535186 0  0.4019979587101454 0.1959834479682427 0  0.4394608940728603 0.2040870543693135 0  0.5439623148931173 0.2040856076781014 0  0.5290511287473298 0.2040749161535501 0  0.4991779197988497 0.2040749161535382 0  0.3347912413592433 0.1959225448935183 0  0.3199680582793816 0.1959123018030061 0  0.2825051229162361 0.1959834479681729 0  0.3590471196690275 0.2036304442587945 0  0.5571594006495384 0.1963685282145804 0  0.3067669986803285 0.203627750582736 0  0.4262598344738712 0.2036568242185335 0  0.5814408164431408 0.2041285596160068 0  0.5688286748170428 0.1961819304477386 0  0.4145905603063645 0.2038180695522843 0  0.3473758401724931 0.2038180695522752 0  0.2950977245128307 0.2038180695522663 0  0.5688286748170693 0.203818069552238 0  0.2950977245127906 0.1961819304477774 0  0.3473758401723931 0.1961819304478349 0  0.4145905603061963 0.1961819304479011 0  0.2601812407614425 0.2056861609747042
[...]
<PointData  Vectors="f_40-0"> 
<DataArray  type="Float64"  Name="f_40-0"  NumberOfComponents="3" format="ascii">0.0000000000000000e+00 0.0000000000000000e+00 0.0000000000000000e+00  0.0000000000000000e+00 0.0000000000000000e+00 0.0000000000000000e+00  0.0000000000000000e+00 0.0000000000000000e+00 0.0000000000000000e+00  0.0000000000000000e+00 0.0000000000000000e+00 0.0000000000000000e+00  -2.0711408035889797e-05 -4.2614589824726768e-06 0.0000000000000000e+00  -1.9678409440986876e-05 -1.0454342175883426e-05 0.0000000000000000e+00  0.0000000000000000e+00 0.0000000000000000e+00 0.0000000000000000e+00  0.0000000000000000e+00 0.0000000000000000e+00 0.0000000000000000e+00  0.0000000000000000e+00 0.0000000000000000e+00 0.0000000000000000e+00  0.0000000000000000e+00 0.0000000000000000e+00 0.0000000000000000e+00  -2.0326722475333236e-05 -7.3508571326266105e-06 0.0000000000000000e+00  7.5804583497095495e-04 0.0000000000000000e+00 0.0000000000000000e+00  1.3994692337926250e-03 0.0000000000000000e+00 0.0000000000000000e+00  1.9242701964648596e-03 0.0000000000000000e+00 0.0000000000000000e+00  2.3324487229882665e-03 0.0000000000000000e+00 0.0000000000000000e+00  2.6240048133627926e-03 0.0000000000000000e+00 0.0000000000000000e+00  2.7989384675884206e-03 0.0000000000000000e+00 0.0000000000000000e+00  2.8572496856649754e-03 0.0000000000000000e+00 0.0000000000000000e+00  2.7989384675919573e-03 0.0000000000000000e+00 0.0000000000000000e+00  2.6240048133688676e-03 0.0000000000000000e+00 0.0000000000000000e+00  2.3324487229957900e-03 0.0000000000000000e+00 0.0000000000000000e+00  1.9242701964720071e-03 0.0000000000000000e+00 0.0000000000000000e+00  1.3994692337987238e-03 0.0000000000000000e+00 0.0000000000000000e+00  7.5804583497439133e-04 0.0000000000000000e+00 0.0000000000000000e+00  0.0000000000000000e+00 0.0000000000000000e+00 0.0000000000000000e+00  0.0000000000000000e+00 0.0000000000000000e+00 0.0000000000000000e+00  0.0000000000000000e+00 0.0000000000000000e+00 0.0000000000000000e+00  0.0000000000000000e+00 0.0000000000000000e+00 0.0000000000000000e+00  0.0000000000000000e+00 0.0000000000000000e+00 0.0000000000000000e+00  0.0000000000000000e+00 0.0000000000000000e+00 0.0000000000000000e+00  0.0000000000000000e+00 0.0000000000000000e+00 0.0000000000000000e+00  0.0000000000000000e+00 0.0000000000000000e+00 0.0000000000000000e+00  0.0000000000000000e+00 0.0000000000000000e+00 0.0000000000000000e+00  0.0000000000000000e+00 0.0000000000000000e+00 0.0000000000000000e+00  0.0000000000000000e+00 0.0000000000000000e+00 0.0000000000000000e+00  0.0000000000000000e+00 0.0000000000000000e+00 0.0000000000000000e+00  0.0000000000000000e+00 0.0000000000000000e+00 0.0000000000000000e+00  0.0000000000000000e+00 0.0000000000000000e+00 0.0000000000000000e+00  0.0000000000000000e+00 0.0000000000000000e+00 0.0000000000000000e+00  0.0000000000000000e+00 0.0000000000000000e+00 0.0000000000000000e+00  0.0000000000000000e+00 0.0000000000000000e+00 0.0000000000000000e+00  0.0000000000000000e+00 0.0000000000000000e+00 0.0000000000000000e+00  0.0000000000000000e+00 0.0000000000000000e+00 0.0000000000000000e+00  0.0000000000000000e+00 0.0000000000000000e+00 0.0000000000000000e+00  0.0000000000000000e+00 0.0000000000000000e+00 0.0000000000000000e+00  0.0000000000000000e+00 0.0000000000000000e+00 0.0000000000000000e+00  0.0000000000000000e+00 0.0000000000000000e+00 0.0000000000000000e+00  0.0000000000000000e+00 0.0000000000000000e+00 0.0000000000000000e+00  0.0000000000000000e+00 0.0000000000000000e+00 0.0000000000000000e+00  0.0000000000000000e+00 0.0000000000000000e+00 0.0000000000000000e+00  0.0000000000000000e+00 0.0000000000000000e+00 0.0000000000000000e+00  0.0000000000000000e+00 0.0000000000000000e+00 0.0000000000000000e+00  0.0000000000000000e+00 0.0000000000000000e+00 0.0000000000000000e+00  0.0000000000000000e+00 0.0000000000000000e+00 0.0000000000000000e+00  0.0000000000000000e+00 0.0000000000000000e+00 0.0000000000000000e+00  0.0000000000000000e+00 0.0000000000000000e+00 0.0000000000000000e+00  0.0000000000000000e+00 0.0000000000000000e+00 0.0000000000000000e+00  0.0000000000000000e+00 0.0000000000000000e+00 0.0000000000000000e+00  0.0000000000000000e+00 0.0000000000000000e+00 0.0000000000000000e+00  0.0000000000000000e+00 0.0000000000000000e+00 0.0000000000000000e+00  0.0000000000000000e+00 0.0000000000000000e+00 0.0000000000000000e+00  0.0000000000000000e+00 0.0000000000000000e+00 0.0000000000000000e+00  2.6871548360765389e-03 9.1615599664571820e-05 0.0000000000000000e+00  1.8955928399790540e-03 4.7587839314917064e-06 0.0000000000000000e+00  2.6330125324303187e-03 -1.6992112509521350e-04 0.0000000000000000e+00  0.0000000000000000e+00 0.0000000000000000e+00 0.0000000000000000e+00  0.0000000000000000e+00 0.0000000000000000e+00 0.0000000000000000e+00  0.0000000000000000e+00 0.0000000000000000e+00 0.0000000000000000e+00  0.0000000000000000e+00 0.0000000000000000e+00 0.0000000000000000e+00  0.0000000000000000e+00 0.0000000000000000e+00 0.0000000000000000e+00  0.0000000000000000e+00 0.0000000000000000e+00 0.0000000000000000e+00  0.0000000000000000e+00 0.0000000000000000e+00 0.0000000000000000e+00  0.0000000000000000e+00 0.0000000000000000e+00 0.0000000000000000e+00  0.0000000000000000e+00 0.0000000000000000e+00 0.0000000000000000e+00  0.0000000000000000e+00 0.0000000000000000e+00 0.0000000000000000e+00  0.0000000000000000e+00 0.0000000000000000e+00 0.0000000000000000e+00  0.0000000000000000e+00 0.0000000000000000e+00 0.0000000000000000e+00  0.0000000000000000e+00 0.0000000000000000e+00 0.0000000000000000e+00  0.0000000000000000e+00 0.0000000000000000e+00 0.0000000000000000e+00  0.0000000000000000e+00 0.0000000000000000e+00 0.0000000000000000e+00  0.0000000000000000e+00 0.0000000000000000e+00 0.0000000000000000e+00  0.0000000000000000e+00 0.0000000000000000e+00 0.0000000000000000e+00  0.0000000000000000e+00 0.0000000000000000e+00 0.0000000000000000e+00  0.0000000000000000e+00 0.0000000000000000e+00 0.0000000000000000e+00  0.0000000000000000e+00 0.0000000000000000e+00 0.0000000000000000e+00  0.0000000000000000e+00 0.0000000000000000e+00 0.0000000000000000e+00  0.0000000000000000e+00 0.0000000000000000e+00 0.0000000000000000e+00  0.0000000000000000e+00 0.0000000000000000e+00 0.0000000000000000e+00  0.0000000000000000e+00 0.0000000000000000e+00 0.0000000000000000e+00  0.0000000000000000e+00 0.0000000000000000e+00 0.0000000000000000e+00  0.0000000000000000e+00 0.0000000000000000e+00 0.0000000000000000e+00  0.0000000000000000e+00 0.0000000000000000e+00 0.0000000000000000e+00  0.0000000000000000e+00 0.0000000000000000e+00 0.0000000000000000e+00  0.0000000000000000e+00 0.0000000000000000e+00 0.0000000000000000e+00  0.0000000000000000e+00 0.0000000000000000e+00 0.0000000000000000e+00  0.0000000000000000e+00 0.0000000000000000e+00 0.0000000000000000e+00  0.0000000000000000e+00 0.0000000000000000e+00 0.0000000000000000e+00  0.0000000000000000e+00 0.0000000000000000e+00 0.0000000000000000e+00  0.0000000000000000e+00 0.0000000000000000e+00 0.0000000000000000e+00  0.0000000000000000e+00 0.0000000000000000e+00 0.0000000000000000e+00  0.0000000000000000e+00 0.0000000000000000e+00 0.0000000000000000e+00  0.0000000000000000e+00 0.0000000000000000e+00 0.0000000000000000e+00  0.0000000000000000e+00 0.0000000000000000e+00 0.0000000000000000e+00  0.0000000000000000e+00 0.0000000000000000e+00 0.0000000000000000e+00  0.0000000000000000e+00 0.0000000000000000e+00 0.0000000000000000e+00  0.0000000000000000e+00 0.0000000000000000e+00 0.0000000000000000e+00  0.0000000000000000e+00 0.0000000000000000e+00 0.0000000000000000e+00  0.0000000000000000e+00 0.0000000000000000e+00 0.0000000000000000e+00  0.0000000000000000e+00 0.0000000000000000e+00 0.0000000000000000e+00  0.0000000000000000e+00 0.0000000000000000e+00 0.0000000000000000e+00  0.0000000000000000e+00 0.0000000000000000e+00 0.0000000000000000e+00  0.0000000000000000e+00 0.0000000000000000e+00 0.0000000000000000e+00  0.0000000000000000e+00 0.0000000000000000e+00 0.0000000000000000e+00  0.0000000000000000e+00 0.0000000000000000e+00 0.0000000000000000e+00  0.0000000000000000e+00 0.0000000000000000e+00 0.0000000000000000e+00  0.0000000000000000e+00 0.0000000000000000e+00 0.0000000000000000e+00  0.0000000000000000e+00 0.0000000000000000e+00 0.0000000000000000e+00  0.0000000000000000e+00 0.0000000000000000e+00 0.0000000000000000e+00  0.0000000000000000e+00 0.0000000000000000e+00 0.0000000000000000e+00  0.0000000000000000e+00 0.0000000000000000e+00 0.0000000000000000e+00  0.0000000000000000e+00 0.0000000000000000e+00 0.0000000000000000e+00  0.0000000000000000e+00 0.0000000000000000e+00 0.0000000000000000e+00  0.0000000000000000e+00 0.0000000000000000e+00 0.0000000000000000e+00  0.0000000000000000e+00 0.0000000000000000e+00 0.0000000000000000e+00  0.0000000000000000e+00 0.0000000000000000e+00 0.0000000000000000e+00  0.0000000000000000e+00 0.0000000000000000e+00 0.0000000000000000e+00  0.0000000000000000e+00 0.0000000000000000e+00 0.0000000000000000e+00  0.0000000000000000e+00 0.0000000000000000e+00 0.0000000000000000e+00  0.0000000000000000e+00 0.0000000000000000e+00 0.0000000000000000e+00  0.0000000000000000e+00 0.0000000000000000e+00 0.0000000000000000e+00  0.0000000000000000e+00 0.0000000000000000e+00 0.0000000000000000e+00  0.0000000000000000e+00 0.0000000000000000e+00 0.0000000000000000e+00  0.0000000000000000e+00 0.0000000000000000e+00 0.0000000000000000e+00  0.0000000000000000e+00 0.0000000000000000e+00 0.0000000000000000e+00  0.0000000000000000e+00 0.0000000000000000e+00 0.0000000000000000e+00  0.0000000000000000e+00 0.0000000000000000e+00 0.0000000000000000e+00  0.0000000000000000e+00 0.0000000000000000e+00 0.0000000000000000e+00  0.0000000000000000e+00 0.0000000000000000e+00 0.0000000000000000e+00  0.0000000000000000e+00 0.0000000000000000e+00 0.0000000000000000e+00  0.0000000000000000e+00 0.0000000000000000e+00 0.0000000000000000e+00  0.0000000000000000e+00 0.0000000000000000e+00 0.0000000000000000e+00  0.0000000000000000e+00 0.0000000000000000e+00 0.0000000000000000e+00  0.0000000000000000e+00 0.0000000000000000e+00 0.0000000000000000e+00  5.2385491712162971e-08 -5.8143589974825733e-06 0.0000000000000000e+00  2.7631617740967180e-07 -6.2489750540084264e-06 0.0000000000000000e+00  8.0102354236554172e-07 -6.3497858005114426e-06 0.0000000000000000e+00  1.4575784400368766e-06 -6.2593262565079156e-06 0.0000000000000000e+00  2.1572404265943357e-06 -6.1667047509535307e-06 0.0000000000000000e+00  2.8093824297092337e-06 -6.1138978325453331e-06 0.0000000000000000e+00  3.4355770653718605e-06 -6.0488858804409114e-06 0.0000000000000000e+00  4.0090021246872823e-06 -5.9769443012931293e-06 0.0000000000000000e+00  4.5505782474662752e-06 -5.9014648176255575e-06 0.0000000000000000e+00  5.0459678704129110e-06 -5.8131248936382214e-06 0.0000000000000000e+00  5.4994516190916121e-06 -5.7381823985639633e-06 0.0000000000000000e+00  5.9062210951711179e-06 -5.6464721251456427e-06 0.0000000000000000e+00  6.2608046595528935e-06 -5.5645161509806450e-06 0.0000000000000000e+00  6.5751173100479364e-06 -5.4947527334312599e-06 0.0000000000000000e+00  6.8218908955259799e-06 -5.4300882972970359e-06 0.0000000000000000e+00  7.0337300664774112e-06 -5.3922235304381695e-06 0.0000000000000000e+00  7.1791800256280602e-06 -5.3490597244649230e-06 0.0000000000000000e+00  7.2719924542175290e-06 -5.3544632716928929e-06 0.0000000000000000e+00  7.2995587241161716e-06 -5.3493370058934733e-06 0.0000000000000000e+00  7.2733126780306905e-06 -5.3941390473292506e-06 0.0000000000000000e+00  7.1782259398353705e-06 -5.4283306981821506e-06 0.0000000000000000e+00  7.0115943947202403e-06 -5.4947726030766575e-06 0.0000000000000000e+00  6.7935575221214140e-06 -5.5786768480162329e-06 0.0000000000000000e+00  6.4891962055138451e-06 -5.6685088359120707e-06 0.0000000000000000e+00  6.1367497587908479e-06 -5.7869265545046394e-06 0.0000000000000000e+00  5.7019793113437097e-06 -5.8866316760874238e-06 0.0000000000000000e+00  5.1950139104320335e-06 -6.0384208219422120e-06 0.0000000000000000e+00  4.6209432569725584e-06 -6.1575056666963601e-06 0.0000000000000000e+00  3.9714195861844807e-06 -6.3200891427823294e-06 0.0000000000000000e+00  3.2555103788924853e-06 -6.4594393390164274e-06 0.0000000000000000e+00  2.4679709646063892e-06 -6.6339292529077228e-06 0.0000000000000000e+00  1.6068269225478991e-06 -6.7870349105399092e-06 0.0000000000000000e+00  6.8464600497835004e-07 -6.9790277207071253e-06 0.0000000000000000e+00  -3.1621349835964763e-07 -7.1348308521050342e-06 0.0000000000000000e+00  -1.3958160368960283e-06 -7.3425134017631668e-06 0.0000000000000000e+00  -2.5400701009341571e-06 -7.5290207901857108e-06 0.0000000000000000e+00  -3.7522636716428833e-06 -7.7579648396226820e-06 0.0000000000000000e+00  -5.0330497030952941e-06 -7.9621194419986765e-06 0.0000000000000000e+00  -6.3872679746708110e-06 -8.2025868041218415e-06 0.0000000000000000e+00  -7.8167248684463449e-06 -8.4252451727549022e-06 0.0000000000000000e+00  -9.3196995972920273e-06 -8.6769260316765531e-06 0.0000000000000000e+00  -1.0881084767370740e-05 -8.9250510829478372e-06 0.0000000000000000e+00  -1.2533655098033913e-05 -9.1908204254683339e-06 0.0000000000000000e+00  -1.4230066604569171e-05 -9.4632925822899954e-06 0.0000000000000000e+00  -1.6003893240471456e-05 -9.7277258938070893e-06 0.0000000000000000e+00  -1.7834606600238877e-05 -1.0024645385626398e-05 0.0000000000000000e+00  -2.0061138518981292e-05 -8.9019714476658347e-06 0.0000000000000000e+00  -2.0562206068750301e-05 -5.8012991717897577e-06 0.0000000000000000e+00  -1.8840607223349669e-05 -3.9192938404897337e-06 0.0000000000000000e+00  -1.6989677065800136e-05 -3.4682652592939854e-06 0.0000000000000000e+00  -1.5194078421086435e-05 -3.0035069623185333e-06 0.0000000000000000e+00  -1.3471937387734666e-05 -2.5594024781070255e-06 0.0000000000000000e+00  -1.1798568349544187e-05 -2.1233489834657491e-06 0.0000000000000000e+00  -1.0216380802239841e-05 -1.6982123971283855e-06 0.0000000000000000e+00  -8.6877943488714295e-06 -1.2856088033375675e-06 0.0000000000000000e+00  -7.2390826770701822e-06 -8.7260266593681860e-07 0.0000000000000000e+00  -5.8547254752529166e-06 -4.8992488080300354e-07 0.0000000000000000e+00  -4.5460334007838970e-06 -8.6977011018977415e-08 0.0000000000000000e+00  -3.3073015063145599e-06 2.8178472135912730e-07 0.0000000000000000e+00  -2.1445893802327793e-06 6.6504972013379355e-07 0.0000000000000000e+00  -1.0504993214868188e-06 1.0096056438271381e-06 0.0000000000000000e+00  -2.9255406678585424e-08 1.3714923083305126e-06 0.0000000000000000e+00  9.2499307532168925e-07 1.6987076323143327e-06 0.0000000000000000e+00  1.8049072990282290e-06 2.0474614771336739e-06 0.0000000000000000e+00  2.6151701572365717e-06 2.3645346441862069e-06 0.0000000000000000e+00  3.3500174246869799e-06 2.6988510898128861e-06 0.0000000000000000e+00  4.0181452327268477e-06 2.9957429324427037e-06 0.0000000000000000e+00  4.6171457386394048e-06 3.3089667736222241e-06 0.0000000000000000e+00  5.1540138879655127e-06 3.5873842933670916e-06 0.0000000000000000e+00  5.6201196525738084e-06 3.8798777422934713e-06 0.0000000000000000e+00  6.0164148792587499e-06 4.1471441789533708e-06 0.0000000000000000e+00  6.3567575389408010e-06 4.4030725246048079e-06 0.0000000000000000e+00  6.6131472119289619e-06 4.6401964474737383e-06 0.0000000000000000e+00  6.8312109841416145e-06 4.8529440172934288e-06 0.0000000000000000e+00  6.9754795544408007e-06 5.0635232004540979e-06 0.0000000000000000e+00  7.0626464618603837e-06 5.2237002628946362e-06 0.0000000000000000e+00  7.0833479403840298e-06 5.3993058535899797e-06 0.0000000000000000e+00  7.0417161280790069e-06 5.5156179625654994e-06 0.0000000000000000e+00  6.9384701017820397e-06 5.6433153035766143e-06 0.0000000000000000e+00  6.7720007293159197e-06 5.7249645119104960e-06 0.0000000000000000e+00  6.5588158895373231e-06 5.8061711829460565e-06 0.0000000000000000e+00  6.2713773608395950e-06 5.8646375743495746e-06 0.0000000000000000e+00  5.9432245808714596e-06 5.9162867906949483e-06 0.0000000000000000e+00  5.5495366013586542e-06 5.9645532030937329e-06 0.0000000000000000e+00  5.1031688312078321e-06 5.9867141919772915e-06 0.0000000000000000e+00  4.6068786903611065e-06 6.0272820499162020e-06 0.0000000000000000e+00  4.0582184923370362e-06 6.0564136819249906e-06 0.0000000000000000e+00  3.4772148129467379e-06 6.0904306323184661e-06 0.0000000000000000e+00  2.8428864285560490e-06 6.1277314719016565e-06 0.0000000000000000e+00  2.1824851003811894e-06 6.1609027246790416e-06 0.0000000000000000e+00  1.4761077938271873e-06 6.2449616361638861e-06 0.0000000000000000e+00  8.2059789790738629e-07 6.3204174068857630e-06 0.0000000000000000e+00  2.8315379312820959e-07 6.2125322234251850e-06 0.0000000000000000e+00  3.2013743539906747e-08 5.7642943704392939e-06 0.0000000000000000e+00  -9.3007541578371275e-07 -5.4687739346799600e-08 0.0000000000000000e+00  -1.7438690523272806e-05 -6.8165883632737961e-06 0.0000000000000000e+00  -1.3972185772156174e-05 -6.1438939332757173e-06 0.0000000000000000e+00  -8.9281640916995922e-06 -5.0421882792781403e-06 0.0000000000000000e+00  1.1085376700831862e-06 -1.5345470041833780e-08 0.0000000000000000e+00  -6.1135043718257545e-06 -4.3734509122526119e-06 0.0000000000000000e+00  2.4554071987934178e-06 7.9895505935473186e-08 0.0000000000000000e+00  -3.5203256864243120e-06 -3.7658656447988898e-06 0.0000000000000000e+00  4.3363580819146486e-06 1.3121768747134952e-07 0.0000000000000000e+00  5.3030145999030286e-06 1.0182603586311102e-07 0.0000000000000000e+00  -1.2115449555315901e-06 -3.1966762778257289e-06 0.0000000000000000e+00  6.9134287855821821e-06 2.2223171483245079e-07 0.0000000000000000e+00  2.5497908386521643e-06 -2.1642762920956285e-06 0.0000000000000000e+00  6.0789388618424045e-06 2.2341821297569712e-07 0.0000000000000000e+00  7.1532129020867209e-06 6.6516200996942038e-08 0.0000000000000000e+00  4.0045238598752728e-06 -1.6904510914744281e-06 0.0000000000000000e+00  8.1187118986463948e-07 -2.6656395556402709e-06 0.0000000000000000e+00  7.1648173036648753e-06 -9.7557828314001973e-08 0.0000000000000000e+00  5.1800490537961791e-06 -1.2492045994072629e-06 0.0000000000000000e+00  6.9413610426365182e-06 -2.6447252712997344e-07 0.0000000000000000e+00  6.0717819510027176e-06 -9.1620310172497924e-07 0.0000000000000000e+00  6.5900479611065951e-06 -5.6495524804561587e-07 0.0000000000000000e+00  6.5328310222694620e-06 1.5074137061581675e-07 0.0000000000000000e+00  -1.1487695940839027e-05 -5.5447562414359253e-06 0.0000000000000000e+00  3.3956501085109801e-06 1.9941938716430169e-08 0.0000000000000000e+00  -1.5831458375228393e-05 -5.3665223498853153e-06 0.0000000000000000e+00  2.2439685693450268e-07 2.3503477593230981e-06 0.0000000000000000e+00  -4.9028301529467355e-06 -2.9656421058901594e-06 0.0000000000000000e+00  -7.6458886823082914e-06 -3.6382175174307904e-06 0.0000000000000000e+00  1.8135500162534135e-06 -2.2075113579831745e-06 0.0000000000000000e+00  4.8198094334765964e-06 -1.6505039088845172e-06 0.0000000000000000e+00  1.6142141918280910e-06 -1.1645313665318766e-06 0.0000000000000000e+00  -2.4450819506681252e-06 -2.3259955166857122e-06 0.0000000000000000e+00  7.0719954999542022e-06 -1.4760224015719461e-06 0.0000000000000000e+00  3.2165640173278281e-06 -6.2664529898015154e-07 0.0000000000000000e+00  5.7207482871641089e-06 -1.5648250488963115e-06 0.0000000000000000e+00  7.2163347571835008e-06 -1.5579600201849344e-06 0.0000000000000000e+00  4.5367957560636204e-06 -1.2083139433300084e-07 0.0000000000000000e+00  -2.7380983324040877e-07 -1.7281692504688627e-06 0.0000000000000000e+00  7.1312082303535490e-06 -2.0529328516727586e-06 0.0000000000000000e+00  5.5841160634869372e-06 3.4854740622021024e-07 0.0000000000000000e+00  -1.1328340502955226e-06 -1.4076825453369819e-06 0.0000000000000000e+00  -1.1152428035071685e-06 1.2550673990982180e-06 0.0000000000000000e+00  -1.8824084391203289e-05 -7.8196762441441350e-06 0.0000000000000000e+00  2.4274264832287693e-07 -2.6482121495777712e-06 0.0000000000000000e+00  6.26