<?xml version="1.0"?>
<VTKFile type="UnstructuredGrid"  version="0.1"  >
<UnstructuredGrid>
<Piece  NumberOfPoints="1419" NumberOfCells="2698">
<Points>
<DataArray  type="Float64"  NumberOfComponents="3"  format="ascii">0 0 0  0 0.41 0  2.5 0 0  2.5 0.41 0  0.6 0.19 0  0.6 0.21 0  0.25 0.2 0  0.15 0.2 0  0.2489897948556636 0.21 0  0.2489897948556636 0.19 0  0.6 0.2 0  0 0.3807142857143437 0  0 0.3514285714286952 0  0 0.3221428571430699 0  0 0.29285714285744 0  0 0.2635714285718054 0  0 0.2342857142861561 0  0 0.2050000000005308 0  0 0.175714285714732 0  0 0.1464285714289574 0  0 0.1171428571431897 0  0 0.08785714285737878 0  0 0.05857142857161107 0  0 0.02928571428580012 0  0.03015443760436003 0 0  0.06140001986583606 0 0  0.09377624077125973 0 0  0.1273239957535082 0 0  0.1620856860351972 0 0  0.1981052433264291 0 0  0.235428184091502 0 0  0.2741016576309132 0 0  0.3141745521465447 0 0  0.3556974926295285 0 0  0.3987229542472677 0 0  0.4433053055141081 0 0  0.4895008759286886 0 0  0.5373680609405097 0 0  0.5869673343216626 0 0  0.6383613676634521 0 0  0.6916151138468254 0 0  0.7467958595648856 0 0  0.8039733463919316 0 0  0.8632198139502143 0 0  0.9246101326867038 0 0  0.9882218810934433 0 0  1.054135445558498 0 0  1.122434100542598 0 0  1.193204177141305 0 0  1.266535089879536 0 0  1.342519516046404 0 0  1.421253448503939 0 0  1.502836389106271 0 0  1.587371439758838 0 0  1.674965418777374 0 0  1.765729001825544 0 0  1.859776908880082 0 0  1.957227977487062 0 0  2.058205329869943 0 0  2.162836591189951 0 0  2.271253957290865 0 0  2.383594446803425 0 0  2.5 0.1024999999997612 0  2.5 0.2049999999994743 0  2.5 0.3074999999997183 0  2.383594446803656 0.41 0  2.271253957291315 0.41 0  2.162836591190598 0.41 0  2.058205329870775 0.41 0  1.957227977488067 0.41 0  1.859776908881246 0.41 0  1.765729001826854 0.41 0  1.674965418778818 0.41 0  1.58737143976041 0.41 0  1.502836389107956 0.41 0  1.421253448505726 0.41 0  1.342519516048286 0.41 0  1.266535089881505 0.41 0  1.193204177143353 0.41 0  1.122434100544716 0.41 0  1.05413544556068 0.41 0  0.9882218810956305 0.41 0  0.9246101326886647 0.41 0  0.8632198139519631 0.41 0  0.8039733463934788 0.41 0  0.7467958595662458 0.41 0  0.6916151138480078 0.41 0  0.6383613676644679 0.41 0  0.5869673343225223 0.41 0  0.5373680609412221 0.41 0  0.4895008759292634 0.41 0  0.4433053055145528 0.41 0  0.3987229542475914 0.41 0  0.3556974926297398 0.41 0  0.3141745521466497 0.41 0  0.2741016576310038 0.41 0  0.2354281840915826 0.41 0  0.1981052433265003 0.41 0  0.1620856860352591 0.41 0  0.1273239957535623 0.41 0  0.09377624077128965 0.41 0  0.06140001986584975 0.41 0  0.03015443760436654 0.41 0  0.2497468076502589 0.2050254481002335 0  0.2497468076502614 0.1949745518997913 0  0.2469965252529372 0.1829317073451959 0  0.2439893735792749 0.1762316384219906 0  0.2400332147834255 0.1700443375285386 0  0.2352133972704371 0.1645032867342007 0  0.2296339016332438 0.1597280261969788 0  0.2234150974217223 0.1558215752574715 0  0.2166911463437691 0.1528682099456123 0  0.2096071079204251 0.1509316448471593 0  0.2023158100364996 0.1500536585536553 0  0.194974551899914 0.1502531923497262 0  0.1877417105387872 0.1515259415822739 0  0.1807733240461124 0.153844448527136 0  0.1742197252835808 0.15715869474974 0  0.1682222986673531 0.1613971801805478 0  0.162910430003803 0.1664684656256651 0  0.1583987151779087 0.1722631454351573 0  0.1547844879126891 0.178656207771761 0  0.1521457199348551 0.1855097315605723 0  0.1505393388476355 0.1926758619366523 0  0.1505393388476328 0.2073241380633295 0  0.1521457199348437 0.2144902684393899 0  0.1547844879126531 0.221343792228163 0  0.1583987151778488 0.2277368545647528 0  0.1629104300036858 0.2335315343742052 0  0.1682222986671726 0.2386028198193036 0  0.1742197252833576 0.2428413052501257 0  0.1807733240458683 0.2461555514727623 0  0.1877417105384929 0.2484740584176516 0  0.1949745518995776 0.2497468076502398 0  0.202315810036185 0.2499463414463592 0  0.2096071079201568 0.2490683551528932 0  0.2166911463435495 0.2471317900544655 0  0.2234150974215506 0.2441784247426195 0  0.2296339016331197 0.2402719738031125 0  0.2352133972703547 0.2354967132658811 0  0.2400332147833751 0.2299556624715287 0  0.2439893735792577 0.2237683615780412 0  0.246996525252926 0.2170682926548348 0  0.25645809709277 0.21 0  0.2639263993298655 0.21 0  0.271394701566961 0.21 0  0.2788630038040554 0.21 0  0.2863313060411479 0.21 0  0.2937996082782405 0.21 0  0.301267910515333 0.21 0  0.3087362127524279 0.21 0  0.3162045149895234 0.21 0  0.3236728172265972 0.21 0  0.3311411194636928 0.21 0  0.3386094217007701 0.21 0  0.3460777239378666 0.21 0  0.3535460261749672 0.21 0  0.3610143284120516 0.21 0  0.3684826306491596 0.21 0  0.3759509328862226 0.21 0  0.383419235123329 0.21 0  0.3908875373604028 0.21 0  0.3983558395975142 0.21 0  0.4058241418345938 0.21 0  0.4132924440716992 0.21 0  0.4207607463087888 0.21 0  0.4282290485459029 0.21 0  0.4356973507830418 0.21 0  0.4431656530201649 0.21 0  0.4506339552573136 0.21 0  0.4581022574944306 0.21 0  0.4655705597315852 0.21 0  0.4730388619686996 0.21 0  0.480507164205851 0.21 0  0.4879754664429498 0.21 0  0.4954437686800938 0.21 0  0.502912070917267 0.21 0  0.5103803731544119 0.21 0  0.5178486753915261 0.21 0  0.5253169776286404 0.21 0  0.5327852798657868 0.21 0  0.5402535821029386 0.21 0  0.54772188434007 0.21 0  0.5551901865771842 0.21 0  0.5626584888143201 0.21 0  0.5701267910514778 0.21 0  0.5775950932886138 0.21 0  0.5850633955257281 0.21 0  0.5925316977628483 0.21 0  0.6 0.2050000000000054 0  0.6 0.1950000000000217 0  0.5925316977628897 0.19 0  0.5850633955257988 0.19 0  0.5775950932887378 0.19 0  0.5701267910515998 0.19 0  0.5626584888145268 0.19 0  0.5551901865773963 0.19 0  0.547721884340339 0.19 0  0.5402535821032429 0.19 0  0.5327852798661811 0.19 0  0.5253169776290537 0.19 0  0.5178486753919799 0.19 0  0.5103803731549078 0.19 0  0.502912070917822 0.19 0  0.4954437686807294 0.19 0  0.4879754664436223 0.19 0  0.4805071642065402 0.19 0  0.4730388619694271 0.19 0  0.4655705597323621 0.19 0  0.4581022574952563 0.19 0  0.4506339552581777 0.19 0  0.4431656530210671 0.19 0  0.4356973507839815 0.19 0  0.4282290485468779 0.19 0  0.4207607463097617 0.19 0  0.4132924440726327 0.19 0  0.4058241418354857 0.19 0  0.3983558395983636 0.19 0  0.3908875373612097 0.19 0  0.3834192351240934 0.19 0  0.3759509328869369 0.19 0  0.3684826306498175 0.19 0  0.361014328412667 0.19 0  0.3535460261755617 0.19 0  0.3460777239384295 0.19 0  0.3386094217012945 0.19 0  0.3311411194641595 0.19 0  0.3236728172270245 0.19 0  0.3162045149898895 0.19 0  0.3087362127527544 0.19 0  0.3012679105156187 0.19 0  0.2937996082784807 0.19 0  0.2863313060413428 0.19 0  0.2788630038042048 0.19 0  0.2713947015670686 0.19 0  0.2639263993299336 0.19 0  0.2564580970927985 0.19 0  0.2607803159922026 0.2000727136295815 0  0.5887803774232762 0.2001272386983733 0  0.5745072403740523 0.2002044435018727 0  0.5511891430099709 0.2001122610077113 0  0.2751288526855082 0.20000000000002 0  0.5365194309847112 0.1999999999999436 0  0.2894621222999649 0.1998691686390484 0  0.5215828265105155 0.1999999999999228 0  0.3127789816668748 0.1998657885438805 0  0.3274069683451451 0.2000000000000796 0  0.5066462220363641 0.199999999999908 0  0.3650630746574081 0.199866017807523 0  0.476773013087985 0.1999999999998713 0  0.3417402379596385 0.1998691686391011 0  0.3796850840047755 0.200000000000134 0  0.4618364086138087 0.1999999999998546 0  0.4917096175621762 0.1999999999998808 0  0.3946216884789568 0.2000000000001512 0  0.446899804139621 0.1999999999998389 0  0.4089549580935208 0.1998691686391595 0  0.4322718174608562 0.200127451265745 0  0.4201487168029707 0.1999966199048527 0  0.3528922713220932 0.2000185703532356 0  0.5633122436674589 0.1999814296467508 0  0.3006558810093873 0.1999966199048318 0  0.5815926498168407 0.1966545283159175 0  0.2677053789419034 0.1964246479135325 0  0.5290511287476175 0.1970915826863981 0  0.5439877332217911 0.197091582686394 0  0.2825131256993216 0.2035478995978015 0  0.3199386661080599 0.202908417313604 0  0.4842413153250809 0.1970915826863873 0  0.5141145242734466 0.1970915826863843 0  0.3722167817676917 0.2029084173136195 0  0.4693047108508938 0.1970915826863783 0  0.3348752705822316 0.202908417313609 0  0.3871533862418661 0.2029084173136212 0  0.4543681063767183 0.1970915826863795 0  0.4991779197992749 0.1970915826863902 0  0.4020059614928624 0.203547899597858 0  0.4394315019025246 0.1970915826863714 0  0.2550657455369551 0.2034088125358657 0  0.2548908499171161 0.1966940311614271 0  0.5946539510196798 0.2024302972968126 0  0.267698176732111 0.2039977513680092 0  0.4261685417851465 0.196409292431739 0  0.3590076176283495 0.196411355804271 0  0.5571672426447437 0.2036011176410121 0  0.3066757059912147 0.1964092924317024 0  0.594380730180568 0.1966558399668133 0  0.4842413153245942 0.2040749161535287 0  0.4693047108503577 0.2040749161535231 0  0.3871533862424271 0.1959250838464788 0  0.372246743208829 0.1959123236376545 0  0.5141145242731028 0.2040749161535395 0  0.4543681063761134 0.2040749161535186 0  0.4019979587101454 0.1959834479682427 0  0.4394608940728603 0.2040870543693135 0  0.5439623148931173 0.2040856076781014 0  0.5290511287473298 0.2040749161535501 0  0.4991779197988497 0.2040749161535382 0  0.3347912413592433 0.1959225448935183 0  0.3199680582793816 0.1959123018030061 0  0.2825051229162361 0.1959834479681729 0  0.3590471196690275 0.2036304442587945 0  0.5571594006495384 0.1963685282145804 0  0.3067669986803285 0.203627750582736 0  0.4262598344738712 0.2036568242185335 0  0.5814408164431408 0.2041285596160068 0  0.5688286748170428 0.1961819304477386 0  0.4145905603063645 0.2038180695522843 0  0.3473758401724931 0.2038180695522752 0  0.2950977245128307 0.2038180695522663 0  0.5688286748170693 0.203818069552238 0  0.2950977245127906 0.1961819304477774 0  0.3473758401723931 0.1961819304478349 0  0.4145905603061963 0.1961819304479011 0  0.2601812407614425 0.2056861609747042
[...]
<PointData  Vectors="f_40-0"> 
<DataArray  type="Float64"  Name="f_40-0"  NumberOfComponents="3" format="ascii">0.0000000000000000e+00 0.0000000000000000e+00 0.0000000000000000e+00  0.0000000000000000e+00 0.0000000000000000e+00 0.0000000000000000e+00  0.0000000000000000e+00 0.0000000000000000e+00 0.0000000000000000e+00  0.0000000000000000e+00 0.0000000000000000e+00 0.0000000000000000e+00  -4.4192534752979419e-05 -4.3290634423849854e-05 0.0000000000000000e+00  -3.9407993194222839e-05 -4.9339431515515245e-05 0.0000000000000000e+00  0.0000000000000000e+00 0.0000000000000000e+00 0.0000000000000000e+00  0.0000000000000000e+00 0.0000000000000000e+00 0.0000000000000000e+00  0.0000000000000000e+00 0.0000000000000000e+00 0.0000000000000000e+00  0.0000000000000000e+00 0.0000000000000000e+00 0.0000000000000000e+00  -4.2145981933439457e-05 -4.6318472179236716e-05 0.0000000000000000e+00  6.0881811025296929e-03 0.0000000000000000e+00 0.0000000000000000e+00  1.1239718958517102e-02 0.0000000000000000e+00 0.0000000000000000e+00  1.5454613567961017e-02 0.0000000000000000e+00 0.0000000000000000e+00  1.8732864930866320e-02 0.0000000000000000e+00 0.0000000000000000e+00  2.1074473047232582e-02 0.0000000000000000e+00 0.0000000000000000e+00  2.2479437917059666e-02 0.0000000000000000e+00 0.0000000000000000e+00  2.2947759540346169e-02 0.0000000000000000e+00 0.0000000000000000e+00  2.2479437917088070e-02 0.0000000000000000e+00 0.0000000000000000e+00  2.1074473047281373e-02 0.0000000000000000e+00 0.0000000000000000e+00  1.8732864930926744e-02 0.0000000000000000e+00 0.0000000000000000e+00  1.5454613568018421e-02 0.0000000000000000e+00 0.0000000000000000e+00  1.1239718958566085e-02 0.0000000000000000e+00 0.0000000000000000e+00  6.0881811025572923e-03 0.0000000000000000e+00 0.0000000000000000e+00  0.0000000000000000e+00 0.0000000000000000e+00 0.0000000000000000e+00  0.0000000000000000e+00 0.0000000000000000e+00 0.0000000000000000e+00  0.0000000000000000e+00 0.0000000000000000e+00 0.0000000000000000e+00  0.0000000000000000e+00 0.0000000000000000e+00 0.0000000000000000e+00  0.0000000000000000e+00 0.0000000000000000e+00 0.0000000000000000e+00  0.0000000000000000e+00 0.0000000000000000e+00 0.0000000000000000e+00  0.0000000000000000e+00 0.0000000000000000e+00 0.0000000000000000e+00  0.0000000000000000e+00 0.0000000000000000e+00 0.0000000000000000e+00  0.0000000000000000e+00 0.0000000000000000e+00 0.0000000000000000e+00  0.0000000000000000e+00 0.0000000000000000e+00 0.0000000000000000e+00  0.0000000000000000e+00 0.0000000000000000e+00 0.0000000000000000e+00  0.0000000000000000e+00 0.0000000000000000e+00 0.0000000000000000e+00  0.0000000000000000e+00 0.0000000000000000e+00 0.0000000000000000e+00  0.0000000000000000e+00 0.0000000000000000e+00 0.0000000000000000e+00  0.0000000000000000e+00 0.0000000000000000e+00 0.0000000000000000e+00  0.0000000000000000e+00 0.0000000000000000e+00 0.0000000000000000e+00  0.0000000000000000e+00 0.0000000000000000e+00 0.0000000000000000e+00  0.0000000000000000e+00 0.0000000000000000e+00 0.0000000000000000e+00  0.0000000000000000e+00 0.0000000000000000e+00 0.0000000000000000e+00  0.0000000000000000e+00 0.0000000000000000e+00 0.0000000000000000e+00  0.0000000000000000e+00 0.0000000000000000e+00 0.0000000000000000e+00  0.0000000000000000e+00 0.0000000000000000e+00 0.0000000000000000e+00  0.0000000000000000e+00 0.0000000000000000e+00 0.0000000000000000e+00  0.0000000000000000e+00 0.0000000000000000e+00 0.0000000000000000e+00  0.0000000000000000e+00 0.0000000000000000e+00 0.0000000000000000e+00  0.0000000000000000e+00 0.0000000000000000e+00 0.0000000000000000e+00  0.0000000000000000e+00 0.0000000000000000e+00 0.0000000000000000e+00  0.0000000000000000e+00 0.0000000000000000e+00 0.0000000000000000e+00  0.0000000000000000e+00 0.0000000000000000e+00 0.0000000000000000e+00  0.0000000000000000e+00 0.0000000000000000e+00 0.0000000000000000e+00  0.0000000000000000e+00 0.0000000000000000e+00 0.0000000000000000e+00  0.0000000000000000e+00 0.0000000000000000e+00 0.0000000000000000e+00  0.0000000000000000e+00 0.0000000000000000e+00 0.0000000000000000e+00  0.0000000000000000e+00 0.0000000000000000e+00 0.0000000000000000e+00  0.0000000000000000e+00 0.0000000000000000e+00 0.0000000000000000e+00  0.0000000000000000e+00 0.0000000000000000e+00 0.0000000000000000e+00  0.0000000000000000e+00 0.0000000000000000e+00 0.0000000000000000e+00  0.0000000000000000e+00 0.0000000000000000e+00 0.0000000000000000e+00  2.1953798978072127e-02 9.0219626579473883e-04 0.0000000000000000e+00  1.5423232101267170e-02 -1.1336370092306989e-04 0.0000000000000000e+00  2.1933101838229996e-02 -1.2731504717707909e-03 0.0000000000000000e+00  0.0000000000000000e+00 0.0000000000000000e+00 0.0000000000000000e+00  0.0000000000000000e+00 0.0000000000000000e+00 0.0000000000000000e+00  0.0000000000000000e+00 0.0000000000000000e+00 0.0000000000000000e+00  0.0000000000000000e+00 0.0000000000000000e+00 0.0000000000000000e+00  0.0000000000000000e+00 0.0000000000000000e+00 0.0000000000000000e+00  0.0000000000000000e+00 0.0000000000000000e+00 0.0000000000000000e+00  0.0000000000000000e+00 0.0000000000000000e+00 0.0000000000000000e+00  0.0000000000000000e+00 0.0000000000000000e+00 0.0000000000000000e+00  0.0000000000000000e+00 0.0000000000000000e+00 0.0000000000000000e+00  0.0000000000000000e+00 0.0000000000000000e+00 0.0000000000000000e+00  0.0000000000000000e+00 0.0000000000000000e+00 0.0000000000000000e+00  0.0000000000000000e+00 0.0000000000000000e+00 0.0000000000000000e+00  0.0000000000000000e+00 0.0000000000000000e+00 0.0000000000000000e+00  0.0000000000000000e+00 0.0000000000000000e+00 0.0000000000000000e+00  0.0000000000000000e+00 0.0000000000000000e+00 0.0000000000000000e+00  0.0000000000000000e+00 0.0000000000000000e+00 0.0000000000000000e+00  0.0000000000000000e+00 0.0000000000000000e+00 0.0000000000000000e+00  0.0000000000000000e+00 0.0000000000000000e+00 0.0000000000000000e+00  0.0000000000000000e+00 0.0000000000000000e+00 0.0000000000000000e+00  0.0000000000000000e+00 0.0000000000000000e+00 0.0000000000000000e+00  0.0000000000000000e+00 0.0000000000000000e+00 0.0000000000000000e+00  0.0000000000000000e+00 0.0000000000000000e+00 0.0000000000000000e+00  0.0000000000000000e+00 0.0000000000000000e+00 0.0000000000000000e+00  0.0000000000000000e+00 0.0000000000000000e+00 0.0000000000000000e+00  0.0000000000000000e+00 0.0000000000000000e+00 0.0000000000000000e+00  0.0000000000000000e+00 0.0000000000000000e+00 0.0000000000000000e+00  0.0000000000000000e+00 0.0000000000000000e+00 0.0000000000000000e+00  0.0000000000000000e+00 0.0000000000000000e+00 0.0000000000000000e+00  0.0000000000000000e+00 0.0000000000000000e+00 0.0000000000000000e+00  0.0000000000000000e+00 0.0000000000000000e+00 0.0000000000000000e+00  0.0000000000000000e+00 0.0000000000000000e+00 0.0000000000000000e+00  0.0000000000000000e+00 0.0000000000000000e+00 0.0000000000000000e+00  0.0000000000000000e+00 0.0000000000000000e+00 0.0000000000000000e+00  0.0000000000000000e+00 0.0000000000000000e+00 0.0000000000000000e+00  0.0000000000000000e+00 0.0000000000000000e+00 0.0000000000000000e+00  0.0000000000000000e+00 0.0000000000000000e+00 0.0000000000000000e+00  0.0000000000000000e+00 0.0000000000000000e+00 0.0000000000000000e+00  0.0000000000000000e+00 0.0000000000000000e+00 0.0000000000000000e+00  0.0000000000000000e+00 0.0000000000000000e+00 0.0000000000000000e+00  0.0000000000000000e+00 0.0000000000000000e+00 0.0000000000000000e+00  0.0000000000000000e+00 0.0000000000000000e+00 0.0000000000000000e+00  0.0000000000000000e+00 0.0000000000000000e+00 0.0000000000000000e+00  0.0000000000000000e+00 0.0000000000000000e+00 0.0000000000000000e+00  0.0000000000000000e+00 0.0000000000000000e+00 0.0000000000000000e+00  0.0000000000000000e+00 0.0000000000000000e+00 0.0000000000000000e+00  0.0000000000000000e+00 0.0000000000000000e+00 0.0000000000000000e+00  0.0000000000000000e+00 0.0000000000000000e+00 0.0000000000000000e+00  0.0000000000000000e+00 0.0000000000000000e+00 0.0000000000000000e+00  0.0000000000000000e+00 0.0000000000000000e+00 0.0000000000000000e+00  0.0000000000000000e+00 0.0000000000000000e+00 0.0000000000000000e+00  0.0000000000000000e+00 0.0000000000000000e+00 0.0000000000000000e+00  0.0000000000000000e+00 0.0000000000000000e+00 0.0000000000000000e+00  0.0000000000000000e+00 0.0000000000000000e+00 0.0000000000000000e+00  0.0000000000000000e+00 0.0000000000000000e+00 0.0000000000000000e+00  0.0000000000000000e+00 0.0000000000000000e+00 0.0000000000000000e+00  0.0000000000000000e+00 0.0000000000000000e+00 0.0000000000000000e+00  0.0000000000000000e+00 0.0000000000000000e+00 0.0000000000000000e+00  0.0000000000000000e+00 0.0000000000000000e+00 0.0000000000000000e+00  0.0000000000000000e+00 0.0000000000000000e+00 0.0000000000000000e+00  0.0000000000000000e+00 0.0000000000000000e+00 0.0000000000000000e+00  0.0000000000000000e+00 0.0000000000000000e+00 0.0000000000000000e+00  0.0000000000000000e+00 0.0000000000000000e+00 0.0000000000000000e+00  0.0000000000000000e+00 0.0000000000000000e+00 0.0000000000000000e+00  0.0000000000000000e+00 0.0000000000000000e+00 0.0000000000000000e+00  0.0000000000000000e+00 0.0000000000000000e+00 0.0000000000000000e+00  0.0000000000000000e+00 0.0000000000000000e+00 0.0000000000000000e+00  0.0000000000000000e+00 0.0000000000000000e+00 0.0000000000000000e+00  0.0000000000000000e+00 0.0000000000000000e+00 0.0000000000000000e+00  0.0000000000000000e+00 0.0000000000000000e+00 0.0000000000000000e+00  0.0000000000000000e+00 0.0000000000000000e+00 0.0000000000000000e+00  0.0000000000000000e+00 0.0000000000000000e+00 0.0000000000000000e+00  0.0000000000000000e+00 0.0000000000000000e+00 0.0000000000000000e+00  0.0000000000000000e+00 0.0000000000000000e+00 0.0000000000000000e+00  0.0000000000000000e+00 0.0000000000000000e+00 0.0000000000000000e+00  0.0000000000000000e+00 0.0000000000000000e+00 0.0000000000000000e+00  0.0000000000000000e+00 0.0000000000000000e+00 0.0000000000000000e+00  0.0000000000000000e+00 0.0000000000000000e+00 0.0000000000000000e+00  0.0000000000000000e+00 0.0000000000000000e+00 0.0000000000000000e+00  -5.8304591485561019e-07 -4.7234987302744649e-06 0.0000000000000000e+00  -1.0398331604103377e-06 -5.0722018864507704e-06 0.0000000000000000e+00  -1.2616980618687674e-06 -5.1685213904242877e-06 0.0000000000000000e+00  -1.3683995194331876e-06 -5.1308752633394993e-06 0.0000000000000000e+00  -1.4481557328392164e-06 -5.1185988794769561e-06 0.0000000000000000e+00  -1.5582884508241396e-06 -5.1839924854721467e-06 0.0000000000000000e+00  -1.6995110212344105e-06 -5.2758427370968090e-06 0.0000000000000000e+00  -1.8827824187571286e-06 -5.4173208535569944e-06 0.0000000000000000e+00  -2.0785749150766464e-06 -5.6022307621411529e-06 0.0000000000000000e+00  -2.3307046251324905e-06 -5.8258335219660895e-06 0.0000000000000000e+00  -2.5995039208726465e-06 -6.1195215975128487e-06 0.0000000000000000e+00  -2.9246008560278890e-06 -6.4481128035899408e-06 0.0000000000000000e+00  -3.2755875204589301e-06 -6.8409918275691989e-06 0.0000000000000000e+00  -3.6716864954065633e-06 -7.2874753675282659e-06 0.0000000000000000e+00  -4.1144759807015125e-06 -7.7899652090858505e-06 0.0000000000000000e+00  -4.5713311075929273e-06 -8.3577150256782365e-06 0.0000000000000000e+00  -5.0931295506528509e-06 -8.9612046721486609e-06 0.0000000000000000e+00  -5.6352661921178522e-06 -9.6518435163921749e-06 0.0000000000000000e+00  -6.2386389938820181e-06 -1.0370401281378568e-05 0.0000000000000000e+00  -6.8615200566371833e-06 -1.1173312131777593e-05 0.0000000000000000e+00  -7.5420699224795792e-06 -1.2007128864343553e-05 0.0000000000000000e+00  -8.2561854756465671e-06 -1.2914499870386402e-05 0.0000000000000000e+00  -9.0133521906438056e-06 -1.3871232476914277e-05 0.0000000000000000e+00  -9.8177819730996365e-06 -1.4879553718368579e-05 0.0000000000000000e+00  -1.0640732769876483e-05 -1.5951099884953770e-05 0.0000000000000000e+00  -1.1520175510009119e-05 -1.7053079440068440e-05 0.0000000000000000e+00  -1.2440243393802559e-05 -1.8238703322494391e-05 0.0000000000000000e+00  -1.3402254511437173e-05 -1.9442529195357475e-05 0.0000000000000000e+00  -1.4404295038090765e-05 -2.0720520614480015e-05 0.0000000000000000e+00  -1.5449127408379847e-05 -2.2022462908328619e-05 0.0000000000000000e+00  -1.6531416767536858e-05 -2.3390513579181358e-05 0.0000000000000000e+00  -1.7661027837386936e-05 -2.4777851215575650e-05 0.0000000000000000e+00  -1.8824677887367972e-05 -2.6231617850965523e-05 0.0000000000000000e+00  -2.0036463682516502e-05 -2.7692597089055640e-05 0.0000000000000000e+00  -2.1290071290394806e-05 -2.9220216428016362e-05 0.0000000000000000e+00  -2.2586198719145435e-05 -3.0752193899830125e-05 0.0000000000000000e+00  -2.3921666066530554e-05 -3.2339288040822771e-05 0.0000000000000000e+00  -2.5301770539346922e-05 -3.3929531193475491e-05 0.0000000000000000e+00  -2.6723761672907391e-05 -3.5568083693376620e-05 0.0000000000000000e+00  -2.8192762050546425e-05 -3.7204654312031583e-05 0.0000000000000000e+00  -2.9706553235166242e-05 -3.8874256258662023e-05 0.0000000000000000e+00  -3.1258420843628031e-05 -4.0546768169510817e-05 0.0000000000000000e+00  -3.2859872134607823e-05 -4.2239288368144013e-05 0.0000000000000000e+00  -3.4483938182337714e-05 -4.3933909520512955e-05 0.0000000000000000e+00  -3.6156416954436957e-05 -4.5624486379488309e-05 0.0000000000000000e+00  -3.7829123074809506e-05 -4.7370755120752442e-05 0.0000000000000000e+00  -4.0898023391335012e-05 -4.7818942726733837e-05 0.0000000000000000e+00  -4.3267295409663824e-05 -4.4818572137183371e-05 0.0000000000000000e+00  -4.2584571308350092e-05 -4.1709080808498012e-05 0.0000000000000000e+00  -4.0889533974038889e-05 -3.9896213617078520e-05 0.0000000000000000e+00  -3.9192316638559590e-05 -3.8060614580336842e-05 0.0000000000000000e+00  -3.7535810151843105e-05 -3.6247654847016260e-05 0.0000000000000000e+00  -3.5902667773942448e-05 -3.4445101074786968e-05 0.0000000000000000e+00  -3.4316794090909133e-05 -3.2657765448882307e-05 0.0000000000000000e+00  -3.2754455318117301e-05 -3.0887422486718066e-05 0.0000000000000000e+00  -3.1239303160648688e-05 -2.9126055720557253e-05 0.0000000000000000e+00  -2.9750956197065945e-05 -2.7403591094769029e-05 0.0000000000000000e+00  -2.8306681447987485e-05 -2.5684703803779887e-05 0.0000000000000000e+00  -2.6888540220999374e-05 -2.4013505564224394e-05 0.0000000000000000e+00  -2.5516136766682385e-05 -2.2352608571084353e-05 0.0000000000000000e+00  -2.4167349325383491e-05 -2.0744366186897912e-05 0.0000000000000000e+00  -2.2865909162247320e-05 -1.9150641411777103e-05 0.0000000000000000e+00  -2.1587259579524896e-05 -1.7616010574574144e-05 0.0000000000000000e+00  -2.0357506132160873e-05 -1.6101139968580939e-05 0.0000000000000000e+00  -1.9149577314643776e-05 -1.4648317474527193e-05 0.0000000000000000e+00  -1.7993641743797126e-05 -1.3219185782995887e-05 0.0000000000000000e+00  -1.6858313193794203e-05 -1.1858316677097762e-05 0.0000000000000000e+00  -1.5775964411269127e-05 -1.0524070079588718e-05 0.0000000000000000e+00  -1.4713533515478691e-05 -9.2607550580349212e-06 0.0000000000000000e+00  -1.3705688270195748e-05 -8.0283317789637826e-06 0.0000000000000000e+00  -1.2724716375797008e-05 -6.8604861515178396e-06 0.0000000000000000e+00  -1.1786559384202100e-05 -5.7400490265427498e-06 0.0000000000000000e+00  -1.0896509101321991e-05 -4.6791170601030749e-06 0.0000000000000000e+00  -1.0018513156725373e-05 -3.6713508495431794e-06 0.0000000000000000e+00  -9.1976991192405979e-06 -2.7077946574212135e-06 0.0000000000000000e+00  -8.4082898064832510e-06 -1.8274177897502814e-06 0.0000000000000000e+00  -7.6660550351037300e-06 -9.7334712945888013e-07 0.0000000000000000e+00  -6.9589382635626001e-06 -2.0759100741348723e-07 0.0000000000000000e+00  -6.2979275725003398e-06 5.3285262016899418e-07 0.0000000000000000e+00  -5.6729776875308523e-06 1.1871515360381095e-06 0.0000000000000000e+00  -5.0899079133260225e-06 1.8063086062858226e-06 0.0000000000000000e+00  -4.5563814801677327e-06 2.3517259157081563e-06 0.0000000000000000e+00  -4.0400064631534905e-06 2.8536183356782801e-06 0.0000000000000000e+00  -3.5809105331375525e-06 3.3005257389099069e-06 0.0000000000000000e+00  -3.1597005550401231e-06 3.6745574591208914e-06 0.0000000000000000e+00  -2.7858579105475084e-06 4.0180585352854642e-06 0.0000000000000000e+00  -2.4526220944490896e-06 4.2948102980870731e-06 0.0000000000000000e+00  -2.1607135369106336e-06 4.5350840801239724e-06 0.0000000000000000e+00  -1.9205806789941002e-06 4.7258294757567909e-06 0.0000000000000000e+00  -1.7000039364217226e-06 4.8766557708465363e-06 0.0000000000000000e+00  -1.5401551806364135e-06 5.0327628138305810e-06 0.0000000000000000e+00  -1.3522179943579428e-06 5.1400792956423399e-06 0.0000000000000000e+00  -1.0866287678406135e-06 5.0725766932110912e-06 0.0000000000000000e+00  -6.1241050078697707e-07 4.7018054120070822e-06 0.0000000000000000e+00  -1.7701601108715289e-06 -2.0044262968029881e-08 0.0000000000000000e+00  -3.9449474622686254e-05 -4.3674378382167059e-05 0.0000000000000000e+00  -3.6138991108571046e-05 -4.0322504818618383e-05 0.0000000000000000e+00  -3.1187782809827937e-05 -3.4866211719283748e-05 0.0000000000000000e+00  -1.4228142739837349e-06 -1.3413680499723316e-08 0.0000000000000000e+00  -2.8287586098625042e-05 -3.1488915632499245e-05 0.0000000000000000e+00  -1.6556465193924360e-06 -7.1137019267070931e-08 0.0000000000000000e+00  -2.5458238110121581e-05 -2.8175283324077165e-05 0.0000000000000000e+00  -2.3351420408106460e-06 -5.8433621963951713e-07 0.0000000000000000e+00  -2.9453466995613657e-06 -1.2025604711765068e-06 0.0000000000000000e+00  -2.2784798121036475e-05 -2.4976764417390876e-05 0.0000000000000000e+00  -5.2198057330821113e-06 -3.5280016842182780e-06 0.0000000000000000e+00  -1.7903690834230588e-05 -1.9006947406069588e-05 0.0000000000000000e+00  -3.6915028748907227e-06 -1.8793645969953481e-06 0.0000000000000000e+00  -6.3679423220932588e-06 -4.9045820859464278e-06 0.0000000000000000e+00  -1.5695833360788198e-05 -1.6274329934283826e-05 0.0000000000000000e+00  -2.0266552073279834e-05 -2.1913359167174153e-05 0.0000000000000000e+00  -7.7049642724367293e-06 -6.4748534544482994e-06 0.0000000000000000e+00  -1.3644294085992841e-05 -1.3731247967257894e-05 0.0000000000000000e+00  -9.1515193451773888e-06 -8.1411846460889212e-06 0.0000000000000000e+00  -1.1763424532620347e-05 -1.1485341474096794e-05 0.0000000000000000e+00  -1.0373308027810665e-05 -9.6928992275054201e-06 0.0000000000000000e+00  -4.3777555768733414e-06 -2.6763526032962964e-06 0.0000000000000000e+00  -3.3770828075714813e-05 -3.7636578370482214e-05 0.0000000000000000e+00  -1.9487194751929508e-06 -3.3580841158761338e-07 0.0000000000000000e+00  -3.8583327616511908e-05 -4.0973770722405292e-05 0.0000000000000000e+00  -1.4776520356127350e-06 1.9328388520160820e-06 0.0000000000000000e+00  -2.7495526073007930e-05 -2.8863201649787540e-05 0.0000000000000000e+00  -3.0419583881786170e-05 -3.2255112937721677e-05 0.0000000000000000e+00  -1.4879692009297123e-06 -1.8495342274319275e-06 0.0000000000000000e+00  -2.5019970072642143e-06 -2.2897443165839967e-06 0.0000000000000000e+00  -1.9629522585751244e-05 -1.9392429165945088e-05 0.0000000000000000e+00  -2.4722275811067956e-05 -2.5574062154224800e-05 0.0000000000000000e+00  -5.4963575235957765e-06 -5.4919652226047954e-06 0.0000000000000000e+00  -1.7310408643473605e-05 -1.6540196865345864e-05 0.0000000000000000e+00  -3.1623783433609003e-06 -2.9283531389141394e-06 0.0000000000000000e+00  -6.7124046146157526e-06 -6.9192889288683160e-06 0.0000000000000000e+00  -1.5144483281938847e-05 -1.3870177088049326e-05 0.0000000000000000e+00  -2.2100305100612643e-05 -2.2409778907579221e-05 0.0000000000000000e+00  -7.9989903190424102e-06 -8.8338061068217320e-06 0.0000000000000000e+00  -1.3132286652747933e-05 -1.1395973171548314e-05 0.0000000000000000e+00  -1.4049193951052773e-06 -1.1240645592042224e-06 0.0000000000000000e+00  -1.3782099354046945e-06 1.0257899293337812e-06 0.0000000000000000e+00  -4.0298566757398221e-05 