<?xml version="1.0"?>
<VTKFile type="UnstructuredGrid"  version="0.1"  >
<UnstructuredGrid>
<Piece  NumberOfPoints="1419" NumberOfCells="2698">
<Points>
<DataArray  type="Float64"  NumberOfComponents="3"  format="ascii">0 0 0  0 0.41 0  2.5 0 0  2.5 0.41 0  0.6 0.19 0  0.6 0.21 0  0.25 0.2 0  0.15 0.2 0  0.2489897948556636 0.21 0  0.2489897948556636 0.19 0  0.6 0.2 0  0 0.3807142857143437 0  0 0.3514285714286952 0  0 0.3221428571430699 0  0 0.29285714285744 0  0 0.2635714285718054 0  0 0.2342857142861561 0  0 0.2050000000005308 0  0 0.175714285714732 0  0 0.1464285714289574 0  0 0.1171428571431897 0  0 0.08785714285737878 0  0 0.05857142857161107 0  0 0.02928571428580012 0  0.03015443760436003 0 0  0.06140001986583606 0 0  0.09377624077125973 0 0  0.1273239957535082 0 0  0.1620856860351972 0 0  0.1981052433264291 0 0  0.235428184091502 0 0  0.2741016576309132 0 0  0.3141745521465447 0 0  0.3556974926295285 0 0  0.3987229542472677 0 0  0.4433053055141081 0 0  0.4895008759286886 0 0  0.5373680609405097 0 0  0.5869673343216626 0 0  0.6383613676634521 0 0  0.6916151138468254 0 0  0.7467958595648856 0 0  0.8039733463919316 0 0  0.8632198139502143 0 0  0.9246101326867038 0 0  0.9882218810934433 0 0  1.054135445558498 0 0  1.122434100542598 0 0  1.193204177141305 0 0  1.266535089879536 0 0  1.342519516046404 0 0  1.421253448503939 0 0  1.502836389106271 0 0  1.587371439758838 0 0  1.674965418777374 0 0  1.765729001825544 0 0  1.859776908880082 0 0  1.957227977487062 0 0  2.058205329869943 0 0  2.162836591189951 0 0  2.271253957290865 0 0  2.383594446803425 0 0  2.5 0.1024999999997612 0  2.5 0.2049999999994743 0  2.5 0.3074999999997183 0  2.383594446803656 0.41 0  2.271253957291315 0.41 0  2.162836591190598 0.41 0  2.058205329870775 0.41 0  1.957227977488067 0.41 0  1.859776908881246 0.41 0  1.765729001826854 0.41 0  1.674965418778818 0.41 0  1.58737143976041 0.41 0  1.502836389107956 0.41 0  1.421253448505726 0.41 0  1.342519516048286 0.41 0  1.266535089881505 0.41 0  1.193204177143353 0.41 0  1.122434100544716 0.41 0  1.05413544556068 0.41 0  0.9882218810956305 0.41 0  0.9246101326886647 0.41 0  0.8632198139519631 0.41 0  0.8039733463934788 0.41 0  0.7467958595662458 0.41 0  0.6916151138480078 0.41 0  0.6383613676644679 0.41 0  0.5869673343225223 0.41 0  0.5373680609412221 0.41 0  0.4895008759292634 0.41 0  0.4433053055145528 0.41 0  0.3987229542475914 0.41 0  0.3556974926297398 0.41 0  0.3141745521466497 0.41 0  0.2741016576310038 0.41 0  0.2354281840915826 0.41 0  0.1981052433265003 0.41 0  0.1620856860352591 0.41 0  0.1273239957535623 0.41 0  0.09377624077128965 0.41 0  0.06140001986584975 0.41 0  0.03015443760436654 0.41 0  0.2497468076502589 0.2050254481002335 0  0.2497468076502614 0.1949745518997913 0  0.2469965252529372 0.1829317073451959 0  0.2439893735792749 0.1762316384219906 0  0.2400332147834255 0.1700443375285386 0  0.2352133972704371 0.1645032867342007 0  0.2296339016332438 0.1597280261969788 0  0.2234150974217223 0.1558215752574715 0  0.2166911463437691 0.1528682099456123 0  0.2096071079204251 0.1509316448471593 0  0.2023158100364996 0.1500536585536553 0  0.194974551899914 0.1502531923497262 0  0.1877417105387872 0.1515259415822739 0  0.1807733240461124 0.153844448527136 0  0.1742197252835808 0.15715869474974 0  0.1682222986673531 0.1613971801805478 0  0.162910430003803 0.1664684656256651 0  0.1583987151779087 0.1722631454351573 0  0.1547844879126891 0.178656207771761 0  0.1521457199348551 0.1855097315605723 0  0.1505393388476355 0.1926758619366523 0  0.1505393388476328 0.2073241380633295 0  0.1521457199348437 0.2144902684393899 0  0.1547844879126531 0.221343792228163 0  0.1583987151778488 0.2277368545647528 0  0.1629104300036858 0.2335315343742052 0  0.1682222986671726 0.2386028198193036 0  0.1742197252833576 0.2428413052501257 0  0.1807733240458683 0.2461555514727623 0  0.1877417105384929 0.2484740584176516 0  0.1949745518995776 0.2497468076502398 0  0.202315810036185 0.2499463414463592 0  0.2096071079201568 0.2490683551528932 0  0.2166911463435495 0.2471317900544655 0  0.2234150974215506 0.2441784247426195 0  0.2296339016331197 0.2402719738031125 0  0.2352133972703547 0.2354967132658811 0  0.2400332147833751 0.2299556624715287 0  0.2439893735792577 0.2237683615780412 0  0.246996525252926 0.2170682926548348 0  0.25645809709277 0.21 0  0.2639263993298655 0.21 0  0.271394701566961 0.21 0  0.2788630038040554 0.21 0  0.2863313060411479 0.21 0  0.2937996082782405 0.21 0  0.301267910515333 0.21 0  0.3087362127524279 0.21 0  0.3162045149895234 0.21 0  0.3236728172265972 0.21 0  0.3311411194636928 0.21 0  0.3386094217007701 0.21 0  0.3460777239378666 0.21 0  0.3535460261749672 0.21 0  0.3610143284120516 0.21 0  0.3684826306491596 0.21 0  0.3759509328862226 0.21 0  0.383419235123329 0.21 0  0.3908875373604028 0.21 0  0.3983558395975142 0.21 0  0.4058241418345938 0.21 0  0.4132924440716992 0.21 0  0.4207607463087888 0.21 0  0.4282290485459029 0.21 0  0.4356973507830418 0.21 0  0.4431656530201649 0.21 0  0.4506339552573136 0.21 0  0.4581022574944306 0.21 0  0.4655705597315852 0.21 0  0.4730388619686996 0.21 0  0.480507164205851 0.21 0  0.4879754664429498 0.21 0  0.4954437686800938 0.21 0  0.502912070917267 0.21 0  0.5103803731544119 0.21 0  0.5178486753915261 0.21 0  0.5253169776286404 0.21 0  0.5327852798657868 0.21 0  0.5402535821029386 0.21 0  0.54772188434007 0.21 0  0.5551901865771842 0.21 0  0.5626584888143201 0.21 0  0.5701267910514778 0.21 0  0.5775950932886138 0.21 0  0.5850633955257281 0.21 0  0.5925316977628483 0.21 0  0.6 0.2050000000000054 0  0.6 0.1950000000000217 0  0.5925316977628897 0.19 0  0.5850633955257988 0.19 0  0.5775950932887378 0.19 0  0.5701267910515998 0.19 0  0.5626584888145268 0.19 0  0.5551901865773963 0.19 0  0.547721884340339 0.19 0  0.5402535821032429 0.19 0  0.5327852798661811 0.19 0  0.5253169776290537 0.19 0  0.5178486753919799 0.19 0  0.5103803731549078 0.19 0  0.502912070917822 0.19 0  0.4954437686807294 0.19 0  0.4879754664436223 0.19 0  0.4805071642065402 0.19 0  0.4730388619694271 0.19 0  0.4655705597323621 0.19 0  0.4581022574952563 0.19 0  0.4506339552581777 0.19 0  0.4431656530210671 0.19 0  0.4356973507839815 0.19 0  0.4282290485468779 0.19 0  0.4207607463097617 0.19 0  0.4132924440726327 0.19 0  0.4058241418354857 0.19 0  0.3983558395983636 0.19 0  0.3908875373612097 0.19 0  0.3834192351240934 0.19 0  0.3759509328869369 0.19 0  0.3684826306498175 0.19 0  0.361014328412667 0.19 0  0.3535460261755617 0.19 0  0.3460777239384295 0.19 0  0.3386094217012945 0.19 0  0.3311411194641595 0.19 0  0.3236728172270245 0.19 0  0.3162045149898895 0.19 0  0.3087362127527544 0.19 0  0.3012679105156187 0.19 0  0.2937996082784807 0.19 0  0.2863313060413428 0.19 0  0.2788630038042048 0.19 0  0.2713947015670686 0.19 0  0.2639263993299336 0.19 0  0.2564580970927985 0.19 0  0.2607803159922026 0.2000727136295815 0  0.5887803774232762 0.2001272386983733 0  0.5745072403740523 0.2002044435018727 0  0.5511891430099709 0.2001122610077113 0  0.2751288526855082 0.20000000000002 0  0.5365194309847112 0.1999999999999436 0  0.2894621222999649 0.1998691686390484 0  0.5215828265105155 0.1999999999999228 0  0.3127789816668748 0.1998657885438805 0  0.3274069683451451 0.2000000000000796 0  0.5066462220363641 0.199999999999908 0  0.3650630746574081 0.199866017807523 0  0.476773013087985 0.1999999999998713 0  0.3417402379596385 0.1998691686391011 0  0.3796850840047755 0.200000000000134 0  0.4618364086138087 0.1999999999998546 0  0.4917096175621762 0.1999999999998808 0  0.3946216884789568 0.2000000000001512 0  0.446899804139621 0.1999999999998389 0  0.4089549580935208 0.1998691686391595 0  0.4322718174608562 0.200127451265745 0  0.4201487168029707 0.1999966199048527 0  0.3528922713220932 0.2000185703532356 0  0.5633122436674589 0.1999814296467508 0  0.3006558810093873 0.1999966199048318 0  0.5815926498168407 0.1966545283159175 0  0.2677053789419034 0.1964246479135325 0  0.5290511287476175 0.1970915826863981 0  0.5439877332217911 0.197091582686394 0  0.2825131256993216 0.2035478995978015 0  0.3199386661080599 0.202908417313604 0  0.4842413153250809 0.1970915826863873 0  0.5141145242734466 0.1970915826863843 0  0.3722167817676917 0.2029084173136195 0  0.4693047108508938 0.1970915826863783 0  0.3348752705822316 0.202908417313609 0  0.3871533862418661 0.2029084173136212 0  0.4543681063767183 0.1970915826863795 0  0.4991779197992749 0.1970915826863902 0  0.4020059614928624 0.203547899597858 0  0.4394315019025246 0.1970915826863714 0  0.2550657455369551 0.2034088125358657 0  0.2548908499171161 0.1966940311614271 0  0.5946539510196798 0.2024302972968126 0  0.267698176732111 0.2039977513680092 0  0.4261685417851465 0.196409292431739 0  0.3590076176283495 0.196411355804271 0  0.5571672426447437 0.2036011176410121 0  0.3066757059912147 0.1964092924317024 0  0.594380730180568 0.1966558399668133 0  0.4842413153245942 0.2040749161535287 0  0.4693047108503577 0.2040749161535231 0  0.3871533862424271 0.1959250838464788 0  0.372246743208829 0.1959123236376545 0  0.5141145242731028 0.2040749161535395 0  0.4543681063761134 0.2040749161535186 0  0.4019979587101454 0.1959834479682427 0  0.4394608940728603 0.2040870543693135 0  0.5439623148931173 0.2040856076781014 0  0.5290511287473298 0.2040749161535501 0  0.4991779197988497 0.2040749161535382 0  0.3347912413592433 0.1959225448935183 0  0.3199680582793816 0.1959123018030061 0  0.2825051229162361 0.1959834479681729 0  0.3590471196690275 0.2036304442587945 0  0.5571594006495384 0.1963685282145804 0  0.3067669986803285 0.203627750582736 0  0.4262598344738712 0.2036568242185335 0  0.5814408164431408 0.2041285596160068 0  0.5688286748170428 0.1961819304477386 0  0.4145905603063645 0.2038180695522843 0  0.3473758401724931 0.2038180695522752 0  0.2950977245128307 0.2038180695522663 0  0.5688286748170693 0.203818069552238 0  0.2950977245127906 0.1961819304477774 0  0.3473758401723931 0.1961819304478349 0  0.4145905603061963 0.1961819304479011 0  0.2601812407614425 0.2056861609747042
[...]
<PointData  Vectors="f_40-0"> 
<DataArray  type="Float64"  Name="f_40-0"  NumberOfComponents="3" format="ascii">0.0000000000000000e+00 0.0000000000000000e+00 0.0000000000000000e+00  0.0000000000000000e+00 0.0000000000000000e+00 0.0000000000000000e+00  0.0000000000000000e+00 0.0000000000000000e+00 0.0000000000000000e+00  0.0000000000000000e+00 0.0000000000000000e+00 0.0000000000000000e+00  -1.8389405454235029e-05 -1.3152388225728037e-04 0.0000000000000000e+00  -8.0269584509991789e-06 -1.3767006466724441e-04 0.0000000000000000e+00  0.0000000000000000e+00 0.0000000000000000e+00 0.0000000000000000e+00  0.0000000000000000e+00 0.0000000000000000e+00 0.0000000000000000e+00  0.0000000000000000e+00 0.0000000000000000e+00 0.0000000000000000e+00  0.0000000000000000e+00 0.0000000000000000e+00 0.0000000000000000e+00  -1.3699578308837957e-05 -1.3460149029755270e-04 0.0000000000000000e+00  2.0693095666792411e-02 0.0000000000000000e+00 0.0000000000000000e+00  3.8202638154080835e-02 0.0000000000000000e+00 0.0000000000000000e+00  5.2528627461861162e-02 0.0000000000000000e+00 0.0000000000000000e+00  6.3671063590149957e-02 0.0000000000000000e+00 0.0000000000000000e+00  7.1629946538945805e-02 0.0000000000000000e+00 0.0000000000000000e+00  7.6405276308248227e-02 0.0000000000000000e+00 0.0000000000000000e+00  7.7997052898052435e-02 0.0000000000000000e+00 0.0000000000000000e+00  7.6405276308344774e-02 0.0000000000000000e+00 0.0000000000000000e+00  7.1629946539111644e-02 0.0000000000000000e+00 0.0000000000000000e+00  6.3671063590355334e-02 0.0000000000000000e+00 0.0000000000000000e+00  5.2528627462056263e-02 0.0000000000000000e+00 0.0000000000000000e+00  3.8202638154247320e-02 0.0000000000000000e+00 0.0000000000000000e+00  2.0693095666886218e-02 0.0000000000000000e+00 0.0000000000000000e+00  0.0000000000000000e+00 0.0000000000000000e+00 0.0000000000000000e+00  0.0000000000000000e+00 0.0000000000000000e+00 0.0000000000000000e+00  0.0000000000000000e+00 0.0000000000000000e+00 0.0000000000000000e+00  0.0000000000000000e+00 0.0000000000000000e+00 0.0000000000000000e+00  0.0000000000000000e+00 0.0000000000000000e+00 0.0000000000000000e+00  0.0000000000000000e+00 0.0000000000000000e+00 0.0000000000000000e+00  0.0000000000000000e+00 0.0000000000000000e+00 0.0000000000000000e+00  0.0000000000000000e+00 0.0000000000000000e+00 0.0000000000000000e+00  0.0000000000000000e+00 0.0000000000000000e+00 0.0000000000000000e+00  0.0000000000000000e+00 0.0000000000000000e+00 0.0000000000000000e+00  0.0000000000000000e+00 0.0000000000000000e+00 0.0000000000000000e+00  0.0000000000000000e+00 0.0000000000000000e+00 0.0000000000000000e+00  0.0000000000000000e+00 0.0000000000000000e+00 0.0000000000000000e+00  0.0000000000000000e+00 0.0000000000000000e+00 0.0000000000000000e+00  0.0000000000000000e+00 0.0000000000000000e+00 0.0000000000000000e+00  0.0000000000000000e+00 0.0000000000000000e+00 0.0000000000000000e+00  0.0000000000000000e+00 0.0000000000000000e+00 0.0000000000000000e+00  0.0000000000000000e+00 0.0000000000000000e+00 0.0000000000000000e+00  0.0000000000000000e+00 0.0000000000000000e+00 0.0000000000000000e+00  0.0000000000000000e+00 0.0000000000000000e+00 0.0000000000000000e+00  0.0000000000000000e+00 0.0000000000000000e+00 0.0000000000000000e+00  0.0000000000000000e+00 0.0000000000000000e+00 0.0000000000000000e+00  0.0000000000000000e+00 0.0000000000000000e+00 0.0000000000000000e+00  0.0000000000000000e+00 0.0000000000000000e+00 0.0000000000000000e+00  0.0000000000000000e+00 0.0000000000000000e+00 0.0000000000000000e+00  0.0000000000000000e+00 0.0000000000000000e+00 0.0000000000000000e+00  0.0000000000000000e+00 0.0000000000000000e+00 0.0000000000000000e+00  0.0000000000000000e+00 0.0000000000000000e+00 0.0000000000000000e+00  0.0000000000000000e+00 0.0000000000000000e+00 0.0000000000000000e+00  0.0000000000000000e+00 0.0000000000000000e+00 0.0000000000000000e+00  0.0000000000000000e+00 0.0000000000000000e+00 0.0000000000000000e+00  0.0000000000000000e+00 0.0000000000000000e+00 0.0000000000000000e+00  0.0000000000000000e+00 0.0000000000000000e+00 0.0000000000000000e+00  0.0000000000000000e+00 0.0000000000000000e+00 0.0000000000000000e+00  0.0000000000000000e+00 0.0000000000000000e+00 0.0000000000000000e+00  0.0000000000000000e+00 0.0000000000000000e+00 0.0000000000000000e+00  0.0000000000000000e+00 0.0000000000000000e+00 0.0000000000000000e+00  0.0000000000000000e+00 0.0000000000000000e+00 0.0000000000000000e+00  7.4435087095703331e-02 3.2383843368174424e-03 0.0000000000000000e+00  5.2654226445102786e-02 -6.1530053784883952e-04 0.0000000000000000e+00  7.5034285821625649e-02 -3.7730631059800820e-03 0.0000000000000000e+00  0.0000000000000000e+00 0.0000000000000000e+00 0.0000000000000000e+00  0.0000000000000000e+00 0.0000000000000000e+00 0.0000000000000000e+00  0.0000000000000000e+00 0.0000000000000000e+00 0.0000000000000000e+00  0.0000000000000000e+00 0.0000000000000000e+00 0.0000000000000000e+00  0.0000000000000000e+00 0.0000000000000000e+00 0.0000000000000000e+00  0.0000000000000000e+00 0.0000000000000000e+00 0.0000000000000000e+00  0.0000000000000000e+00 0.0000000000000000e+00 0.0000000000000000e+00  0.0000000000000000e+00 0.0000000000000000e+00 0.0000000000000000e+00  0.0000000000000000e+00 0.0000000000000000e+00 0.0000000000000000e+00  0.0000000000000000e+00 0.0000000000000000e+00 0.0000000000000000e+00  0.0000000000000000e+00 0.0000000000000000e+00 0.0000000000000000e+00  0.0000000000000000e+00 0.0000000000000000e+00 0.0000000000000000e+00  0.0000000000000000e+00 0.0000000000000000e+00 0.0000000000000000e+00  0.0000000000000000e+00 0.0000000000000000e+00 0.0000000000000000e+00  0.0000000000000000e+00 0.0000000000000000e+00 0.0000000000000000e+00  0.0000000000000000e+00 0.0000000000000000e+00 0.0000000000000000e+00  0.0000000000000000e+00 0.0000000000000000e+00 0.0000000000000000e+00  0.0000000000000000e+00 0.0000000000000000e+00 0.0000000000000000e+00  0.0000000000000000e+00 0.0000000000000000e+00 0.0000000000000000e+00  0.0000000000000000e+00 0.0000000000000000e+00 0.0000000000000000e+00  0.0000000000000000e+00 0.0000000000000000e+00 0.0000000000000000e+00  0.0000000000000000e+00 0.0000000000000000e+00 0.0000000000000000e+00  0.0000000000000000e+00 0.0000000000000000e+00 0.0000000000000000e+00  0.0000000000000000e+00 0.0000000000000000e+00 0.0000000000000000e+00  0.0000000000000000e+00 0.0000000000000000e+00 0.0000000000000000e+00  0.0000000000000000e+00 0.0000000000000000e+00 0.0000000000000000e+00  0.0000000000000000e+00 0.0000000000000000e+00 0.0000000000000000e+00  0.0000000000000000e+00 0.0000000000000000e+00 0.0000000000000000e+00  0.0000000000000000e+00 0.0000000000000000e+00 0.0000000000000000e+00  0.0000000000000000e+00 0.0000000000000000e+00 0.0000000000000000e+00  0.0000000000000000e+00 0.0000000000000000e+00 0.0000000000000000e+00  0.0000000000000000e+00 0.0000000000000000e+00 0.0000000000000000e+00  0.0000000000000000e+00 0.0000000000000000e+00 0.0000000000000000e+00  0.0000000000000000e+00 0.0000000000000000e+00 0.0000000000000000e+00  0.0000000000000000e+00 0.0000000000000000e+00 0.0000000000000000e+00  0.0000000000000000e+00 0.0000000000000000e+00 0.0000000000000000e+00  0.0000000000000000e+00 0.0000000000000000e+00 0.0000000000000000e+00  0.0000000000000000e+00 0.0000000000000000e+00 0.0000000000000000e+00  0.0000000000000000e+00 0.0000000000000000e+00 0.0000000000000000e+00  0.0000000000000000e+00 0.0000000000000000e+00 0.0000000000000000e+00  0.0000000000000000e+00 0.0000000000000000e+00 0.0000000000000000e+00  0.0000000000000000e+00 0.0000000000000000e+00 0.0000000000000000e+00  0.0000000000000000e+00 0.0000000000000000e+00 0.0000000000000000e+00  0.0000000000000000e+00 0.0000000000000000e+00 0.0000000000000000e+00  0.0000000000000000e+00 0.0000000000000000e+00 0.0000000000000000e+00  0.0000000000000000e+00 0.0000000000000000e+00 0.0000000000000000e+00  0.0000000000000000e+00 0.0000000000000000e+00 0.0000000000000000e+00  0.0000000000000000e+00 0.0000000000000000e+00 0.0000000000000000e+00  0.0000000000000000e+00 0.0000000000000000e+00 0.0000000000000000e+00  0.0000000000000000e+00 0.0000000000000000e+00 0.0000000000000000e+00  0.0000000000000000e+00 0.0000000000000000e+00 0.0000000000000000e+00  0.0000000000000000e+00 0.0000000000000000e+00 0.0000000000000000e+00  0.0000000000000000e+00 0.0000000000000000e+00 0.0000000000000000e+00  0.0000000000000000e+00 0.0000000000000000e+00 0.0000000000000000e+00  0.0000000000000000e+00 0.0000000000000000e+00 0.0000000000000000e+00  0.0000000000000000e+00 0.0000000000000000e+00 0.0000000000000000e+00  0.0000000000000000e+00 0.0000000000000000e+00 0.0000000000000000e+00  0.0000000000000000e+00 0.0000000000000000e+00 0.0000000000000000e+00  0.0000000000000000e+00 0.0000000000000000e+00 0.0000000000000000e+00  0.0000000000000000e+00 0.0000000000000000e+00 0.0000000000000000e+00  0.0000000000000000e+00 0.0000000000000000e+00 0.0000000000000000e+00  0.0000000000000000e+00 0.0000000000000000e+00 0.0000000000000000e+00  0.0000000000000000e+00 0.0000000000000000e+00 0.0000000000000000e+00  0.0000000000000000e+00 0.0000000000000000e+00 0.0000000000000000e+00  0.0000000000000000e+00 0.0000000000000000e+00 0.0000000000000000e+00  0.0000000000000000e+00 0.0000000000000000e+00 0.0000000000000000e+00  0.0000000000000000e+00 0.0000000000000000e+00 0.0000000000000000e+00  0.0000000000000000e+00 0.0000000000000000e+00 0.0000000000000000e+00  0.0000000000000000e+00 0.0000000000000000e+00 0.0000000000000000e+00  0.0000000000000000e+00 0.0000000000000000e+00 0.0000000000000000e+00  0.0000000000000000e+00 0.0000000000000000e+00 0.0000000000000000e+00  0.0000000000000000e+00 0.0000000000000000e+00 0.0000000000000000e+00  0.0000000000000000e+00 0.0000000000000000e+00 0.0000000000000000e+00  0.0000000000000000e+00 0.0000000000000000e+00 0.0000000000000000e+00  0.0000000000000000e+00 0.0000000000000000e+00 0.0000000000000000e+00  0.0000000000000000e+00 0.0000000000000000e+00 0.0000000000000000e+00  0.0000000000000000e+00 0.0000000000000000e+00 0.0000000000000000e+00  0.0000000000000000e+00 0.0000000000000000e+00 0.0000000000000000e+00  5.1163129338790712e-07 -5.6435841333235712e-06 0.0000000000000000e+00  1.2364236432091873e-06 -6.4002956294271863e-06 0.0000000000000000e+00  2.1989673727684853e-06 -7.0659685337432865e-06 0.0000000000000000e+00  3.3012015070286305e-06 -7.7966143090166088e-06 0.0000000000000000e+00  4.3721430959338506e-06 -8.7158238299599310e-06 0.0000000000000000e+00  5.4200237368856182e-06 -9.9012787799569259e-06 0.0000000000000000e+00  6.3705639264423946e-06 -1.1237098680094319e-05 0.0000000000000000e+00  7.2499407519531577e-06 -1.2781105830657231e-05 0.0000000000000000e+00  8.1226536875228103e-06 -1.4484768235553410e-05 0.0000000000000000e+00  8.8688054708823418e-06 -1.6332554833133554e-05 0.0000000000000000e+00  9.6050058892426885e-06 -1.8363722819851360e-05 0.0000000000000000e+00  1.0222731794869307e-05 -2.0507094304594311e-05 0.0000000000000000e+00  1.0807607050220647e-05 -2.2800433787503444e-05 0.0000000000000000e+00  1.1303859723617385e-05 -2.5205976318729482e-05 0.0000000000000000e+00  1.1725579186168688e-05 -2.7732636343703128e-05 0.0000000000000000e+00  1.2123165010177140e-05 -3.0374037416529752e-05 0.0000000000000000e+00  1.2411675687082608e-05 -3.3084243075552779e-05 0.0000000000000000e+00  1.2665721080180759e-05 -3.5929058703663933e-05 0.0000000000000000e+00  1.2822065711448110e-05 -3.8815404360454964e-05 0.0000000000000000e+00  1.2942019330467630e-05 -4.1819617747476152e-05 0.0000000000000000e+00  1.2973947759178231e-05 -4.4857633236939861e-05 0.0000000000000000e+00  1.2947224908883792e-05 -4.7987463845010402e-05 0.0000000000000000e+00  1.2856699865685572e-05 -5.1170682978279637e-05 0.0000000000000000e+00  1.2693704372691914e-05 -5.4405900546583443e-05 0.0000000000000000e+00  1.2493027465017686e-05 -5.7707255754843554e-05 0.0000000000000000e+00  1.2209684841708868e-05 -6.1025232761826638e-05 0.0000000000000000e+00  1.1861687838315485e-05 -6.4433131181954105e-05 0.0000000000000000e+00  1.1450926390019357e-05 -6.7836546851775064e-05 0.0000000000000000e+00  1.0976086797969948e-05 -7.1315535924695292e-05 0.0000000000000000e+00  1.0438541359228137e-05 -7.4794303338619023e-05 0.0000000000000000e+00  9.8406684713575700e-06 -7.8336510239629590e-05 0.0000000000000000e+00  9.1754828671615820e-06 -8.1872535690079363e-05 0.0000000000000000e+00  8.4555917582430264e-06 -8.5471232981904137e-05 0.0000000000000000e+00  7.6661700957614174e-06 -8.9050974472476842e-05 0.0000000000000000e+00  6.8118664724285685e-06 -9.2697515987841847e-05 0.0000000000000000e+00  5.8969608200387367e-06 -9.6325450129807136e-05 0.0000000000000000e+00  4.9221690136838353e-06 -1.0000804175861064e-04 0.0000000000000000e+00  3.8837272616287257e-06 -1.0367203335446098e-04 0.0000000000000000e+00  2.7816346479796662e-06 -1.0738607757556844e-04 0.0000000000000000e+00  1.6114560925553861e-06 -1.1108109311749428e-04 0.0000000000000000e+00  3.7305347106233063e-07 -1.1480992353017378e-04 0.0000000000000000e+00  -9.1996293237431454e-07 -1.1853456064850707e-04 0.0000000000000000e+00  -2.2880201116238721e-06 -1.2227860485988781e-04 0.0000000000000000e+00  -3.6930559814476003e-06 -1.2602330134262678e-04 0.0000000000000000e+00  -5.1716748047134563e-06 -1.2975452868969762e-04 0.0000000000000000e+00  -6.6594783420239523e-06 -1.3355902338373538e-04 0.0000000000000000e+00  -1.1034248653317312e-05 -1.3612152189499549e-04 0.0000000000000000e+00  -1.6185422032682871e-05 -1.3308234075922563e-04 0.0000000000000000e+00  -1.6983499263011111e-05 -1.2792766665153753e-04 0.0000000000000000e+00  -1.5466832763693467e-05 -1.2401729579598458e-04 0.0000000000000000e+00  -1.3959983380185407e-05 -1.2007422460954203e-04 0.0000000000000000e+00  -1.2522911497098554e-05 -1.1616365317558651e-04 0.0000000000000000e+00  -1.1126244185318414e-05 -1.1226395838201617e-04 0.0000000000000000e+00  -9.8068227431332238e-06 -1.0837767019443522e-04 0.0000000000000000e+00  -8.5328491845519127e-06 -1.0450884149816025e-04 0.0000000000000000e+00  -7.3320600552252169e-06 -1.0063698709986500e-04 0.0000000000000000e+00  -6.1843274826851723e-06 -9.6808991266134848e-05 0.0000000000000000e+00  -5.1025885032237602e-06 -9.2963247001829198e-05 0.0000000000000000e+00  -4.0742421633518673e-06 -8.9167585783475947e-05 0.0000000000000000e+00  -3.1115322721308551e-06 -8.5359043267478122e-05 0.0000000000000000e+00  -2.1996622999133959e-06 -8.1604066995089991e-05 0.0000000000000000e+00  -1.3524768331382628e-06 -7.7839381143177889e-05 0.0000000000000000e+00  -5.5397520723617340e-07 -7.4132303425760023e-05 0.0000000000000000e+00  1.7893865676025358e-07 -7.0419215342938188e-05 0.0000000000000000e+00  8.6524150588267248e-07 -6.6765335252752170e-05 0.0000000000000000e+00  1.4840367202667647e-06 -6.3110269883272005e-05 0.0000000000000000e+00  2.0591152642080510e-06 -5.9522869209637498e-05 0.0000000000000000e+00  2.5676234240788241e-06 -5.5941450429809152e-05 0.0000000000000000e+00  3.0366610110320397e-06 -5.2432397987060160e-05 0.0000000000000000e+00  3.4366606277641144e-06 -4.8937534636687273e-05 0.0000000000000000e+00  3.7912848138752928e-06 -4.5509627228017457e-05 0.0000000000000000e+00  4.0916955852889523e-06 -4.2125092940902879e-05 0.0000000000000000e+00  4.3270075566117078e-06 -3.8804552187040053e-05 0.0000000000000000e+00  4.5437214043101779e-06 -3.5543942606229244e-05 0.0000000000000000e+00  4.6878046661212460e-06 -3.2334625879784806e-05 0.0000000000000000e+00  4.7915901246942792e-06 -2.9231124431788443e-05 0.0000000000000000e+00  4.8362395901084153e-06 -2.6167797862871425e-05 0.0000000000000000e+00  4.8396810745030505e-06 -2.3227084036732803e-05 0.0000000000000000e+00  4.7856967982298113e-06 -2.0337943307050119e-05 0.0000000000000000e+00  4.6974816820046915e-06 -1.7588102843261266e-05 0.0000000000000000e+00  4.5530785870747049e-06 -1.4912560529271829e-05 0.0000000000000000e+00  4.3521022565980670e-06 -1.2381774484921620e-05 0.0000000000000000e+00  4.1492362009696647e-06 -9.9477663638360790e-06 0.0000000000000000e+00  3.8746871379198674e-06 -7.6540501746255338e-06 0.0000000000000000e+00  3.5705098781264154e-06 -5.5239717964962128e-06 0.0000000000000000e+00  3.2095468672124835e-06 -3.5192331283513201e-06 0.0000000000000000e+00  2.8328077900931498e-06 -1.7088068110063863e-06 0.0000000000000000e+00  2.3901612472691394e-06 -3.9004900261745217e-08 0.0000000000000000e+00  1.8961601140914352e-06 1.4182766785794751e-06 0.0000000000000000e+00  1.4265921335759633e-06 2.7118936364608664e-06 0.0000000000000000e+00  8.7573952929915908e-07 3.8339591390383725e-06 0.0000000000000000e+00  4.0363156571007067e-07 4.7195559314050342e-06 0.0000000000000000e+00  2.2257879950755388e-09 5.2081471388373563e-06 0.0000000000000000e+00  -8.7240137799262645e-08 5.1396607652717874e-06 0.0000000000000000e+00  -5.9600871321732678e-07 -2.8938937685471086e-07 0.0000000000000000e+00  -1.1168793472632329e-05 -1.2883184147749761e-04 0.0000000000000000e+00  -8.1731306567112053e-06 -1.2151687551441751e-04 0.0000000000000000e+00  -4.0243327064438415e-06 -1.0958515026075416e-04 0.0000000000000000e+00  1.6363060871931200e-06 -1.4096375271445266e-06 0.0000000000000000e+00  -1.7621265099510528e-06 -1.0211355440718331e-04 0.0000000000000000e+00  3.1774606494310105e-06 -3.2865952600016218e-06 0.0000000000000000e+00  3.6277734146733742e-07 -9.4601657382337853e-05 0.0000000000000000e+00  5.3129391634635924e-06 -7.9910741608483356e-06 0.0000000000000000e+00  6.4354923429811276e-06 -1.1854702554705147e-05 0.0000000000000000e+00  2.2438467252696949e-06 -8.7162223936178347e-05 0.0000000000000000e+00  8.2589146284173974e-06 -2.3972550697714776e-05 0.0000000000000000e+00  5.2831477437325306e-06 -7.2554997911464180e-05 0.0000000000000000e+00  7.2779207627354422e-06 -1.6044291114938160e-05 0.0000000000000000e+00  8.6419451170575994e-06 -2.9533390373078687e-05 0.0000000000000000e+00  6.4453382068503404e-06 -6.5419197281014487e-05 0.0000000000000000e+00  3.8835239712370820e-06 -7.9807954097293538e-05 0.0000000000000000e+00  8.7663195500306730e-06 -3.5489604522237863e-05 0.0000000000000000e+00  7.3708284981425163e-06 -5.8425807781035763e-05 0.0000000000000000e+00  8.6187628316857256e-06 -4.1426432812540229e-05 0.0000000000000000e+00  8.1132211586304021e-06 -5.1795274500200288e-05 0.0000000000000000e+00  8.4250837704466509e-06 -4.6349231861629268e-05 0.0000000000000000e+00  7.8444825693655453e-06 -1.9791277027792935e-05 0.0000000000000000e+00  -6.2190022195202889e-06 -1.1572249281881282e-04 0.0000000000000000e+00  4.2667014283183665e-06 -5.4262421804582803e-06 0.0000000000000000e+00  -1.1422457894019136e-05 -1.2413146795476349e-04 0.0000000000000000e+00  3.6663480551750241e-07 1.4685625080159483e-06 0.0000000000000000e+00  -2.1299915251824280e-06 -9.7339970346229160e-05 0.0000000000000000e+00  -4.3884164915831076e-06 -1.0492486245992611e-04 0.0000000000000000e+00  2.9320989288830638e-06 -4.3841163414621581e-06 0.0000000000000000e+00  6.6457579039070489e-06 -1.1440815316997415e-05 0.0000000000000000e+00  3.2030800506126273e-06 -7.5032366957489673e-05 0.0000000000000000e+00  -1.1317835083982055e-07 -8.9820021414690365e-05 0.0000000000000000e+00  9.5806987288896159e-06 -2.8136249278208894e-05 0.0000000000000000e+00  4.5078267002495869e-06 -6.7793436340875886e-05 0.0000000000000000e+00  7.7726469961207612e-06 -1.5570248286084965e-05 0.0000000000000000e+00  9.8836033619708356e-06 -3.3886486189109955e-05 0.0000000000000000e+00  5.5790234787603469e-06 -6.0684528394469079e-05 0.0000000000000000e+00  1.6633762653427114e-06 -8.2378912140598651e-05 0.0000000000000000e+00  1.0221855342778274e-05 -4.0225829064565171e-05 0.0000000000000000e+00  6.4208180732595828e-06 -5.3731990116440073e-05 0.0000000000000000e+00  -8.7519702297490040e-07 -1.3599596419619918e-06 0.0000000000000000e+00  -9.6015178654853912e-07 1.1265672420918437e-06 0.0000000000000000e+00  -1.1267317075860719e-05 -1.3251804091973717e-04 0.0000000000000000e+00  9.6726440201325763e-07 -3.1832311930639648e-