<?xml version="1.0"?>
<VTKFile type="UnstructuredGrid"  version="0.1"  >
<UnstructuredGrid>
<Piece  NumberOfPoints="1419" NumberOfCells="2698">
<Points>
<DataArray  type="Float64"  NumberOfComponents="3"  format="ascii">0 0 0  0 0.41 0  2.5 0 0  2.5 0.41 0  0.6 0.19 0  0.6 0.21 0  0.25 0.2 0  0.15 0.2 0  0.2489897948556636 0.21 0  0.2489897948556636 0.19 0  0.6 0.2 0  0 0.3807142857143437 0  0 0.3514285714286952 0  0 0.3221428571430699 0  0 0.29285714285744 0  0 0.2635714285718054 0  0 0.2342857142861561 0  0 0.2050000000005308 0  0 0.175714285714732 0  0 0.1464285714289574 0  0 0.1171428571431897 0  0 0.08785714285737878 0  0 0.05857142857161107 0  0 0.02928571428580012 0  0.03015443760436003 0 0  0.06140001986583606 0 0  0.09377624077125973 0 0  0.1273239957535082 0 0  0.1620856860351972 0 0  0.1981052433264291 0 0  0.235428184091502 0 0  0.2741016576309132 0 0  0.3141745521465447 0 0  0.3556974926295285 0 0  0.3987229542472677 0 0  0.4433053055141081 0 0  0.4895008759286886 0 0  0.5373680609405097 0 0  0.5869673343216626 0 0  0.6383613676634521 0 0  0.6916151138468254 0 0  0.7467958595648856 0 0  0.8039733463919316 0 0  0.8632198139502143 0 0  0.9246101326867038 0 0  0.9882218810934433 0 0  1.054135445558498 0 0  1.122434100542598 0 0  1.193204177141305 0 0  1.266535089879536 0 0  1.342519516046404 0 0  1.421253448503939 0 0  1.502836389106271 0 0  1.587371439758838 0 0  1.674965418777374 0 0  1.765729001825544 0 0  1.859776908880082 0 0  1.957227977487062 0 0  2.058205329869943 0 0  2.162836591189951 0 0  2.271253957290865 0 0  2.383594446803425 0 0  2.5 0.1024999999997612 0  2.5 0.2049999999994743 0  2.5 0.3074999999997183 0  2.383594446803656 0.41 0  2.271253957291315 0.41 0  2.162836591190598 0.41 0  2.058205329870775 0.41 0  1.957227977488067 0.41 0  1.859776908881246 0.41 0  1.765729001826854 0.41 0  1.674965418778818 0.41 0  1.58737143976041 0.41 0  1.502836389107956 0.41 0  1.421253448505726 0.41 0  1.342519516048286 0.41 0  1.266535089881505 0.41 0  1.193204177143353 0.41 0  1.122434100544716 0.41 0  1.05413544556068 0.41 0  0.9882218810956305 0.41 0  0.9246101326886647 0.41 0  0.8632198139519631 0.41 0  0.8039733463934788 0.41 0  0.7467958595662458 0.41 0  0.6916151138480078 0.41 0  0.6383613676644679 0.41 0  0.5869673343225223 0.41 0  0.5373680609412221 0.41 0  0.4895008759292634 0.41 0  0.4433053055145528 0.41 0  0.3987229542475914 0.41 0  0.3556974926297398 0.41 0  0.3141745521466497 0.41 0  0.2741016576310038 0.41 0  0.2354281840915826 0.41 0  0.1981052433265003 0.41 0  0.1620856860352591 0.41 0  0.1273239957535623 0.41 0  0.09377624077128965 0.41 0  0.06140001986584975 0.41 0  0.03015443760436654 0.41 0  0.2497468076502589 0.2050254481002335 0  0.2497468076502614 0.1949745518997913 0  0.2469965252529372 0.1829317073451959 0  0.2439893735792749 0.1762316384219906 0  0.2400332147834255 0.1700443375285386 0  0.2352133972704371 0.1645032867342007 0  0.2296339016332438 0.1597280261969788 0  0.2234150974217223 0.1558215752574715 0  0.2166911463437691 0.1528682099456123 0  0.2096071079204251 0.1509316448471593 0  0.2023158100364996 0.1500536585536553 0  0.194974551899914 0.1502531923497262 0  0.1877417105387872 0.1515259415822739 0  0.1807733240461124 0.153844448527136 0  0.1742197252835808 0.15715869474974 0  0.1682222986673531 0.1613971801805478 0  0.162910430003803 0.1664684656256651 0  0.1583987151779087 0.1722631454351573 0  0.1547844879126891 0.178656207771761 0  0.1521457199348551 0.1855097315605723 0  0.1505393388476355 0.1926758619366523 0  0.1505393388476328 0.2073241380633295 0  0.1521457199348437 0.2144902684393899 0  0.1547844879126531 0.221343792228163 0  0.1583987151778488 0.2277368545647528 0  0.1629104300036858 0.2335315343742052 0  0.1682222986671726 0.2386028198193036 0  0.1742197252833576 0.2428413052501257 0  0.1807733240458683 0.2461555514727623 0  0.1877417105384929 0.2484740584176516 0  0.1949745518995776 0.2497468076502398 0  0.202315810036185 0.2499463414463592 0  0.2096071079201568 0.2490683551528932 0  0.2166911463435495 0.2471317900544655 0  0.2234150974215506 0.2441784247426195 0  0.2296339016331197 0.2402719738031125 0  0.2352133972703547 0.2354967132658811 0  0.2400332147833751 0.2299556624715287 0  0.2439893735792577 0.2237683615780412 0  0.246996525252926 0.2170682926548348 0  0.25645809709277 0.21 0  0.2639263993298655 0.21 0  0.271394701566961 0.21 0  0.2788630038040554 0.21 0  0.2863313060411479 0.21 0  0.2937996082782405 0.21 0  0.301267910515333 0.21 0  0.3087362127524279 0.21 0  0.3162045149895234 0.21 0  0.3236728172265972 0.21 0  0.3311411194636928 0.21 0  0.3386094217007701 0.21 0  0.3460777239378666 0.21 0  0.3535460261749672 0.21 0  0.3610143284120516 0.21 0  0.3684826306491596 0.21 0  0.3759509328862226 0.21 0  0.383419235123329 0.21 0  0.3908875373604028 0.21 0  0.3983558395975142 0.21 0  0.4058241418345938 0.21 0  0.4132924440716992 0.21 0  0.4207607463087888 0.21 0  0.4282290485459029 0.21 0  0.4356973507830418 0.21 0  0.4431656530201649 0.21 0  0.4506339552573136 0.21 0  0.4581022574944306 0.21 0  0.4655705597315852 0.21 0  0.4730388619686996 0.21 0  0.480507164205851 0.21 0  0.4879754664429498 0.21 0  0.4954437686800938 0.21 0  0.502912070917267 0.21 0  0.5103803731544119 0.21 0  0.5178486753915261 0.21 0  0.5253169776286404 0.21 0  0.5327852798657868 0.21 0  0.5402535821029386 0.21 0  0.54772188434007 0.21 0  0.5551901865771842 0.21 0  0.5626584888143201 0.21 0  0.5701267910514778 0.21 0  0.5775950932886138 0.21 0  0.5850633955257281 0.21 0  0.5925316977628483 0.21 0  0.6 0.2050000000000054 0  0.6 0.1950000000000217 0  0.5925316977628897 0.19 0  0.5850633955257988 0.19 0  0.5775950932887378 0.19 0  0.5701267910515998 0.19 0  0.5626584888145268 0.19 0  0.5551901865773963 0.19 0  0.547721884340339 0.19 0  0.5402535821032429 0.19 0  0.5327852798661811 0.19 0  0.5253169776290537 0.19 0  0.5178486753919799 0.19 0  0.5103803731549078 0.19 0  0.502912070917822 0.19 0  0.4954437686807294 0.19 0  0.4879754664436223 0.19 0  0.4805071642065402 0.19 0  0.4730388619694271 0.19 0  0.4655705597323621 0.19 0  0.4581022574952563 0.19 0  0.4506339552581777 0.19 0  0.4431656530210671 0.19 0  0.4356973507839815 0.19 0  0.4282290485468779 0.19 0  0.4207607463097617 0.19 0  0.4132924440726327 0.19 0  0.4058241418354857 0.19 0  0.3983558395983636 0.19 0  0.3908875373612097 0.19 0  0.3834192351240934 0.19 0  0.3759509328869369 0.19 0  0.3684826306498175 0.19 0  0.361014328412667 0.19 0  0.3535460261755617 0.19 0  0.3460777239384295 0.19 0  0.3386094217012945 0.19 0  0.3311411194641595 0.19 0  0.3236728172270245 0.19 0  0.3162045149898895 0.19 0  0.3087362127527544 0.19 0  0.3012679105156187 0.19 0  0.2937996082784807 0.19 0  0.2863313060413428 0.19 0  0.2788630038042048 0.19 0  0.2713947015670686 0.19 0  0.2639263993299336 0.19 0  0.2564580970927985 0.19 0  0.2607803159922026 0.2000727136295815 0  0.5887803774232762 0.2001272386983733 0  0.5745072403740523 0.2002044435018727 0  0.5511891430099709 0.2001122610077113 0  0.2751288526855082 0.20000000000002 0  0.5365194309847112 0.1999999999999436 0  0.2894621222999649 0.1998691686390484 0  0.5215828265105155 0.1999999999999228 0  0.3127789816668748 0.1998657885438805 0  0.3274069683451451 0.2000000000000796 0  0.5066462220363641 0.199999999999908 0  0.3650630746574081 0.199866017807523 0  0.476773013087985 0.1999999999998713 0  0.3417402379596385 0.1998691686391011 0  0.3796850840047755 0.200000000000134 0  0.4618364086138087 0.1999999999998546 0  0.4917096175621762 0.1999999999998808 0  0.3946216884789568 0.2000000000001512 0  0.446899804139621 0.1999999999998389 0  0.4089549580935208 0.1998691686391595 0  0.4322718174608562 0.200127451265745 0  0.4201487168029707 0.1999966199048527 0  0.3528922713220932 0.2000185703532356 0  0.5633122436674589 0.1999814296467508 0  0.3006558810093873 0.1999966199048318 0  0.5815926498168407 0.1966545283159175 0  0.2677053789419034 0.1964246479135325 0  0.5290511287476175 0.1970915826863981 0  0.5439877332217911 0.197091582686394 0  0.2825131256993216 0.2035478995978015 0  0.3199386661080599 0.202908417313604 0  0.4842413153250809 0.1970915826863873 0  0.5141145242734466 0.1970915826863843 0  0.3722167817676917 0.2029084173136195 0  0.4693047108508938 0.1970915826863783 0  0.3348752705822316 0.202908417313609 0  0.3871533862418661 0.2029084173136212 0  0.4543681063767183 0.1970915826863795 0  0.4991779197992749 0.1970915826863902 0  0.4020059614928624 0.203547899597858 0  0.4394315019025246 0.1970915826863714 0  0.2550657455369551 0.2034088125358657 0  0.2548908499171161 0.1966940311614271 0  0.5946539510196798 0.2024302972968126 0  0.267698176732111 0.2039977513680092 0  0.4261685417851465 0.196409292431739 0  0.3590076176283495 0.196411355804271 0  0.5571672426447437 0.2036011176410121 0  0.3066757059912147 0.1964092924317024 0  0.594380730180568 0.1966558399668133 0  0.4842413153245942 0.2040749161535287 0  0.4693047108503577 0.2040749161535231 0  0.3871533862424271 0.1959250838464788 0  0.372246743208829 0.1959123236376545 0  0.5141145242731028 0.2040749161535395 0  0.4543681063761134 0.2040749161535186 0  0.4019979587101454 0.1959834479682427 0  0.4394608940728603 0.2040870543693135 0  0.5439623148931173 0.2040856076781014 0  0.5290511287473298 0.2040749161535501 0  0.4991779197988497 0.2040749161535382 0  0.3347912413592433 0.1959225448935183 0  0.3199680582793816 0.1959123018030061 0  0.2825051229162361 0.1959834479681729 0  0.3590471196690275 0.2036304442587945 0  0.5571594006495384 0.1963685282145804 0  0.3067669986803285 0.203627750582736 0  0.4262598344738712 0.2036568242185335 0  0.5814408164431408 0.2041285596160068 0  0.5688286748170428 0.1961819304477386 0  0.4145905603063645 0.2038180695522843 0  0.3473758401724931 0.2038180695522752 0  0.2950977245128307 0.2038180695522663 0  0.5688286748170693 0.203818069552238 0  0.2950977245127906 0.1961819304477774 0  0.3473758401723931 0.1961819304478349 0  0.4145905603061963 0.1961819304479011 0  0.2601812407614425 0.2056861609747042
[...]
<PointData  Vectors="f_40-0"> 
<DataArray  type="Float64"  Name="f_40-0"  NumberOfComponents="3" format="ascii">0.0000000000000000e+00 0.0000000000000000e+00 0.0000000000000000e+00  0.0000000000000000e+00 0.0000000000000000e+00 0.0000000000000000e+00  0.0000000000000000e+00 0.0000000000000000e+00 0.0000000000000000e+00  0.0000000000000000e+00 0.0000000000000000e+00 0.0000000000000000e+00  -5.1248035945962745e-06 -8.5432792842153485e-04 0.0000000000000000e+00  6.3189322763349014e-05 -8.5897400014436822e-04 0.0000000000000000e+00  0.0000000000000000e+00 0.0000000000000000e+00 0.0000000000000000e+00  0.0000000000000000e+00 0.0000000000000000e+00 0.0000000000000000e+00  0.0000000000000000e+00 0.0000000000000000e+00 0.0000000000000000e+00  0.0000000000000000e+00 0.0000000000000000e+00 0.0000000000000000e+00  2.8420778083751322e-05 -8.5663667701403612e-04 0.0000000000000000e+00  1.2764063267155543e-01 0.0000000000000000e+00 0.0000000000000000e+00  2.3564424493211797e-01 0.0000000000000000e+00 0.0000000000000000e+00  3.2401083678166226e-01 0.0000000000000000e+00 0.0000000000000000e+00  3.9274040822029060e-01 0.0000000000000000e+00 0.0000000000000000e+00  4.4183295924799415e-01 0.0000000000000000e+00 0.0000000000000000e+00  4.7128848986476984e-01 0.0000000000000000e+00 0.0000000000000000e+00  4.8110700007058832e-01 0.0000000000000000e+00 0.0000000000000000e+00  4.7128848986536542e-01 0.0000000000000000e+00 0.0000000000000000e+00  4.4183295924901711e-01 0.0000000000000000e+00 0.0000000000000000e+00  3.9274040822155748e-01 0.0000000000000000e+00 0.0000000000000000e+00  3.2401083678286574e-01 0.0000000000000000e+00 0.0000000000000000e+00  2.3564424493314493e-01 0.0000000000000000e+00 0.0000000000000000e+00  1.2764063267213407e-01 0.0000000000000000e+00 0.0000000000000000e+00  0.0000000000000000e+00 0.0000000000000000e+00 0.0000000000000000e+00  0.0000000000000000e+00 0.0000000000000000e+00 0.0000000000000000e+00  0.0000000000000000e+00 0.0000000000000000e+00 0.0000000000000000e+00  0.0000000000000000e+00 0.0000000000000000e+00 0.0000000000000000e+00  0.0000000000000000e+00 0.0000000000000000e+00 0.0000000000000000e+00  0.0000000000000000e+00 0.0000000000000000e+00 0.0000000000000000e+00  0.0000000000000000e+00 0.0000000000000000e+00 0.0000000000000000e+00  0.0000000000000000e+00 0.0000000000000000e+00 0.0000000000000000e+00  0.0000000000000000e+00 0.0000000000000000e+00 0.0000000000000000e+00  0.0000000000000000e+00 0.0000000000000000e+00 0.0000000000000000e+00  0.0000000000000000e+00 0.0000000000000000e+00 0.0000000000000000e+00  0.0000000000000000e+00 0.0000000000000000e+00 0.0000000000000000e+00  0.0000000000000000e+00 0.0000000000000000e+00 0.0000000000000000e+00  0.0000000000000000e+00 0.0000000000000000e+00 0.0000000000000000e+00  0.0000000000000000e+00 0.0000000000000000e+00 0.0000000000000000e+00  0.0000000000000000e+00 0.0000000000000000e+00 0.0000000000000000e+00  0.0000000000000000e+00 0.0000000000000000e+00 0.0000000000000000e+00  0.0000000000000000e+00 0.0000000000000000e+00 0.0000000000000000e+00  0.0000000000000000e+00 0.0000000000000000e+00 0.0000000000000000e+00  0.0000000000000000e+00 0.0000000000000000e+00 0.0000000000000000e+00  0.0000000000000000e+00 0.0000000000000000e+00 0.0000000000000000e+00  0.0000000000000000e+00 0.0000000000000000e+00 0.0000000000000000e+00  0.0000000000000000e+00 0.0000000000000000e+00 0.0000000000000000e+00  0.0000000000000000e+00 0.0000000000000000e+00 0.0000000000000000e+00  0.0000000000000000e+00 0.0000000000000000e+00 0.0000000000000000e+00  0.0000000000000000e+00 0.0000000000000000e+00 0.0000000000000000e+00  0.0000000000000000e+00 0.0000000000000000e+00 0.0000000000000000e+00  0.0000000000000000e+00 0.0000000000000000e+00 0.0000000000000000e+00  0.0000000000000000e+00 0.0000000000000000e+00 0.0000000000000000e+00  0.0000000000000000e+00 0.0000000000000000e+00 0.0000000000000000e+00  0.0000000000000000e+00 0.0000000000000000e+00 0.0000000000000000e+00  0.0000000000000000e+00 0.0000000000000000e+00 0.0000000000000000e+00  0.0000000000000000e+00 0.0000000000000000e+00 0.0000000000000000e+00  0.0000000000000000e+00 0.0000000000000000e+00 0.0000000000000000e+00  0.0000000000000000e+00 0.0000000000000000e+00 0.0000000000000000e+00  0.0000000000000000e+00 0.0000000000000000e+00 0.0000000000000000e+00  0.0000000000000000e+00 0.0000000000000000e+00 0.0000000000000000e+00  0.0000000000000000e+00 0.0000000000000000e+00 0.0000000000000000e+00  4.6195693114865677e-01 1.3195067809591973e-02 0.0000000000000000e+00  3.2271293316589750e-01 -2.6650248618703474e-03 0.0000000000000000e+00  4.6222690272204087e-01 -8.7437679635447001e-03 0.0000000000000000e+00  0.0000000000000000e+00 0.0000000000000000e+00 0.0000000000000000e+00  0.0000000000000000e+00 0.0000000000000000e+00 0.0000000000000000e+00  0.0000000000000000e+00 0.0000000000000000e+00 0.0000000000000000e+00  0.0000000000000000e+00 0.0000000000000000e+00 0.0000000000000000e+00  0.0000000000000000e+00 0.0000000000000000e+00 0.0000000000000000e+00  0.0000000000000000e+00 0.0000000000000000e+00 0.0000000000000000e+00  0.0000000000000000e+00 0.0000000000000000e+00 0.0000000000000000e+00  0.0000000000000000e+00 0.0000000000000000e+00 0.0000000000000000e+00  0.0000000000000000e+00 0.0000000000000000e+00 0.0000000000000000e+00  0.0000000000000000e+00 0.0000000000000000e+00 0.0000000000000000e+00  0.0000000000000000e+00 0.0000000000000000e+00 0.0000000000000000e+00  0.0000000000000000e+00 0.0000000000000000e+00 0.0000000000000000e+00  0.0000000000000000e+00 0.0000000000000000e+00 0.0000000000000000e+00  0.0000000000000000e+00 0.0000000000000000e+00 0.0000000000000000e+00  0.0000000000000000e+00 0.0000000000000000e+00 0.0000000000000000e+00  0.0000000000000000e+00 0.0000000000000000e+00 0.0000000000000000e+00  0.0000000000000000e+00 0.0000000000000000e+00 0.0000000000000000e+00  0.0000000000000000e+00 0.0000000000000000e+00 0.0000000000000000e+00  0.0000000000000000e+00 0.0000000000000000e+00 0.0000000000000000e+00  0.0000000000000000e+00 0.0000000000000000e+00 0.0000000000000000e+00  0.0000000000000000e+00 0.0000000000000000e+00 0.0000000000000000e+00  0.0000000000000000e+00 0.0000000000000000e+00 0.0000000000000000e+00  0.0000000000000000e+00 0.0000000000000000e+00 0.0000000000000000e+00  0.0000000000000000e+00 0.0000000000000000e+00 0.0000000000000000e+00  0.0000000000000000e+00 0.0000000000000000e+00 0.0000000000000000e+00  0.0000000000000000e+00 0.0000000000000000e+00 0.0000000000000000e+00  0.0000000000000000e+00 0.0000000000000000e+00 0.0000000000000000e+00  0.0000000000000000e+00 0.0000000000000000e+00 0.0000000000000000e+00  0.0000000000000000e+00 0.0000000000000000e+00 0.0000000000000000e+00  0.0000000000000000e+00 0.0000000000000000e+00 0.0000000000000000e+00  0.0000000000000000e+00 0.0000000000000000e+00 0.0000000000000000e+00  0.0000000000000000e+00 0.0000000000000000e+00 0.0000000000000000e+00  0.0000000000000000e+00 0.0000000000000000e+00 0.0000000000000000e+00  0.0000000000000000e+00 0.0000000000000000e+00 0.0000000000000000e+00  0.0000000000000000e+00 0.0000000000000000e+00 0.0000000000000000e+00  0.0000000000000000e+00 0.0000000000000000e+00 0.0000000000000000e+00  0.0000000000000000e+00 0.0000000000000000e+00 0.0000000000000000e+00  0.0000000000000000e+00 0.0000000000000000e+00 0.0000000000000000e+00  0.0000000000000000e+00 0.0000000000000000e+00 0.0000000000000000e+00  0.0000000000000000e+00 0.0000000000000000e+00 0.0000000000000000e+00  0.0000000000000000e+00 0.0000000000000000e+00 0.0000000000000000e+00  0.0000000000000000e+00 0.0000000000000000e+00 0.0000000000000000e+00  0.0000000000000000e+00 0.0000000000000000e+00 0.0000000000000000e+00  0.0000000000000000e+00 0.0000000000000000e+00 0.0000000000000000e+00  0.0000000000000000e+00 0.0000000000000000e+00 0.0000000000000000e+00  0.0000000000000000e+00 0.0000000000000000e+00 0.0000000000000000e+00  0.0000000000000000e+00 0.0000000000000000e+00 0.0000000000000000e+00  0.0000000000000000e+00 0.0000000000000000e+00 0.0000000000000000e+00  0.0000000000000000e+00 0.0000000000000000e+00 0.0000000000000000e+00  0.0000000000000000e+00 0.0000000000000000e+00 0.0000000000000000e+00  0.0000000000000000e+00 0.0000000000000000e+00 0.0000000000000000e+00  0.0000000000000000e+00 0.0000000000000000e+00 0.0000000000000000e+00  0.0000000000000000e+00 0.0000000000000000e+00 0.0000000000000000e+00  0.0000000000000000e+00 0.0000000000000000e+00 0.0000000000000000e+00  0.0000000000000000e+00 0.0000000000000000e+00 0.0000000000000000e+00  0.0000000000000000e+00 0.0000000000000000e+00 0.0000000000000000e+00  0.0000000000000000e+00 0.0000000000000000e+00 0.0000000000000000e+00  0.0000000000000000e+00 0.0000000000000000e+00 0.0000000000000000e+00  0.0000000000000000e+00 0.0000000000000000e+00 0.0000000000000000e+00  0.0000000000000000e+00 0.0000000000000000e+00 0.0000000000000000e+00  0.0000000000000000e+00 0.0000000000000000e+00 0.0000000000000000e+00  0.0000000000000000e+00 0.0000000000000000e+00 0.0000000000000000e+00  0.0000000000000000e+00 0.0000000000000000e+00 0.0000000000000000e+00  0.0000000000000000e+00 0.0000000000000000e+00 0.0000000000000000e+00  0.0000000000000000e+00 0.0000000000000000e+00 0.0000000000000000e+00  0.0000000000000000e+00 0.0000000000000000e+00 0.0000000000000000e+00  0.0000000000000000e+00 0.0000000000000000e+00 0.0000000000000000e+00  0.0000000000000000e+00 0.0000000000000000e+00 0.0000000000000000e+00  0.0000000000000000e+00 0.0000000000000000e+00 0.0000000000000000e+00  0.0000000000000000e+00 0.0000000000000000e+00 0.0000000000000000e+00  0.0000000000000000e+00 0.0000000000000000e+00 0.0000000000000000e+00  0.0000000000000000e+00 0.0000000000000000e+00 0.0000000000000000e+00  0.0000000000000000e+00 0.0000000000000000e+00 0.0000000000000000e+00  0.0000000000000000e+00 0.0000000000000000e+00 0.0000000000000000e+00  0.0000000000000000e+00 0.0000000000000000e+00 0.0000000000000000e+00  0.0000000000000000e+00 0.0000000000000000e+00 0.0000000000000000e+00  0.0000000000000000e+00 0.0000000000000000e+00 0.0000000000000000e+00  0.0000000000000000e+00 0.0000000000000000e+00 0.0000000000000000e+00  2.5681406001387977e-06 -6.0712692994405439e-06 0.0000000000000000e+00  5.5794788876609795e-06 -8.2786650967083199e-06 0.0000000000000000e+00  8.7430898702430808e-06 -1.1481719750673675e-05 0.0000000000000000e+00  1.2246165812875772e-05 -1.5810249298437406e-05 0.0000000000000000e+00  1.5552769135429753e-05 -2.1285224660114663e-05 0.0000000000000000e+00  1.9116127835930316e-05 -2.8019119040137557e-05 0.0000000000000000e+00  2.2347221402632371e-05 -3.5666485737551507e-05 0.0000000000000000e+00  2.5529636953279785e-05 -4.4549932594842026e-05 0.0000000000000000e+00  2.8924223688905763e-05 -5.4386371376805255e-05 0.0000000000000000e+00  3.1874791078225855e-05 -6.5209460029026732e-05 0.0000000000000000e+00  3.5076747758953153e-05 -7.7065393530749229e-05 0.0000000000000000e+00  3.7821867108143896e-05 -8.9821685229898410e-05 0.0000000000000000e+00  4.0718351725360377e-05 -1.0351442328389018e-04 0.0000000000000000e+00  4.3264838282632611e-05 -1.1796204324050340e-04 0.0000000000000000e+00  4.5692632133227086e-05 -1.3333413709993393e-04 0.0000000000000000e+00  4.8213324648910620e-05 -1.4943874523371087e-04 0.0000000000000000e+00  5.0344659897400129e-05 -1.6624494109941407e-04 0.0000000000000000e+00  5.2590232592116753e-05 -1.8383025545597097e-04 0.0000000000000000e+00  5.4466506040379667e-05 -2.0201256743376551e-04 0.0000000000000000e+00  5.6425688768016196e-05 -2.2086658226593499e-04 0.0000000000000000e+00  5.8095966471039387e-05 -2.4027165842846642e-04 0.0000000000000000e+00  5.9764516372101523e-05 -2.6029648708520765e-04 0.0000000000000000e+00  6.1198469461517681e-05 -2.8076045799151414e-04 0.0000000000000000e+00  6.2515985929616913e-05 -3.0178164527621098e-04 0.0000000000000000e+00  6.3842610195512543e-05 -3.2321611127818640e-04 0.0000000000000000e+00  6.4950756629626445e-05 -3.4507911536039011e-04 0.0000000000000000e+00  6.5978599740000918e-05 -3.6740754566175259e-04 0.0000000000000000e+00  6.6858393750875888e-05 -3.9003802789814668e-04 0.0000000000000000e+00  6.7651976897572743e-05 -4.1308133772995748e-04 0.0000000000000000e+00  6.8303690272136081e-05 -4.3637986535361817e-04 0.0000000000000000e+00  6.8867873378061187e-05 -4.6002977793831331e-04 0.0000000000000000e+00  6.9293914468515535e-05 -4.8387929189632281e-04 0.0000000000000000e+00  6.9635335583859739e-05 -5.0802659662974102e-04 0.0000000000000000e+00  6.9838931760006978e-05 -5.3231994677709028e-04 0.0000000000000000e+00  6.9947155137786325e-05 -5.5687566299149338e-04 0.0000000000000000e+00  6.9933702541025744e-05 -5.8153088958035591e-04 0.0000000000000000e+00  6.9826228560856539e-05 -6.0639003993648885e-04 0.0000000000000000e+00  6.9599534930492977e-05 -6.3131064520023346e-04 0.0000000000000000e+00  6.9275283679941940e-05 -6.5639462497609977e-04 0.0000000000000000e+00  6.8832486361468834e-05 -6.8150759905092218e-04 0.0000000000000000e+00  6.8285629743903238e-05 -7.0673068336834784e-04 0.0000000000000000e+00  6.7637778523246768e-05 -7.3197479174128552e-04 0.0000000000000000e+00  6.6875050955525416e-05 -7.5728137558739989e-04 0.0000000000000000e+00  6.6052957340949039e-05 -7.8260464510840810e-04 0.0000000000000000e+00  6.5103142486027849e-05 -8.0790871754730443e-04 0.0000000000000000e+00  6.4096636950818862e-05 -8.3328671861329791e-04 0.0000000000000000e+00  4.5593689111011176e-05 -8.5778448858635930e-04 0.0000000000000000e+00  1.1474409536648606e-05 -8.5549428290823150e-04 0.0000000000000000e+00  -4.1480824070284641e-06 -8.2899157192492415e-04 0.0000000000000000e+00  -3.0849657711388712e-06 -8.0340321202541649e-04 0.0000000000000000e+00  -2.0667462670278583e-06 -7.7778907304451876e-04 0.0000000000000000e+00  -1.1419004498491184e-06 -7.5224538026405063e-04 0.0000000000000000e+00  -2.7191018687079465e-07 -7.2673333612479068e-04 0.0000000000000000e+00  5.0644369963771157e-07 -7.0127510255034626e-04 0.0000000000000000e+00  1.2473929867008322e-06 -6.7587940233688104e-04 0.0000000000000000e+00  1.8881210077547742e-06 -6.5053348181289537e-04 0.0000000000000000e+00  2.5013964024193306e-06 -6.2531814171923653e-04 0.0000000000000000e+00  3.0170412410276375e-06 -6.0016374373307612e-04 0.0000000000000000e+00  3.5231762124682802e-06 -5.7517400189275756e-04 0.0000000000000000e+00  3.9226319928069915e-06 -5.5028539468869879e-04 0.0000000000000000e+00  4.3297704300335486e-06 -5.2560885161986642e-04 0.0000000000000000e+00  4.6241626446942038e-06 -5.0108285042086461e-04 0.0000000000000000e+00  4.9467903477878817e-06 -4.7681255819718776e-04 0.0000000000000000e+00  5.1411398741837649e-06 -4.5274061066438552e-04 0.0000000000000000e+00  5.3861084457246486e-06 -4.2896835015640610e-04 0.0000000000000000e+00  5.4845851668760910e-06 -4.0544301692526573e-04 0.0000000000000000e+00  5.6508002150331289e-06 -3.8227866604742506e-04 0.0000000000000000e+00  5.6579831426503027e-06 -3.5942327023251176e-04 0.0000000000000000e+00  5.7608965111824423e-06 -3.3698352641649477e-04 0.0000000000000000e+00  5.6837933390386842e-06 -3.1491122106361774e-04 0.0000000000000000e+00  5.7003161068083355e-06 -2.9330058000703163e-04 0.0000000000000000e+00  5.5700091013281430e-06 -2.7210079864664285e-04 0.0000000000000000e+00  5.3806451904935369e-06 -2.5147276444264664e-04 0.0000000000000000e+00  5.2993951274787331e-06 -2.3127688632398622e-04 0.0000000000000000e+00  5.0749662312513110e-06 -2.1167145363976207e-04 0.0000000000000000e+00  4.8890000748163222e-06 -1.9267507355565805e-04 0.0000000000000000e+00  4.6018204572836244e-06 -1.7427403418860508e-04 0.0000000000000000e+00  4.3467843035551479e-06 -1.5656994419426727e-04 0.0000000000000000e+00  3.9916746275217052e-06 -1.3950811943418573e-04 0.0000000000000000e+00  3.7455025865559732e-06 -1.2330725940784047e-04 0.0000000000000000e+00  3.3039179980426080e-06 -1.0774097469836924e-04 0.0000000000000000e+00  2.8145272054754678e-06 -9.3149874128720022e-05 0.0000000000000000e+00  2.5122602889146685e-06 -7.9247071504953822e-05 0.0000000000000000e+00  2.0473180321980076e-06 -6.6346984322662541e-05 0.0000000000000000e+00  1.6554049148359822e-06 -5.4399025758144680e-05 0.0000000000000000e+00  1.1617581549610144e-06 -4.3404657849955472e-05 0.0000000000000000e+00  8.4996454656797333e-07 -3.3566952918870124e-05 0.0000000000000000e+00  3.1574099475021692e-07 -2.4626618296258974e-05 0.0000000000000000e+00  -2.1812563783596814e-07 -1.6980532825889896e-05 0.0000000000000000e+00  -4.4386507343478591e-07 -1.0272105841390454e-05 0.0000000000000000e+00  -8.1646925941151530e-07 -4.8063347076979711e-06 0.0000000000000000e+00  -8.5937962437234168e-07 -5.4739822705343631e-07 0.0000000000000000e+00  -9.4655228982618673e-07 2.3180177140655139e-06 0.0000000000000000e+00  -4.7771406112706338e-07 3.7056815203765509e-06 0.0000000000000000e+00  8.5611350902360800e-07 -1.2262364220909571e-06 0.0000000000000000e+00  3.0705232415731990e-05 -8.1835011466626967e-04 0.0000000000000000e+00  3.2968704781774736e-05 -7.6970055957279598e-04 0.0000000000000000e+00  3.5040423466356480e-05 -6.9042046557740190e-04 0.0000000000000000e+00  4.7749514395141225e-06 -7.2206051721368886e-06 0.0000000000000000e+00  3.5719066764001521e-05 -6.4081125645403848e-04 0.0000000000000000e+00  8.2244625541393150e-06 -1.7604915789141897e-05 0.0000000000000000e+00  3.6479974649102027e-05 -5.9070717477730243e-04 0.0000000000000000e+00  1.3947278910159437e-05 -4.3493248198390570e-05 0.0000000000000000e+00  1.7590831777272810e-05 -6.5014661086907450e-05 0.0000000000000000e+00  3.6915239774625740e-05 -5.4113380869843847e-04 0.0000000000000000e+00  2.5098347284676686e-05 -1.3640938633474681e-04 0.0000000000000000e+00  3.6831344771553998e-05 -4.4431209720868569e-04 0.0000000000000000e+00  2.0545926508982332e-05 -8.9537234399379606e-05 0.0000000000000000e+00  2.7884616212770269e-05 -1.6970015766751295e-04 0.0000000000000000e+00  3.6318720492358788e-05 -3.9745256047941826e-04 0.0000000000000000e+00  3.7031050042474076e-05 -4.9227215663018341e-04 0.0000000000000000e+00  3.0131883732806003e-05 -2.0632629245365925e-04 0.0000000000000000e+00  3.5490904012232958e-05 -3.5192278242314749e-04 0.0000000000000000e+00  3.1646686663367518e-05 -2.4370529695105745e-04 0.0000000000000000e+00  3.4757561919921055e-05 -3.0889127379904962e-04 0.0000000000000000e+00  3.3200425870697323e-05 -2.7448398734544120e-04 0.0000000000000000e+00  2.3082110658624696e-05 -1.1115759449379033e-04 0.0000000000000000e+00  3.3426826220788517e-05 -7.3154891583346326e-04 0.0000000000000000e+00  1.1112179573702745e-05 -2.8947636939592824e-05 0.0000000000000000e+00  1.9938823415167821e-05 -7.9304256434380464e-04 0.0000000000000000e+00  1.4021194436852518e-06 -1.6556977361909605e-06 0.0000000000000000e+00  2.6407880772078009e-05 -6.1482625891176547e-04 0.0000000000000000e+00  2.5407546027511480e-05 -6.6518592768613743e-04 0.0000000000000000e+00  9.1527435476180598e-06 -1.4144929045174502e-05 0.0000000000000000e+00  2.0074590526733102e-05 -5.5252762395246969e-05 0.0000000000000000e+00  2.7662545353143385e-05 -4.6714779218683301e-04 0.0000000000000000e+00  2.7112928058264326e-05 -5.6491695767567297e-04 0.0000000000000000e+00  3.3212630691970478e-05 -1.5387211836400717e-04 0.0000000000000000e+00  2.7524680541491852e-05 -4.1966417771016374e-04 0.0000000000000000e+00  2.4227200189686385e-05 -7.9035330975898304e-05 0.0000000000000000e+00  3.6133781414234237e-05 -1.8912744320697606e-04 0.0000000000000000e+00  2.7112932329017165e-05 -3.7339445880920784e-04 0.0000000000000000e+00  2.7527249012187985e-05 -5.1562724944118987e-04 0.0000000000000000e+00  4.0347119495902565e-05 -2.2703098001896206e-04 0.0000000000000000e+00  2.6429326308371928e-05 -3.2857081800588968e-04 0.0000000000000000e+00  9.1734938933442769e-08 -1.4202386510710886e-06 0.0000000000000000e+00  -4.2864431739033067e-07 8.7564841710664601e-07 0.0000000000000000e+00  3.7619036712097677e-05 -8.3888873519306179e-04 0.0000000000000000e+00  4.5046329375404108e-06 -5.9402646415909838e-06 0.0000000000000000