<?xml version="1.0"?>
<VTKFile type="UnstructuredGrid"  version="0.1"  >
<UnstructuredGrid>
<Piece  NumberOfPoints="1419" NumberOfCells="2698">
<Points>
<DataArray  type="Float64"  NumberOfComponents="3"  format="ascii">0 0 0  0 0.41 0  2.5 0 0  2.5 0.41 0  0.6 0.19 0  0.6 0.21 0  0.25 0.2 0  0.15 0.2 0  0.2489897948556636 0.21 0  0.2489897948556636 0.19 0  0.6 0.2 0  0 0.3807142857143437 0  0 0.3514285714286952 0  0 0.3221428571430699 0  0 0.29285714285744 0  0 0.2635714285718054 0  0 0.2342857142861561 0  0 0.2050000000005308 0  0 0.175714285714732 0  0 0.1464285714289574 0  0 0.1171428571431897 0  0 0.08785714285737878 0  0 0.05857142857161107 0  0 0.02928571428580012 0  0.03015443760436003 0 0  0.06140001986583606 0 0  0.09377624077125973 0 0  0.1273239957535082 0 0  0.1620856860351972 0 0  0.1981052433264291 0 0  0.235428184091502 0 0  0.2741016576309132 0 0  0.3141745521465447 0 0  0.3556974926295285 0 0  0.3987229542472677 0 0  0.4433053055141081 0 0  0.4895008759286886 0 0  0.5373680609405097 0 0  0.5869673343216626 0 0  0.6383613676634521 0 0  0.6916151138468254 0 0  0.7467958595648856 0 0  0.8039733463919316 0 0  0.8632198139502143 0 0  0.9246101326867038 0 0  0.9882218810934433 0 0  1.054135445558498 0 0  1.122434100542598 0 0  1.193204177141305 0 0  1.266535089879536 0 0  1.342519516046404 0 0  1.421253448503939 0 0  1.502836389106271 0 0  1.587371439758838 0 0  1.674965418777374 0 0  1.765729001825544 0 0  1.859776908880082 0 0  1.957227977487062 0 0  2.058205329869943 0 0  2.162836591189951 0 0  2.271253957290865 0 0  2.383594446803425 0 0  2.5 0.1024999999997612 0  2.5 0.2049999999994743 0  2.5 0.3074999999997183 0  2.383594446803656 0.41 0  2.271253957291315 0.41 0  2.162836591190598 0.41 0  2.058205329870775 0.41 0  1.957227977488067 0.41 0  1.859776908881246 0.41 0  1.765729001826854 0.41 0  1.674965418778818 0.41 0  1.58737143976041 0.41 0  1.502836389107956 0.41 0  1.421253448505726 0.41 0  1.342519516048286 0.41 0  1.266535089881505 0.41 0  1.193204177143353 0.41 0  1.122434100544716 0.41 0  1.05413544556068 0.41 0  0.9882218810956305 0.41 0  0.9246101326886647 0.41 0  0.8632198139519631 0.41 0  0.8039733463934788 0.41 0  0.7467958595662458 0.41 0  0.6916151138480078 0.41 0  0.6383613676644679 0.41 0  0.5869673343225223 0.41 0  0.5373680609412221 0.41 0  0.4895008759292634 0.41 0  0.4433053055145528 0.41 0  0.3987229542475914 0.41 0  0.3556974926297398 0.41 0  0.3141745521466497 0.41 0  0.2741016576310038 0.41 0  0.2354281840915826 0.41 0  0.1981052433265003 0.41 0  0.1620856860352591 0.41 0  0.1273239957535623 0.41 0  0.09377624077128965 0.41 0  0.06140001986584975 0.41 0  0.03015443760436654 0.41 0  0.2497468076502589 0.2050254481002335 0  0.2497468076502614 0.1949745518997913 0  0.2469965252529372 0.1829317073451959 0  0.2439893735792749 0.1762316384219906 0  0.2400332147834255 0.1700443375285386 0  0.2352133972704371 0.1645032867342007 0  0.2296339016332438 0.1597280261969788 0  0.2234150974217223 0.1558215752574715 0  0.2166911463437691 0.1528682099456123 0  0.2096071079204251 0.1509316448471593 0  0.2023158100364996 0.1500536585536553 0  0.194974551899914 0.1502531923497262 0  0.1877417105387872 0.1515259415822739 0  0.1807733240461124 0.153844448527136 0  0.1742197252835808 0.15715869474974 0  0.1682222986673531 0.1613971801805478 0  0.162910430003803 0.1664684656256651 0  0.1583987151779087 0.1722631454351573 0  0.1547844879126891 0.178656207771761 0  0.1521457199348551 0.1855097315605723 0  0.1505393388476355 0.1926758619366523 0  0.1505393388476328 0.2073241380633295 0  0.1521457199348437 0.2144902684393899 0  0.1547844879126531 0.221343792228163 0  0.1583987151778488 0.2277368545647528 0  0.1629104300036858 0.2335315343742052 0  0.1682222986671726 0.2386028198193036 0  0.1742197252833576 0.2428413052501257 0  0.1807733240458683 0.2461555514727623 0  0.1877417105384929 0.2484740584176516 0  0.1949745518995776 0.2497468076502398 0  0.202315810036185 0.2499463414463592 0  0.2096071079201568 0.2490683551528932 0  0.2166911463435495 0.2471317900544655 0  0.2234150974215506 0.2441784247426195 0  0.2296339016331197 0.2402719738031125 0  0.2352133972703547 0.2354967132658811 0  0.2400332147833751 0.2299556624715287 0  0.2439893735792577 0.2237683615780412 0  0.246996525252926 0.2170682926548348 0  0.25645809709277 0.21 0  0.2639263993298655 0.21 0  0.271394701566961 0.21 0  0.2788630038040554 0.21 0  0.2863313060411479 0.21 0  0.2937996082782405 0.21 0  0.301267910515333 0.21 0  0.3087362127524279 0.21 0  0.3162045149895234 0.21 0  0.3236728172265972 0.21 0  0.3311411194636928 0.21 0  0.3386094217007701 0.21 0  0.3460777239378666 0.21 0  0.3535460261749672 0.21 0  0.3610143284120516 0.21 0  0.3684826306491596 0.21 0  0.3759509328862226 0.21 0  0.383419235123329 0.21 0  0.3908875373604028 0.21 0  0.3983558395975142 0.21 0  0.4058241418345938 0.21 0  0.4132924440716992 0.21 0  0.4207607463087888 0.21 0  0.4282290485459029 0.21 0  0.4356973507830418 0.21 0  0.4431656530201649 0.21 0  0.4506339552573136 0.21 0  0.4581022574944306 0.21 0  0.4655705597315852 0.21 0  0.4730388619686996 0.21 0  0.480507164205851 0.21 0  0.4879754664429498 0.21 0  0.4954437686800938 0.21 0  0.502912070917267 0.21 0  0.5103803731544119 0.21 0  0.5178486753915261 0.21 0  0.5253169776286404 0.21 0  0.5327852798657868 0.21 0  0.5402535821029386 0.21 0  0.54772188434007 0.21 0  0.5551901865771842 0.21 0  0.5626584888143201 0.21 0  0.5701267910514778 0.21 0  0.5775950932886138 0.21 0  0.5850633955257281 0.21 0  0.5925316977628483 0.21 0  0.6 0.2050000000000054 0  0.6 0.1950000000000217 0  0.5925316977628897 0.19 0  0.5850633955257988 0.19 0  0.5775950932887378 0.19 0  0.5701267910515998 0.19 0  0.5626584888145268 0.19 0  0.5551901865773963 0.19 0  0.547721884340339 0.19 0  0.5402535821032429 0.19 0  0.5327852798661811 0.19 0  0.5253169776290537 0.19 0  0.5178486753919799 0.19 0  0.5103803731549078 0.19 0  0.502912070917822 0.19 0  0.4954437686807294 0.19 0  0.4879754664436223 0.19 0  0.4805071642065402 0.19 0  0.4730388619694271 0.19 0  0.4655705597323621 0.19 0  0.4581022574952563 0.19 0  0.4506339552581777 0.19 0  0.4431656530210671 0.19 0  0.4356973507839815 0.19 0  0.4282290485468779 0.19 0  0.4207607463097617 0.19 0  0.4132924440726327 0.19 0  0.4058241418354857 0.19 0  0.3983558395983636 0.19 0  0.3908875373612097 0.19 0  0.3834192351240934 0.19 0  0.3759509328869369 0.19 0  0.3684826306498175 0.19 0  0.361014328412667 0.19 0  0.3535460261755617 0.19 0  0.3460777239384295 0.19 0  0.3386094217012945 0.19 0  0.3311411194641595 0.19 0  0.3236728172270245 0.19 0  0.3162045149898895 0.19 0  0.3087362127527544 0.19 0  0.3012679105156187 0.19 0  0.2937996082784807 0.19 0  0.2863313060413428 0.19 0  0.2788630038042048 0.19 0  0.2713947015670686 0.19 0  0.2639263993299336 0.19 0  0.2564580970927985 0.19 0  0.2607803159922026 0.2000727136295815 0  0.5887803774232762 0.2001272386983733 0  0.5745072403740523 0.2002044435018727 0  0.5511891430099709 0.2001122610077113 0  0.2751288526855082 0.20000000000002 0  0.5365194309847112 0.1999999999999436 0  0.2894621222999649 0.1998691686390484 0  0.5215828265105155 0.1999999999999228 0  0.3127789816668748 0.1998657885438805 0  0.3274069683451451 0.2000000000000796 0  0.5066462220363641 0.199999999999908 0  0.3650630746574081 0.199866017807523 0  0.476773013087985 0.1999999999998713 0  0.3417402379596385 0.1998691686391011 0  0.3796850840047755 0.200000000000134 0  0.4618364086138087 0.1999999999998546 0  0.4917096175621762 0.1999999999998808 0  0.3946216884789568 0.2000000000001512 0  0.446899804139621 0.1999999999998389 0  0.4089549580935208 0.1998691686391595 0  0.4322718174608562 0.200127451265745 0  0.4201487168029707 0.1999966199048527 0  0.3528922713220932 0.2000185703532356 0  0.5633122436674589 0.1999814296467508 0  0.3006558810093873 0.1999966199048318 0  0.5815926498168407 0.1966545283159175 0  0.2677053789419034 0.1964246479135325 0  0.5290511287476175 0.1970915826863981 0  0.5439877332217911 0.197091582686394 0  0.2825131256993216 0.2035478995978015 0  0.3199386661080599 0.202908417313604 0  0.4842413153250809 0.1970915826863873 0  0.5141145242734466 0.1970915826863843 0  0.3722167817676917 0.2029084173136195 0  0.4693047108508938 0.1970915826863783 0  0.3348752705822316 0.202908417313609 0  0.3871533862418661 0.2029084173136212 0  0.4543681063767183 0.1970915826863795 0  0.4991779197992749 0.1970915826863902 0  0.4020059614928624 0.203547899597858 0  0.4394315019025246 0.1970915826863714 0  0.2550657455369551 0.2034088125358657 0  0.2548908499171161 0.1966940311614271 0  0.5946539510196798 0.2024302972968126 0  0.267698176732111 0.2039977513680092 0  0.4261685417851465 0.196409292431739 0  0.3590076176283495 0.196411355804271 0  0.5571672426447437 0.2036011176410121 0  0.3066757059912147 0.1964092924317024 0  0.594380730180568 0.1966558399668133 0  0.4842413153245942 0.2040749161535287 0  0.4693047108503577 0.2040749161535231 0  0.3871533862424271 0.1959250838464788 0  0.372246743208829 0.1959123236376545 0  0.5141145242731028 0.2040749161535395 0  0.4543681063761134 0.2040749161535186 0  0.4019979587101454 0.1959834479682427 0  0.4394608940728603 0.2040870543693135 0  0.5439623148931173 0.2040856076781014 0  0.5290511287473298 0.2040749161535501 0  0.4991779197988497 0.2040749161535382 0  0.3347912413592433 0.1959225448935183 0  0.3199680582793816 0.1959123018030061 0  0.2825051229162361 0.1959834479681729 0  0.3590471196690275 0.2036304442587945 0  0.5571594006495384 0.1963685282145804 0  0.3067669986803285 0.203627750582736 0  0.4262598344738712 0.2036568242185335 0  0.5814408164431408 0.2041285596160068 0  0.5688286748170428 0.1961819304477386 0  0.4145905603063645 0.2038180695522843 0  0.3473758401724931 0.2038180695522752 0  0.2950977245128307 0.2038180695522663 0  0.5688286748170693 0.203818069552238 0  0.2950977245127906 0.1961819304477774 0  0.3473758401723931 0.1961819304478349 0  0.4145905603061963 0.1961819304479011 0  0.2601812407614425 0.2056861609747042
[...]
<PointData  Vectors="f_40-0"> 
<DataArray  type="Float64"  Name="f_40-0"  NumberOfComponents="3" format="ascii">0.0000000000000000e+00 0.0000000000000000e+00 0.0000000000000000e+00  0.0000000000000000e+00 0.0000000000000000e+00 0.0000000000000000e+00  0.0000000000000000e+00 0.0000000000000000e+00 0.0000000000000000e+00  0.0000000000000000e+00 0.0000000000000000e+00 0.0000000000000000e+00  -5.4170815750327886e-06 -9.0522790091776626e-04 0.0000000000000000e+00  6.7051988427102040e-05 -9.0976589432163236e-04 0.0000000000000000e+00  0.0000000000000000e+00 0.0000000000000000e+00 0.0000000000000000e+00  0.0000000000000000e+00 0.0000000000000000e+00 0.0000000000000000e+00  0.0000000000000000e+00 0.0000000000000000e+00 0.0000000000000000e+00  0.0000000000000000e+00 0.0000000000000000e+00 0.0000000000000000e+00  3.0205289840302674e-05 -9.0748109743371650e-04 0.0000000000000000e+00  1.3539417714330321e-01 0.0000000000000000e+00 0.0000000000000000e+00  2.4995848087996095e-01 0.0000000000000000e+00 0.0000000000000000e+00  3.4369291120994638e-01 0.0000000000000000e+00 0.0000000000000000e+00  4.1659746813336795e-01 0.0000000000000000e+00 0.0000000000000000e+00  4.6867215165021625e-01 0.0000000000000000e+00 0.0000000000000000e+00  4.9991696176048828e-01 0.0000000000000000e+00 0.0000000000000000e+00  5.1033189846415250e-01 0.0000000000000000e+00 0.0000000000000000e+00  4.9991696176111988e-01 0.0000000000000000e+00 0.0000000000000000e+00  4.6867215165130138e-01 0.0000000000000000e+00 0.0000000000000000e+00  4.1659746813471171e-01 0.0000000000000000e+00 0.0000000000000000e+00  3.4369291121122292e-01 0.0000000000000000e+00 0.0000000000000000e+00  2.4995848088105030e-01 0.0000000000000000e+00 0.0000000000000000e+00  1.3539417714391697e-01 0.0000000000000000e+00 0.0000000000000000e+00  0.0000000000000000e+00 0.0000000000000000e+00 0.0000000000000000e+00  0.0000000000000000e+00 0.0000000000000000e+00 0.0000000000000000e+00  0.0000000000000000e+00 0.0000000000000000e+00 0.0000000000000000e+00  0.0000000000000000e+00 0.0000000000000000e+00 0.0000000000000000e+00  0.0000000000000000e+00 0.0000000000000000e+00 0.0000000000000000e+00  0.0000000000000000e+00 0.0000000000000000e+00 0.0000000000000000e+00  0.0000000000000000e+00 0.0000000000000000e+00 0.0000000000000000e+00  0.0000000000000000e+00 0.0000000000000000e+00 0.0000000000000000e+00  0.0000000000000000e+00 0.0000000000000000e+00 0.0000000000000000e+00  0.0000000000000000e+00 0.0000000000000000e+00 0.0000000000000000e+00  0.0000000000000000e+00 0.0000000000000000e+00 0.0000000000000000e+00  0.0000000000000000e+00 0.0000000000000000e+00 0.0000000000000000e+00  0.0000000000000000e+00 0.0000000000000000e+00 0.0000000000000000e+00  0.0000000000000000e+00 0.0000000000000000e+00 0.0000000000000000e+00  0.0000000000000000e+00 0.0000000000000000e+00 0.0000000000000000e+00  0.0000000000000000e+00 0.0000000000000000e+00 0.0000000000000000e+00  0.0000000000000000e+00 0.0000000000000000e+00 0.0000000000000000e+00  0.0000000000000000e+00 0.0000000000000000e+00 0.0000000000000000e+00  0.0000000000000000e+00 0.0000000000000000e+00 0.0000000000000000e+00  0.0000000000000000e+00 0.0000000000000000e+00 0.0000000000000000e+00  0.0000000000000000e+00 0.0000000000000000e+00 0.0000000000000000e+00  0.0000000000000000e+00 0.0000000000000000e+00 0.0000000000000000e+00  0.0000000000000000e+00 0.0000000000000000e+00 0.0000000000000000e+00  0.0000000000000000e+00 0.0000000000000000e+00 0.0000000000000000e+00  0.0000000000000000e+00 0.0000000000000000e+00 0.0000000000000000e+00  0.0000000000000000e+00 0.0000000000000000e+00 0.0000000000000000e+00  0.0000000000000000e+00 0.0000000000000000e+00 0.0000000000000000e+00  0.0000000000000000e+00 0.0000000000000000e+00 0.0000000000000000e+00  0.0000000000000000e+00 0.0000000000000000e+00 0.0000000000000000e+00  0.0000000000000000e+00 0.0000000000000000e+00 0.0000000000000000e+00  0.0000000000000000e+00 0.0000000000000000e+00 0.0000000000000000e+00  0.0000000000000000e+00 0.0000000000000000e+00 0.0000000000000000e+00  0.0000000000000000e+00 0.0000000000000000e+00 0.0000000000000000e+00  0.0000000000000000e+00 0.0000000000000000e+00 0.0000000000000000e+00  0.0000000000000000e+00 0.0000000000000000e+00 0.0000000000000000e+00  0.0000000000000000e+00 0.0000000000000000e+00 0.0000000000000000e+00  0.0000000000000000e+00 0.0000000000000000e+00 0.0000000000000000e+00  0.0000000000000000e+00 0.0000000000000000e+00 0.0000000000000000e+00  4.9018923229761102e-01 1.3200101529695868e-02 0.0000000000000000e+00  3.4234276615229275e-01 -2.5980139050700668e-03 0.0000000000000000e+00  4.9009436415979674e-01 -8.2775772001153092e-03 0.0000000000000000e+00  0.0000000000000000e+00 0.0000000000000000e+00 0.0000000000000000e+00  0.0000000000000000e+00 0.0000000000000000e+00 0.0000000000000000e+00  0.0000000000000000e+00 0.0000000000000000e+00 0.0000000000000000e+00  0.0000000000000000e+00 0.0000000000000000e+00 0.0000000000000000e+00  0.0000000000000000e+00 0.0000000000000000e+00 0.0000000000000000e+00  0.0000000000000000e+00 0.0000000000000000e+00 0.0000000000000000e+00  0.0000000000000000e+00 0.0000000000000000e+00 0.0000000000000000e+00  0.0000000000000000e+00 0.0000000000000000e+00 0.0000000000000000e+00  0.0000000000000000e+00 0.0000000000000000e+00 0.0000000000000000e+00  0.0000000000000000e+00 0.0000000000000000e+00 0.0000000000000000e+00  0.0000000000000000e+00 0.0000000000000000e+00 0.0000000000000000e+00  0.0000000000000000e+00 0.0000000000000000e+00 0.0000000000000000e+00  0.0000000000000000e+00 0.0000000000000000e+00 0.0000000000000000e+00  0.0000000000000000e+00 0.0000000000000000e+00 0.0000000000000000e+00  0.0000000000000000e+00 0.0000000000000000e+00 0.0000000000000000e+00  0.0000000000000000e+00 0.0000000000000000e+00 0.0000000000000000e+00  0.0000000000000000e+00 0.0000000000000000e+00 0.0000000000000000e+00  0.0000000000000000e+00 0.0000000000000000e+00 0.0000000000000000e+00  0.0000000000000000e+00 0.0000000000000000e+00 0.0000000000000000e+00  0.0000000000000000e+00 0.0000000000000000e+00 0.0000000000000000e+00  0.0000000000000000e+00 0.0000000000000000e+00 0.0000000000000000e+00  0.0000000000000000e+00 0.0000000000000000e+00 0.0000000000000000e+00  0.0000000000000000e+00 0.0000000000000000e+00 0.0000000000000000e+00  0.0000000000000000e+00 0.0000000000000000e+00 0.0000000000000000e+00  0.0000000000000000e+00 0.0000000000000000e+00 0.0000000000000000e+00  0.0000000000000000e+00 0.0000000000000000e+00 0.0000000000000000e+00  0.0000000000000000e+00 0.0000000000000000e+00 0.0000000000000000e+00  0.0000000000000000e+00 0.0000000000000000e+00 0.0000000000000000e+00  0.0000000000000000e+00 0.0000000000000000e+00 0.0000000000000000e+00  0.0000000000000000e+00 0.0000000000000000e+00 0.0000000000000000e+00  0.0000000000000000e+00 0.0000000000000000e+00 0.0000000000000000e+00  0.0000000000000000e+00 0.0000000000000000e+00 0.0000000000000000e+00  0.0000000000000000e+00 0.0000000000000000e+00 0.0000000000000000e+00  0.0000000000000000e+00 0.0000000000000000e+00 0.0000000000000000e+00  0.0000000000000000e+00 0.0000000000000000e+00 0.0000000000000000e+00  0.0000000000000000e+00 0.0000000000000000e+00 0.0000000000000000e+00  0.0000000000000000e+00 0.0000000000000000e+00 0.0000000000000000e+00  0.0000000000000000e+00 0.0000000000000000e+00 0.0000000000000000e+00  0.0000000000000000e+00 0.0000000000000000e+00 0.0000000000000000e+00  0.0000000000000000e+00 0.0000000000000000e+00 0.0000000000000000e+00  0.0000000000000000e+00 0.0000000000000000e+00 0.0000000000000000e+00  0.0000000000000000e+00 0.0000000000000000e+00 0.0000000000000000e+00  0.0000000000000000e+00 0.0000000000000000e+00 0.0000000000000000e+00  0.0000000000000000e+00 0.0000000000000000e+00 0.0000000000000000e+00  0.0000000000000000e+00 0.0000000000000000e+00 0.0000000000000000e+00  0.0000000000000000e+00 0.0000000000000000e+00 0.0000000000000000e+00  0.0000000000000000e+00 0.0000000000000000e+00 0.0000000000000000e+00  0.0000000000000000e+00 0.0000000000000000e+00 0.0000000000000000e+00  0.0000000000000000e+00 0.0000000000000000e+00 0.0000000000000000e+00  0.0000000000000000e+00 0.0000000000000000e+00 0.0000000000000000e+00  0.0000000000000000e+00 0.0000000000000000e+00 0.0000000000000000e+00  0.0000000000000000e+00 0.0000000000000000e+00 0.0000000000000000e+00  0.0000000000000000e+00 0.0000000000000000e+00 0.0000000000000000e+00  0.0000000000000000e+00 0.0000000000000000e+00 0.0000000000000000e+00  0.0000000000000000e+00 0.0000000000000000e+00 0.0000000000000000e+00  0.0000000000000000e+00 0.0000000000000000e+00 0.0000000000000000e+00  0.0000000000000000e+00 0.0000000000000000e+00 0.0000000000000000e+00  0.0000000000000000e+00 0.0000000000000000e+00 0.0000000000000000e+00  0.0000000000000000e+00 0.0000000000000000e+00 0.0000000000000000e+00  0.0000000000000000e+00 0.0000000000000000e+00 0.0000000000000000e+00  0.0000000000000000e+00 0.0000000000000000e+00 0.0000000000000000e+00  0.0000000000000000e+00 0.0000000000000000e+00 0.0000000000000000e+00  0.0000000000000000e+00 0.0000000000000000e+00 0.0000000000000000e+00  0.0000000000000000e+00 0.0000000000000000e+00 0.0000000000000000e+00  0.0000000000000000e+00 0.0000000000000000e+00 0.0000000000000000e+00  0.0000000000000000e+00 0.0000000000000000e+00 0.0000000000000000e+00  0.0000000000000000e+00 0.0000000000000000e+00 0.0000000000000000e+00  0.0000000000000000e+00 0.0000000000000000e+00 0.0000000000000000e+00  0.0000000000000000e+00 0.0000000000000000e+00 0.0000000000000000e+00  0.0000000000000000e+00 0.0000000000000000e+00 0.0000000000000000e+00  0.0000000000000000e+00 0.0000000000000000e+00 0.0000000000000000e+00  0.0000000000000000e+00 0.0000000000000000e+00 0.0000000000000000e+00  0.0000000000000000e+00 0.0000000000000000e+00 0.0000000000000000e+00  0.0000000000000000e+00 0.0000000000000000e+00 0.0000000000000000e+00  0.0000000000000000e+00 0.0000000000000000e+00 0.0000000000000000e+00  0.0000000000000000e+00 0.0000000000000000e+00 0.0000000000000000e+00  0.0000000000000000e+00 0.0000000000000000e+00 0.0000000000000000e+00  0.0000000000000000e+00 0.0000000000000000e+00 0.0000000000000000e+00  2.6301176971187961e-06 -5.9855470189655047e-06 0.0000000000000000e+00  5.7130165089326023e-06 -8.2742332823332233e-06 0.0000000000000000e+00  8.9379838859860358e-06 -1.1639391908318061e-05 0.0000000000000000e+00  1.2516903361351294e-05 -1.6204874619333493e-05 0.0000000000000000e+00  1.5894835828186676e-05 -2.1987155989832994e-05 0.0000000000000000e+00  1.9557834076400424e-05 -2.9094982459787277e-05 0.0000000000000000e+00  2.2879935875705046e-05 -3.7170532255412160e-05 0.0000000000000000e+00  2.6166540001310252e-05 -4.6553307655880602e-05 0.0000000000000000e+00  2.9688483302962708e-05 -5.6942802584722841e-05 0.0000000000000000e+00  3.2752510600868784e-05 -6.8379402021396577e-05 0.0000000000000000e+00  3.6094659591069538e-05 -8.0904571874391398e-05 0.0000000000000000e+00  3.8960726300487072e-05 -9.4388640516795532e-05 0.0000000000000000e+00  4.1997812207866167e-05 -1.0886296996694444e-04 0.0000000000000000e+00  4.4667593018699079e-05 -1.2413803123994337e-04 0.0000000000000000e+00  4.7218663503563928e-05 -1.4039664692476925e-04 0.0000000000000000e+00  4.9872823190952286e-05 -1.5743248465915885e-04 0.0000000000000000e+00  5.2118497111786866e-05 -1.7521759565439208e-04 0.0000000000000000e+00  5.4490642118348153e-05 -1.9382895634727373e-04 0.0000000000000000e+00  5.6473785774891531e-05 -2.1307976563174444e-04 0.0000000000000000e+00  5.8549394848472242e-05 -2.3304323097177586e-04 0.0000000000000000e+00  6.0321479902196691e-05 -2.5359713921114559e-04 0.0000000000000000e+00  6.2096588802607917e-05 -2.7481010230703216e-04 0.0000000000000000e+00  6.3624682664326800e-05 -2.9649124037310864e-04 0.0000000000000000e+00  6.5033450463520881e-05 -3.1876746165809643e-04 0.0000000000000000e+00  6.6455257114429750e-05 -3.4148278562888914e-04 0.0000000000000000e+00  6.7649080194044726e-05 -3.6465788913351101e-04 0.0000000000000000e+00  6.8762032978111713e-05 -3.8832614817986755e-04 0.0000000000000000e+00  6.9721173662669428e-05 -4.1232009708398168e-04 0.0000000000000000e+00  7.0593070911190229e-05 -4.3675180284033298e-04 0.0000000000000000e+00  7.1317824258750496e-05 -4.6145863020996514e-04 0.0000000000000000e+00  7.1953584325444483e-05 -4.8653815300922038e-04 0.0000000000000000e+00  7.2446532938317314e-05 -5.1183355537880203e-04 0.0000000000000000e+00  7.2853317552781774e-05 -5.3744406893691411e-04 0.0000000000000000e+00  7.3117951145866303e-05 -5.6321368855192350e-04 0.0000000000000000e+00  7.3285726635704718e-05 -5.8925990743393698e-04 0.0000000000000000e+00  7.3328109041170516e-05 -6.1541556640288381e-04 0.0000000000000000e+00  7.3274846685603400e-05 -6.4178622453471448e-04 0.0000000000000000e+00  7.3099065917880596e-05 -6.6822559295506043e-04 0.0000000000000000e+00  7.2824034543178911e-05 -6.9483696709917667e-04 0.0000000000000000e+00  7.2427597024312599e-05 -7.2148242306873593e-04 0.0000000000000000e+00  7.1925574251404932e-05 -7.4824423917358731e-04 0.0000000000000000e+00  7.1319608745233379e-05 -7.7502986778912755e-04 0.0000000000000000e+00  7.0596777708020433e-05 -8.0188195964230047e-04 0.0000000000000000e+00  6.9813698908512367e-05 -8.2875245114910536e-04 0.0000000000000000e+00  6.8900211266178889e-05 -8.5560462395072425e-04 0.0000000000000000e+00  6.7927344612017418e-05 -8.8253125815937700e-04 0.0000000000000000e+00  4.8416549433448267e-05 -9.0860233479310383e-04 0.0000000000000000e+00  1.2220739368567320e-05 -9.0636570315053868e-04 0.0000000000000000e+00  -4.4693052160904140e-06 -8.7833335021660108e-04 0.0000000000000000e+00  -3.4372266106435245e-06 -8.5119276877525447e-04 0.0000000000000000e+00  -2.4513340668677423e-06 -8.2402769769516907e-04 0.0000000000000000e+00  -1.5585642352075247e-06 -7.9693519788942156e-04 0.0000000000000000e+00  -7.2115247210960452e-07 -7.6987614158655451e-04 0.0000000000000000e+00  2.4733714360358802e-08 -7.4287460479878563e-04 0.0000000000000000e+00  7.3484217000056329e-07 -7.1593940642300470e-04 0.0000000000000000e+00  1.3435435537118019e-06 -6.8905913016250697e-04 0.0000000000000000e+00  1.9277505636787837e-06 -6.6231599941015318e-04 0.0000000000000000e+00  2.4124458553641441e-06 -6.3564107850860895e-04 0.0000000000000000e+00  2.8917440240971973e-06 -6.0913944030996305e-04 0.0000000000000000e+00  3.2617638203459252e-06 -5.8274864774312803e-04 0.0000000000000000e+00  3.6447067286683779e-06 -5.5658154905447420e-04 0.0000000000000000e+00  3.9118134932958086e-06 -5.3057775835575478e-04 0.0000000000000000e+00  4.2137637424028236e-06 -5.0484388078808661e-04 0.0000000000000000e+00  4.3831669758310951e-06 -4.7932443135789466e-04 0.0000000000000000e+00  4.6111682429077819e-06 -4.5412225903890914e-04 0.0000000000000000e+00  4.6872105626847065e-06 -4.2918659204219453e-04 0.0000000000000000e+00  4.8400553842240245e-06 -4.0463352542699369e-04 0.0000000000000000e+00  4.8273817290374395e-06 -3.8041277437060654e-04 0.0000000000000000e+00  4.9211299708563641e-06 -3.5663289421818220e-04 0.0000000000000000e+00  4.8269940118016024e-06 -3.3324751902434781e-04 0.0000000000000000e+00  4.8375042911279997e-06 -3.1035302759908104e-04 0.0000000000000000e+00  4.6946823534425289e-06 -2.8789710715878419e-04 0.0000000000000000e+00  4.4937823812950864e-06 -2.6605078859311273e-04 0.0000000000000000e+00  4.4108373255795103e-06 -2.4466438063747365e-04 0.0000000000000000e+00  4.1800709924471104e-06 -2.2390922072073420e-04 0.0000000000000000e+00  3.9941963939553292e-06 -2.0380048554445072e-04 0.0000000000000000e+00  3.7043237683176086e-06 -1.8432949377507777e-04 0.0000000000000000e+00  3.4526201530514360e-06 -1.6559848698359167e-04 0.0000000000000000e+00  3.0984712792139514e-06 -1.4755530416460963e-04 0.0000000000000000e+00  2.8650356255323776e-06 -1.3042676494586403e-04 0.0000000000000000e+00  2.4264456774749210e-06 -1.1397582246811612e-04 0.0000000000000000e+00  1.9429357043523322e-06 -9.8561745713871763e-05 0.0000000000000000e+00  1.6609096912577929e-06 -8.3880843246723007e-05 0.0000000000000000e+00  1.2148063174332393e-06 -7.0267939370871260e-05 0.0000000000000000e+00  8.5272122989389244e-07 -5.7662655147439321e-05 0.0000000000000000e+00  3.9262480405190675e-07 -4.6074732863957013e-05 0.0000000000000000e+00  1.3524708731516846e-07 -3.5710577285155133e-05 0.0000000000000000e+00  -3.4919847779990674e-07 -2.6298577341619538e-05 0.0000000000000000e+00  -8.1969129617139896e-07 -1.8255916761692097e-05 0.0000000000000000e+00  -9.5683934404921207e-07 -1.1202506756918467e-05 0.0000000000000000e+00  -1.2378696317182586e-06 -5.4648905384068445e-06 0.0000000000000000e+00  -1.1678388352889200e-06 -9.9461887685501374e-07 0.0000000000000000e+00  -1.1511241885723092e-06 2.0214414416453558e-06 0.0000000000000000e+00  -5.6986244658382050e-07 3.5083725213868420e-06 0.0000000000000000e+00  8.6011158541487761e-07 -1.2798053506829158e-06 0.0000000000000000e+00  3.2469291922164742e-05 -8.6686319654578740e-04 0.0000000000000000e+00  3.4683124819067157e-05 -8.1525091257923061e-04 0.0000000000000000e+00  3.6620891381538133e-05 -7.3114807490206820e-04 0.0000000000000000e+00  4.7135610546715782e-06 -7.5834932752686854e-06 0.0000000000000000e+00  3.7200001683574927e-05 -6.7852604356569135e-04 0.0000000000000000e+00  8.1390898717861990e-06 -1.8521635904663071e-05 0.0000000000000000e+00  3.7880122329078897e-05 -6.2538070216355021e-04 0.0000000000000000e+00  1.3919752108029864e-05 -4.5811552403150626e-05 0.0000000000000000e+00  1.7658305416177540e-05 -6.8518287909547640e-05 0.0000000000000000e+00  3.8231600677421472e-05 -5.7280277886710847e-04 0.0000000000000000e+00  2.5435477862735025e-05 -1.4396596059274480e-04 0.0000000000000000e+00  3.7971495990830810e-05 -4.7012863964532493e-04 0.0000000000000000e+00  2.0702530422781933e-05 -9.4420826110662781e-05 0.0000000000000000e+00  2.8354157039967673e-05 -1.7917946349208801e-04 0.0000000000000000e+00  3.7366071396405052e-05 -4.2044787585778577e-04 0.0000000000000000e+00  3.8260782811604285e-05 -5.2098462691038824e-04 0.0000000000000000e+00  3.0716131535872989e-05 -2.1794650114184957e-04 0.0000000000000000e+00  3.6441947529813182e-05 -3.7218664714661667e-04 0.0000000000000000e+00  3.2316127867461384e-05 -2.5753164739423118e-04 0.0000000000000000e+00  3.5633035848556534e-05 -3.2658058778013298e-04 0.0000000000000000e+00  3.3969357160054197e-05 -2.9013038017182137e-04 0.0000000000000000e+00  2.3341291179022228e-05 -1.1726346906918702e-04 0.0000000000000000e+00  3.5040614265564388e-05 -7.7478154293623947e-04 0.0000000000000000e+00  1.1052087981446215e-05 -3.0468971414754660e-05 0.0000000000000000e+00  2.0950155542437651e-05 -8.4007954323587434e-04 0.0000000000000000e+00  1.2912911086646743e-06 -1.8918121142742389e-06 0.0000000000000000e+00  2.7258130306994113e-05 -6.5102916035400928e-04 0.0000000000000000e+00  2.6331712221486204e-05 -7.0444484086557458e-04 0.0000000000000000e+00  9.2133449515097390e-06 -1.4725506732126214e-05 0.0000000000000000e+00  2.0330254857567691e-05 -5.8112038739401845e-05 0.0000000000000000e+00  2.8286149330695108e-05 -4.9441657210987111e-04 0.0000000000000000e+00  2.7888273475020408e-05 -5.9809557374903828e-04 0.0000000000000000e+00  3.4003520003116894e-05 -1.6234272391600827e-04 0.0000000000000000e+00  2.8071820917445965e-05 -4.4407247835589851e-04 0.0000000000000000e+00  2.4624321829485038e-05 -8.3225735590614208e-05 0.0000000000000000e+00  3.7075148793651736e-05 -1.9965161212787746e-04 0.0000000000000000e+00  2.7582987361212458e-05 -3.9502452455828847e-04 0.0000000000000000e+00  2.8226897142508026e-05 -5.4582385189116988e-04 0.0000000000000000e+00  4.1529079408975626e-05 -2.3976343293593690e-04 0.0000000000000000e+00  2.6821325423688311e-05 -3.4751976659127973e-04 0.0000000000000000e+00  1.2400883844925254e-07 -1.3942716004580818e-06 0.0000000000000000e+00  -4.2277472262239128e-07 8.3752001316799722e-07 0.0000000000000000e+00  3.9886517980716022e-05 -8.8861025970959722e-04 0.0000000000000000e+00  4.5543216221911131e-06 -6.0594896794829736e-06 0.000000000000000