<?xml version="1.0"?>
<VTKFile type="UnstructuredGrid"  version="0.1"  >
<UnstructuredGrid>
<Piece  NumberOfPoints="1419" NumberOfCells="2698">
<Points>
<DataArray  type="Float64"  NumberOfComponents="3"  format="ascii">0 0 0  0 0.41 0  2.5 0 0  2.5 0.41 0  0.6 0.19 0  0.6 0.21 0  0.25 0.2 0  0.15 0.2 0  0.2489897948556636 0.21 0  0.2489897948556636 0.19 0  0.6 0.2 0  0 0.3807142857143437 0  0 0.3514285714286952 0  0 0.3221428571430699 0  0 0.29285714285744 0  0 0.2635714285718054 0  0 0.2342857142861561 0  0 0.2050000000005308 0  0 0.175714285714732 0  0 0.1464285714289574 0  0 0.1171428571431897 0  0 0.08785714285737878 0  0 0.05857142857161107 0  0 0.02928571428580012 0  0.03015443760436003 0 0  0.06140001986583606 0 0  0.09377624077125973 0 0  0.1273239957535082 0 0  0.1620856860351972 0 0  0.1981052433264291 0 0  0.235428184091502 0 0  0.2741016576309132 0 0  0.3141745521465447 0 0  0.3556974926295285 0 0  0.3987229542472677 0 0  0.4433053055141081 0 0  0.4895008759286886 0 0  0.5373680609405097 0 0  0.5869673343216626 0 0  0.6383613676634521 0 0  0.6916151138468254 0 0  0.7467958595648856 0 0  0.8039733463919316 0 0  0.8632198139502143 0 0  0.9246101326867038 0 0  0.9882218810934433 0 0  1.054135445558498 0 0  1.122434100542598 0 0  1.193204177141305 0 0  1.266535089879536 0 0  1.342519516046404 0 0  1.421253448503939 0 0  1.502836389106271 0 0  1.587371439758838 0 0  1.674965418777374 0 0  1.765729001825544 0 0  1.859776908880082 0 0  1.957227977487062 0 0  2.058205329869943 0 0  2.162836591189951 0 0  2.271253957290865 0 0  2.383594446803425 0 0  2.5 0.1024999999997612 0  2.5 0.2049999999994743 0  2.5 0.3074999999997183 0  2.383594446803656 0.41 0  2.271253957291315 0.41 0  2.162836591190598 0.41 0  2.058205329870775 0.41 0  1.957227977488067 0.41 0  1.859776908881246 0.41 0  1.765729001826854 0.41 0  1.674965418778818 0.41 0  1.58737143976041 0.41 0  1.502836389107956 0.41 0  1.421253448505726 0.41 0  1.342519516048286 0.41 0  1.266535089881505 0.41 0  1.193204177143353 0.41 0  1.122434100544716 0.41 0  1.05413544556068 0.41 0  0.9882218810956305 0.41 0  0.9246101326886647 0.41 0  0.8632198139519631 0.41 0  0.8039733463934788 0.41 0  0.7467958595662458 0.41 0  0.6916151138480078 0.41 0  0.6383613676644679 0.41 0  0.5869673343225223 0.41 0  0.5373680609412221 0.41 0  0.4895008759292634 0.41 0  0.4433053055145528 0.41 0  0.3987229542475914 0.41 0  0.3556974926297398 0.41 0  0.3141745521466497 0.41 0  0.2741016576310038 0.41 0  0.2354281840915826 0.41 0  0.1981052433265003 0.41 0  0.1620856860352591 0.41 0  0.1273239957535623 0.41 0  0.09377624077128965 0.41 0  0.06140001986584975 0.41 0  0.03015443760436654 0.41 0  0.2497468076502589 0.2050254481002335 0  0.2497468076502614 0.1949745518997913 0  0.2469965252529372 0.1829317073451959 0  0.2439893735792749 0.1762316384219906 0  0.2400332147834255 0.1700443375285386 0  0.2352133972704371 0.1645032867342007 0  0.2296339016332438 0.1597280261969788 0  0.2234150974217223 0.1558215752574715 0  0.2166911463437691 0.1528682099456123 0  0.2096071079204251 0.1509316448471593 0  0.2023158100364996 0.1500536585536553 0  0.194974551899914 0.1502531923497262 0  0.1877417105387872 0.1515259415822739 0  0.1807733240461124 0.153844448527136 0  0.1742197252835808 0.15715869474974 0  0.1682222986673531 0.1613971801805478 0  0.162910430003803 0.1664684656256651 0  0.1583987151779087 0.1722631454351573 0  0.1547844879126891 0.178656207771761 0  0.1521457199348551 0.1855097315605723 0  0.1505393388476355 0.1926758619366523 0  0.1505393388476328 0.2073241380633295 0  0.1521457199348437 0.2144902684393899 0  0.1547844879126531 0.221343792228163 0  0.1583987151778488 0.2277368545647528 0  0.1629104300036858 0.2335315343742052 0  0.1682222986671726 0.2386028198193036 0  0.1742197252833576 0.2428413052501257 0  0.1807733240458683 0.2461555514727623 0  0.1877417105384929 0.2484740584176516 0  0.1949745518995776 0.2497468076502398 0  0.202315810036185 0.2499463414463592 0  0.2096071079201568 0.2490683551528932 0  0.2166911463435495 0.2471317900544655 0  0.2234150974215506 0.2441784247426195 0  0.2296339016331197 0.2402719738031125 0  0.2352133972703547 0.2354967132658811 0  0.2400332147833751 0.2299556624715287 0  0.2439893735792577 0.2237683615780412 0  0.246996525252926 0.2170682926548348 0  0.25645809709277 0.21 0  0.2639263993298655 0.21 0  0.271394701566961 0.21 0  0.2788630038040554 0.21 0  0.2863313060411479 0.21 0  0.2937996082782405 0.21 0  0.301267910515333 0.21 0  0.3087362127524279 0.21 0  0.3162045149895234 0.21 0  0.3236728172265972 0.21 0  0.3311411194636928 0.21 0  0.3386094217007701 0.21 0  0.3460777239378666 0.21 0  0.3535460261749672 0.21 0  0.3610143284120516 0.21 0  0.3684826306491596 0.21 0  0.3759509328862226 0.21 0  0.383419235123329 0.21 0  0.3908875373604028 0.21 0  0.3983558395975142 0.21 0  0.4058241418345938 0.21 0  0.4132924440716992 0.21 0  0.4207607463087888 0.21 0  0.4282290485459029 0.21 0  0.4356973507830418 0.21 0  0.4431656530201649 0.21 0  0.4506339552573136 0.21 0  0.4581022574944306 0.21 0  0.4655705597315852 0.21 0  0.4730388619686996 0.21 0  0.480507164205851 0.21 0  0.4879754664429498 0.21 0  0.4954437686800938 0.21 0  0.502912070917267 0.21 0  0.5103803731544119 0.21 0  0.5178486753915261 0.21 0  0.5253169776286404 0.21 0  0.5327852798657868 0.21 0  0.5402535821029386 0.21 0  0.54772188434007 0.21 0  0.5551901865771842 0.21 0  0.5626584888143201 0.21 0  0.5701267910514778 0.21 0  0.5775950932886138 0.21 0  0.5850633955257281 0.21 0  0.5925316977628483 0.21 0  0.6 0.2050000000000054 0  0.6 0.1950000000000217 0  0.5925316977628897 0.19 0  0.5850633955257988 0.19 0  0.5775950932887378 0.19 0  0.5701267910515998 0.19 0  0.5626584888145268 0.19 0  0.5551901865773963 0.19 0  0.547721884340339 0.19 0  0.5402535821032429 0.19 0  0.5327852798661811 0.19 0  0.5253169776290537 0.19 0  0.5178486753919799 0.19 0  0.5103803731549078 0.19 0  0.502912070917822 0.19 0  0.4954437686807294 0.19 0  0.4879754664436223 0.19 0  0.4805071642065402 0.19 0  0.4730388619694271 0.19 0  0.4655705597323621 0.19 0  0.4581022574952563 0.19 0  0.4506339552581777 0.19 0  0.4431656530210671 0.19 0  0.4356973507839815 0.19 0  0.4282290485468779 0.19 0  0.4207607463097617 0.19 0  0.4132924440726327 0.19 0  0.4058241418354857 0.19 0  0.3983558395983636 0.19 0  0.3908875373612097 0.19 0  0.3834192351240934 0.19 0  0.3759509328869369 0.19 0  0.3684826306498175 0.19 0  0.361014328412667 0.19 0  0.3535460261755617 0.19 0  0.3460777239384295 0.19 0  0.3386094217012945 0.19 0  0.3311411194641595 0.19 0  0.3236728172270245 0.19 0  0.3162045149898895 0.19 0  0.3087362127527544 0.19 0  0.3012679105156187 0.19 0  0.2937996082784807 0.19 0  0.2863313060413428 0.19 0  0.2788630038042048 0.19 0  0.2713947015670686 0.19 0  0.2639263993299336 0.19 0  0.2564580970927985 0.19 0  0.2607803159922026 0.2000727136295815 0  0.5887803774232762 0.2001272386983733 0  0.5745072403740523 0.2002044435018727 0  0.5511891430099709 0.2001122610077113 0  0.2751288526855082 0.20000000000002 0  0.5365194309847112 0.1999999999999436 0  0.2894621222999649 0.1998691686390484 0  0.5215828265105155 0.1999999999999228 0  0.3127789816668748 0.1998657885438805 0  0.3274069683451451 0.2000000000000796 0  0.5066462220363641 0.199999999999908 0  0.3650630746574081 0.199866017807523 0  0.476773013087985 0.1999999999998713 0  0.3417402379596385 0.1998691686391011 0  0.3796850840047755 0.200000000000134 0  0.4618364086138087 0.1999999999998546 0  0.4917096175621762 0.1999999999998808 0  0.3946216884789568 0.2000000000001512 0  0.446899804139621 0.1999999999998389 0  0.4089549580935208 0.1998691686391595 0  0.4322718174608562 0.200127451265745 0  0.4201487168029707 0.1999966199048527 0  0.3528922713220932 0.2000185703532356 0  0.5633122436674589 0.1999814296467508 0  0.3006558810093873 0.1999966199048318 0  0.5815926498168407 0.1966545283159175 0  0.2677053789419034 0.1964246479135325 0  0.5290511287476175 0.1970915826863981 0  0.5439877332217911 0.197091582686394 0  0.2825131256993216 0.2035478995978015 0  0.3199386661080599 0.202908417313604 0  0.4842413153250809 0.1970915826863873 0  0.5141145242734466 0.1970915826863843 0  0.3722167817676917 0.2029084173136195 0  0.4693047108508938 0.1970915826863783 0  0.3348752705822316 0.202908417313609 0  0.3871533862418661 0.2029084173136212 0  0.4543681063767183 0.1970915826863795 0  0.4991779197992749 0.1970915826863902 0  0.4020059614928624 0.203547899597858 0  0.4394315019025246 0.1970915826863714 0  0.2550657455369551 0.2034088125358657 0  0.2548908499171161 0.1966940311614271 0  0.5946539510196798 0.2024302972968126 0  0.267698176732111 0.2039977513680092 0  0.4261685417851465 0.196409292431739 0  0.3590076176283495 0.196411355804271 0  0.5571672426447437 0.2036011176410121 0  0.3066757059912147 0.1964092924317024 0  0.594380730180568 0.1966558399668133 0  0.4842413153245942 0.2040749161535287 0  0.4693047108503577 0.2040749161535231 0  0.3871533862424271 0.1959250838464788 0  0.372246743208829 0.1959123236376545 0  0.5141145242731028 0.2040749161535395 0  0.4543681063761134 0.2040749161535186 0  0.4019979587101454 0.1959834479682427 0  0.4394608940728603 0.2040870543693135 0  0.5439623148931173 0.2040856076781014 0  0.5290511287473298 0.2040749161535501 0  0.4991779197988497 0.2040749161535382 0  0.3347912413592433 0.1959225448935183 0  0.3199680582793816 0.1959123018030061 0  0.2825051229162361 0.1959834479681729 0  0.3590471196690275 0.2036304442587945 0  0.5571594006495384 0.1963685282145804 0  0.3067669986803285 0.203627750582736 0  0.4262598344738712 0.2036568242185335 0  0.5814408164431408 0.2041285596160068 0  0.5688286748170428 0.1961819304477386 0  0.4145905603063645 0.2038180695522843 0  0.3473758401724931 0.2038180695522752 0  0.2950977245128307 0.2038180695522663 0  0.5688286748170693 0.203818069552238 0  0.2950977245127906 0.1961819304477774 0  0.3473758401723931 0.1961819304478349 0  0.4145905603061963 0.1961819304479011 0  0.2601812407614425 0.2056861609747042
[...]
<PointData  Vectors="f_40-0"> 
<DataArray  type="Float64"  Name="f_40-0"  NumberOfComponents="3" format="ascii">0.0000000000000000e+00 0.0000000000000000e+00 0.0000000000000000e+00  0.0000000000000000e+00 0.0000000000000000e+00 0.0000000000000000e+00  0.0000000000000000e+00 0.0000000000000000e+00 0.0000000000000000e+00  0.0000000000000000e+00 0.0000000000000000e+00 0.0000000000000000e+00  -9.3848207155059016e-06 -4.2143975865452485e-04 0.0000000000000000e+00  2.4458897643615131e-05 -4.2709635538912944e-04 0.0000000000000000e+00  0.0000000000000000e+00 0.0000000000000000e+00 0.0000000000000000e+00  0.0000000000000000e+00 0.0000000000000000e+00 0.0000000000000000e+00  0.0000000000000000e+00 0.0000000000000000e+00 0.0000000000000000e+00  0.0000000000000000e+00 0.0000000000000000e+00 0.0000000000000000e+00  6.9388835132179276e-06 -4.2426774132509510e-04 0.0000000000000000e+00  6.2185801302573826e-02 0.0000000000000000e+00 0.0000000000000000e+00  1.1480455625091315e-01 0.0000000000000000e+00 0.0000000000000000e+00  1.5785626484500562e-01 0.0000000000000000e+00 0.0000000000000000e+00  1.9134092708490102e-01 0.0000000000000000e+00 0.0000000000000000e+00  2.1525854297059510e-01 0.0000000000000000e+00 0.0000000000000000e+00  2.2960911250208640e-01 0.0000000000000000e+00 0.0000000000000000e+00  2.3439263567936053e-01 0.0000000000000000e+00 0.0000000000000000e+00  2.2960911250237653e-01 0.0000000000000000e+00 0.0000000000000000e+00  2.1525854297109351e-01 0.0000000000000000e+00 0.0000000000000000e+00  1.9134092708551823e-01 0.0000000000000000e+00 0.0000000000000000e+00  1.5785626484559193e-01 0.0000000000000000e+00 0.0000000000000000e+00  1.1480455625141346e-01 0.0000000000000000e+00 0.0000000000000000e+00  6.2185801302855739e-02 0.0000000000000000e+00 0.0000000000000000e+00  0.0000000000000000e+00 0.0000000000000000e+00 0.0000000000000000e+00  0.0000000000000000e+00 0.0000000000000000e+00 0.0000000000000000e+00  0.0000000000000000e+00 0.0000000000000000e+00 0.0000000000000000e+00  0.0000000000000000e+00 0.0000000000000000e+00 0.0000000000000000e+00  0.0000000000000000e+00 0.0000000000000000e+00 0.0000000000000000e+00  0.0000000000000000e+00 0.0000000000000000e+00 0.0000000000000000e+00  0.0000000000000000e+00 0.0000000000000000e+00 0.0000000000000000e+00  0.0000000000000000e+00 0.0000000000000000e+00 0.0000000000000000e+00  0.0000000000000000e+00 0.0000000000000000e+00 0.0000000000000000e+00  0.0000000000000000e+00 0.0000000000000000e+00 0.0000000000000000e+00  0.0000000000000000e+00 0.0000000000000000e+00 0.0000000000000000e+00  0.0000000000000000e+00 0.0000000000000000e+00 0.0000000000000000e+00  0.0000000000000000e+00 0.0000000000000000e+00 0.0000000000000000e+00  0.0000000000000000e+00 0.0000000000000000e+00 0.0000000000000000e+00  0.0000000000000000e+00 0.0000000000000000e+00 0.0000000000000000e+00  0.0000000000000000e+00 0.0000000000000000e+00 0.0000000000000000e+00  0.0000000000000000e+00 0.0000000000000000e+00 0.0000000000000000e+00  0.0000000000000000e+00 0.0000000000000000e+00 0.0000000000000000e+00  0.0000000000000000e+00 0.0000000000000000e+00 0.0000000000000000e+00  0.0000000000000000e+00 0.0000000000000000e+00 0.0000000000000000e+00  0.0000000000000000e+00 0.0000000000000000e+00 0.0000000000000000e+00  0.0000000000000000e+00 0.0000000000000000e+00 0.0000000000000000e+00  0.0000000000000000e+00 0.0000000000000000e+00 0.0000000000000000e+00  0.0000000000000000e+00 0.0000000000000000e+00 0.0000000000000000e+00  0.0000000000000000e+00 0.0000000000000000e+00 0.0000000000000000e+00  0.0000000000000000e+00 0.0000000000000000e+00 0.0000000000000000e+00  0.0000000000000000e+00 0.0000000000000000e+00 0.0000000000000000e+00  0.0000000000000000e+00 0.0000000000000000e+00 0.0000000000000000e+00  0.0000000000000000e+00 0.0000000000000000e+00 0.0000000000000000e+00  0.0000000000000000e+00 0.0000000000000000e+00 0.0000000000000000e+00  0.0000000000000000e+00 0.0000000000000000e+00 0.0000000000000000e+00  0.0000000000000000e+00 0.0000000000000000e+00 0.0000000000000000e+00  0.0000000000000000e+00 0.0000000000000000e+00 0.0000000000000000e+00  0.0000000000000000e+00 0.0000000000000000e+00 0.0000000000000000e+00  0.0000000000000000e+00 0.0000000000000000e+00 0.0000000000000000e+00  0.0000000000000000e+00 0.0000000000000000e+00 0.0000000000000000e+00  0.0000000000000000e+00 0.0000000000000000e+00 0.0000000000000000e+00  0.0000000000000000e+00 0.0000000000000000e+00 0.0000000000000000e+00  2.2385181416004543e-01 8.9878098106000986e-03 0.0000000000000000e+00  1.5803311106104306e-01 -1.9100290668595376e-03 0.0000000000000000e+00  2.2569931871220913e-01 -8.3650505144074773e-03 0.0000000000000000e+00  0.0000000000000000e+00 0.0000000000000000e+00 0.0000000000000000e+00  0.0000000000000000e+00 0.0000000000000000e+00 0.0000000000000000e+00  0.0000000000000000e+00 0.0000000000000000e+00 0.0000000000000000e+00  0.0000000000000000e+00 0.0000000000000000e+00 0.0000000000000000e+00  0.0000000000000000e+00 0.0000000000000000e+00 0.0000000000000000e+00  0.0000000000000000e+00 0.0000000000000000e+00 0.0000000000000000e+00  0.0000000000000000e+00 0.0000000000000000e+00 0.0000000000000000e+00  0.0000000000000000e+00 0.0000000000000000e+00 0.0000000000000000e+00  0.0000000000000000e+00 0.0000000000000000e+00 0.0000000000000000e+00  0.0000000000000000e+00 0.0000000000000000e+00 0.0000000000000000e+00  0.0000000000000000e+00 0.0000000000000000e+00 0.0000000000000000e+00  0.0000000000000000e+00 0.0000000000000000e+00 0.0000000000000000e+00  0.0000000000000000e+00 0.0000000000000000e+00 0.0000000000000000e+00  0.0000000000000000e+00 0.0000000000000000e+00 0.0000000000000000e+00  0.0000000000000000e+00 0.0000000000000000e+00 0.0000000000000000e+00  0.0000000000000000e+00 0.0000000000000000e+00 0.0000000000000000e+00  0.0000000000000000e+00 0.0000000000000000e+00 0.0000000000000000e+00  0.0000000000000000e+00 0.0000000000000000e+00 0.0000000000000000e+00  0.0000000000000000e+00 0.0000000000000000e+00 0.0000000000000000e+00  0.0000000000000000e+00 0.0000000000000000e+00 0.0000000000000000e+00  0.0000000000000000e+00 0.0000000000000000e+00 0.0000000000000000e+00  0.0000000000000000e+00 0.0000000000000000e+00 0.0000000000000000e+00  0.0000000000000000e+00 0.0000000000000000e+00 0.0000000000000000e+00  0.0000000000000000e+00 0.0000000000000000e+00 0.0000000000000000e+00  0.0000000000000000e+00 0.0000000000000000e+00 0.0000000000000000e+00  0.0000000000000000e+00 0.0000000000000000e+00 0.0000000000000000e+00  0.0000000000000000e+00 0.0000000000000000e+00 0.0000000000000000e+00  0.0000000000000000e+00 0.0000000000000000e+00 0.0000000000000000e+00  0.0000000000000000e+00 0.0000000000000000e+00 0.0000000000000000e+00  0.0000000000000000e+00 0.0000000000000000e+00 0.0000000000000000e+00  0.0000000000000000e+00 0.0000000000000000e+00 0.0000000000000000e+00  0.0000000000000000e+00 0.0000000000000000e+00 0.0000000000000000e+00  0.0000000000000000e+00 0.0000000000000000e+00 0.0000000000000000e+00  0.0000000000000000e+00 0.0000000000000000e+00 0.0000000000000000e+00  0.0000000000000000e+00 0.0000000000000000e+00 0.0000000000000000e+00  0.0000000000000000e+00 0.0000000000000000e+00 0.0000000000000000e+00  0.0000000000000000e+00 0.0000000000000000e+00 0.0000000000000000e+00  0.0000000000000000e+00 0.0000000000000000e+00 0.0000000000000000e+00  0.0000000000000000e+00 0.0000000000000000e+00 0.0000000000000000e+00  0.0000000000000000e+00 0.0000000000000000e+00 0.0000000000000000e+00  0.0000000000000000e+00 0.0000000000000000e+00 0.0000000000000000e+00  0.0000000000000000e+00 0.0000000000000000e+00 0.0000000000000000e+00  0.0000000000000000e+00 0.0000000000000000e+00 0.0000000000000000e+00  0.0000000000000000e+00 0.0000000000000000e+00 0.0000000000000000e+00  0.0000000000000000e+00 0.0000000000000000e+00 0.0000000000000000e+00  0.0000000000000000e+00 0.0000000000000000e+00 0.0000000000000000e+00  0.0000000000000000e+00 0.0000000000000000e+00 0.0000000000000000e+00  0.0000000000000000e+00 0.0000000000000000e+00 0.0000000000000000e+00  0.0000000000000000e+00 0.0000000000000000e+00 0.0000000000000000e+00  0.0000000000000000e+00 0.0000000000000000e+00 0.0000000000000000e+00  0.0000000000000000e+00 0.0000000000000000e+00 0.0000000000000000e+00  0.0000000000000000e+00 0.0000000000000000e+00 0.0000000000000000e+00  0.0000000000000000e+00 0.0000000000000000e+00 0.0000000000000000e+00  0.0000000000000000e+00 0.0000000000000000e+00 0.0000000000000000e+00  0.0000000000000000e+00 0.0000000000000000e+00 0.0000000000000000e+00  0.0000000000000000e+00 0.0000000000000000e+00 0.0000000000000000e+00  0.0000000000000000e+00 0.0000000000000000e+00 0.0000000000000000e+00  0.0000000000000000e+00 0.0000000000000000e+00 0.0000000000000000e+00  0.0000000000000000e+00 0.0000000000000000e+00 0.0000000000000000e+00  0.0000000000000000e+00 0.0000000000000000e+00 0.0000000000000000e+00  0.0000000000000000e+00 0.0000000000000000e+00 0.0000000000000000e+00  0.0000000000000000e+00 0.0000000000000000e+00 0.0000000000000000e+00  0.0000000000000000e+00 0.0000000000000000e+00 0.0000000000000000e+00  0.0000000000000000e+00 0.0000000000000000e+00 0.0000000000000000e+00  0.0000000000000000e+00 0.0000000000000000e+00 0.0000000000000000e+00  0.0000000000000000e+00 0.0000000000000000e+00 0.0000000000000000e+00  0.0000000000000000e+00 0.0000000000000000e+00 0.0000000000000000e+00  0.0000000000000000e+00 0.0000000000000000e+00 0.0000000000000000e+00  0.0000000000000000e+00 0.0000000000000000e+00 0.0000000000000000e+00  0.0000000000000000e+00 0.0000000000000000e+00 0.0000000000000000e+00  0.0000000000000000e+00 0.0000000000000000e+00 0.0000000000000000e+00  0.0000000000000000e+00 0.0000000000000000e+00 0.0000000000000000e+00  0.0000000000000000e+00 0.0000000000000000e+00 0.0000000000000000e+00  0.0000000000000000e+00 0.0000000000000000e+00 0.0000000000000000e+00  0.0000000000000000e+00 0.0000000000000000e+00 0.0000000000000000e+00  0.0000000000000000e+00 0.0000000000000000e+00 0.0000000000000000e+00  0.0000000000000000e+00 0.0000000000000000e+00 0.0000000000000000e+00  0.0000000000000000e+00 0.0000000000000000e+00 0.0000000000000000e+00  1.5413393957095856e-06 -6.1336953065728822e-06 0.0000000000000000e+00  3.4085439950972623e-06 -7.4703936086329693e-06 0.0000000000000000e+00  5.4931269198713198e-06 -9.1052769744701588e-06 0.0000000000000000e+00  7.7894090201178659e-06 -1.1208154652105162e-05 0.0000000000000000e+00  9.9701061067613704e-06 -1.3859405572207414e-05 0.0000000000000000e+00  1.2210170078397590e-05 -1.7174304717927474e-05 0.0000000000000000e+00  1.4242164601905182e-05 -2.0940733353974026e-05 0.0000000000000000e+00  1.6187711828689389e-05 -2.5323809652930846e-05 0.0000000000000000e+00  1.8197819858302137e-05 -3.0185745090019786e-05 0.0000000000000000e+00  1.9943298657882003e-05 -3.5525681240896982e-05 0.0000000000000000e+00  2.1770405635536445e-05 -4.1395480290783503e-05 0.0000000000000000e+00  2.3338937542121973e-05 -4.7689264641810382e-05 0.0000000000000000e+00  2.4941549592913558e-05 -5.4453349899824835e-05 0.0000000000000000e+00  2.6350055839825694e-05 -6.1589454903631253e-05 0.0000000000000000e+00  2.7663897355253072e-05 -6.9171233101525826e-05 0.0000000000000000e+00  2.9000961070657851e-05 -7.7120739332402151e-05 0.0000000000000000e+00  3.0113582986704574e-05 -8.5396534036284683e-05 0.0000000000000000e+00  3.1252738456337459e-05 -9.4074492343982838e-05 0.0000000000000000e+00  3.2181748229418882e-05 -1.0302272386419351e-04 0.0000000000000000e+00  3.3124287394792416e-05 -1.1232202805885163e-04 0.0000000000000000e+00  3.3894344723404415e-05 -1.2187124602134929e-04 0.0000000000000000e+00  3.4629498557429007e-05 -1.3173694805864125e-04 0.0000000000000000e+00  3.5227792478369080e-05 -1.4182048320330335e-04 0.0000000000000000e+00  3.5734367749472842e-05 -1.5217219866639617e-04 0.0000000000000000e+00  3.6222809304327811e-05 -1.6274065613244805e-04 0.0000000000000000e+00  3.6569022554826749e-05 -1.7350236411691836e-04 0.0000000000000000e+00  3.6842259706499040e-05 -1.8451841074462039e-04 0.0000000000000000e+00  3.7014299694097021e-05 -1.9566165053948653e-04 0.0000000000000000e+00  3.7111072566636007e-05 -2.0702890018796109e-04 0.0000000000000000e+00  3.7108872011256461e-05 -2.1850538563675915e-04 0.0000000000000000e+00  3.7032771067961644e-05 -2.3017216039747214e-04 0.0000000000000000e+00  3.6856248328050330e-05 -2.4192002340216946e-04 0.0000000000000000e+00  3.6609601832739245e-05 -2.5383451932744073e-04 0.0000000000000000e+00  3.6261361645250107e-05 -2.6579938551013775e-04 0.0000000000000000e+00  3.5832604923002740e-05 -2.7791694061416432e-04 0.0000000000000000e+00  3.5314384696196767e-05 -2.9006335098282577e-04 0.0000000000000000e+00  3.4719126225642939e-05 -3.0232911776215880e-04 0.0000000000000000e+00  3.4034082306429697e-05 -3.1460714225087710e-04 0.0000000000000000e+00  3.3268699562860650e-05 -3.2698388905024411e-04 0.0000000000000000e+00  3.2411042556621366e-05 -3.3935819510629164e-04 0.0000000000000000e+00  3.1466792223164525e-05 -3.5179823770797457e-04 0.0000000000000000e+00  3.0446706165739354e-05 -3.6424258756318742e-04 0.0000000000000000e+00  2.9332548710173001e-05 -3.7672289760102017e-04 0.0000000000000000e+00  2.8170235466503906e-05 -3.8920854018712836e-04 0.0000000000000000e+00  2.6908249296928533e-05 -4.0167444700884441e-04 0.0000000000000000e+00  2.5620365532081358e-05 -4.1421811942224168e-04 0.0000000000000000e+00  1.5494424483648936e-05 -4.2566340100172413e-04 0.0000000000000000e+00  -1.3944044702262140e-06 -4.2287456625006870e-04 0.0000000000000000e+00  -8.1750000098365111e-06 -4.0906505377428951e-04 0.0000000000000000e+00  -6.8469843873975067e-06 -3.9636742310072910e-04 0.0000000000000000e+00  -5.5420418257792161e-06 -3.8363513435974952e-04 0.0000000000000000e+00  -4.3215606903304002e-06 -3.7095308074832218e-04 0.0000000000000000e+00  -3.1487140140464138e-06 -3.5829001485224686e-04 0.0000000000000000e+00  -2.0620059222886057e-06 -3.4565605154122687e-04 0.0000000000000000e+00  -1.0197519485826201e-06 -3.3305800750188459e-04 0.0000000000000000e+00  -6.4433161245255366e-08 -3.2047610706928620e-04 0.0000000000000000e+00  8.4587006302998566e-07 -3.0797571209293479e-04 0.0000000000000000e+00  1.6755065175216992e-06 -2.9548768195688233e-04 0.0000000000000000e+00  2.4686737278227598e-06 -2.8309947716539350e-04 0.0000000000000000e+00  3.1777279866390315e-06 -2.7074361096701449e-04 0.0000000000000000e+00  3.8594088275109572e-06 -2.5850987002129695e-04 0.0000000000000000e+00  4.4541902528057776e-06 -2.4633290722036452e-04 0.0000000000000000e+00  5.0316471970746391e-06 -2.3430139500524839e-04 0.0000000000000000e+00  5.5151255959173101e-06 -2.2235057829514515e-04 0.0000000000000000e+00  5.9925422863459682e-06 -2.1056564199659387e-04 0.0000000000000000e+00  6.3666870133804497e-06 -1.9888512195763276e-04 0.0000000000000000e+00  6.7435632146262435e-06 -1.8740181863127078e-04 0.0000000000000000e+00  7.0116876499908080e-06 -1.7605430817255147e-04 0.0000000000000000e+00  7.2964775598914394e-06 -1.6493073165795423e-04 0.0000000000000000e+00  7.4621168327215587e-06 -1.5397280287342445e-04 0.0000000000000000e+00  7.6395983694433049e-06 -1.4325383240196149e-04 0.0000000000000000e+00  7.7205528416397502e-06 -1.3273575939092000e-04 0.0000000000000000e+00  7.7359843245388709e-06 -1.2249940189152433e-04 0.0000000000000000e+00  7.7840864536059644e-06 -1.1248235204329451e-04 0.0000000000000000e+00  7.7251418673895414e-06 -1.0274372276196639e-04 0.0000000000000000e+00  7.6549968344716446e-06 -9.3325454582433604e-05 0.0000000000000000e+00  7.5041435356648285e-06 -8.4176824935569780e-05 0.0000000000000000e+00  7.3382603676073519e-06 -7.5391544460297916e-05 0.0000000000000000e+00  7.0924957797095785e-06 -6.6897762374204558e-05 0.0000000000000000e+00  6.8650266231686443e-06 -5.8840370308918199e-05 0.0000000000000000e+00  6.5209221987976407e-06 -5.1083126401877896e-05 0.0000000000000000e+00  6.1180038344213649e-06 -4.3806019781004932e-05 0.0000000000000000e+00  5.7857690813555909e-06 -3.6861629061767613e-05 0.0000000000000000e+00  5.3340200560886242e-06 -3.0397471406758868e-05 0.0000000000000000e+00  4.8851054347979754e-06 -2.4413620460560607e-05 0.0000000000000000e+00  4.3458763888236299e-06 -1.8873166112184785e-05 0.0000000000000000e+00  3.8535512888084135e-06 -1.3907916430904280e-05 0.0000000000000000e+00  3.2166987942739454e-06 -9.3746854992342065e-06 0.0000000000000000e+00  2.5228536998777458e-06 -5.4756214714034530e-06 0.0000000000000000e+00  1.9453371900870223e-06 -2.0429543411227601e-06 0.0000000000000000e+00  1.2299940768552491e-06 8.0533386617070347e-07 0.0000000000000000e+00  6.6834660338971423e-07 3.0224901966995724e-06 0.0000000000000000e+00  1.2418465406654252e-07 4.4430088950777350e-06 0.0000000000000000e+00  -4.8392769441757362e-09 4.9130001436643682e-06 0.0000000000000000e+00  2.7653678475086940e-07 -6.4918382481016864e-07 0.0000000000000000e+00  9.3841167555062440e-06 -4.0532258282022042e-04 0.0000000000000000e+00  1.2086804969217492e-05 -3.8125831586599963e-04 0.0000000000000000e+00  1.5359945144675526e-05 -3.4202763053632602e-04 0.0000000000000000e+00  3.7238656983940917e-06 -3.6524377628208070e-06 0.0000000000000000e+00  1.6943824204587443e-05 -3.1747151871834703e-04 0.0000000000000000e+00  6.4645381310935430e-06 -8.8297121364712319e-06 0.0000000000000000e+00  1.8469168744251959e-05 -2.9269154299248293e-04 0.0000000000000000e+00  1.0551220255812100e-05 -2.1797504929840948e-05 0.0000000000000000e+00  1.2916342809833990e-05 -3.2569865169659526e-05 0.0000000000000000e+00  1.9707756318317646e-05 -2.6817430932387590e-04 0.0000000000000000e+00  1.7484070548840028e-05 -6.7982492211419491e-05 0.0000000000000000e+00  2.1338016108447998e-05 -2.2029055172458542e-04 0.0000000000000000e+00  1.4800988534877161e-05 -4.4729467368905077e-05 0.0000000000000000e+00  1.8981941341186813e-05 -8.4500845745953110e-05 0.0000000000000000e+00  2.1735214052461524e-05 -1.9711716410197348e-04 0.0000000000000000e+00  2.0663230622448549e-05 -2.4400862495077186e-04 0.0000000000000000e+00  2.0104276994644879e-05 -1.0261739235840604e-04 0.0000000000000000e+00  2.1854295682653635e-05 -1.7460315704834108e-04 0.0000000000000000e+00  2.0756267939140312e-05 -1.2106570147452417e-04 0.0000000000000000e+00  2.1895080683891151e-05 -1.5335582604543297e-04 0.0000000000000000e+00  2.1357426891496225e-05 -1.3631492528172638e-04 0.0000000000000000e+00  1.6287143729834920e-05 -5.5503959797182521e-05 0.0000000000000000e+00  1.3419942467757955e-05 -3.6234848606545326e-04 0.0000000000000000e+00  8.5383553376589098e-06 -1.4559369965252379e-05 0.0000000000000000e+00  4.8756613696638906e-06 -3.9226018314517119e-04 0.0000000000000000e+00  1.3628719670512385e-06 3.9484914120769452e-07 0.0000000000000000e+00  1.2928790688588131e-05 -3.0407995577367154e-04 0.0000000000000000e+00  1.1221899151843203e-05 -3.2900877308895228e-04 0.0000000000000000e+00  6.4639570050599827e-06 -8.2642964079304547e-06 0.0000000000000000e+00  1.3891648521672361e-05 -2.8544788741503218e-05 0.0000000000000000e+00  1.6432001944055480e-05 -2.3097718847101142e-04 0.0000000000000000e+00  1.4363604626450171e-05 -2.7937447698879030e-04 0.0000000000000000e+00  2.1573600374208375e-05 -7.7430836843930912e-05 0.0000000000000000e+00  1.7076183617684934e-05 -2.0747300181907542e-04 0.0000000000000000e+00  1.6447677472377019e-05 -4.0363676251502807e-05 0.0000000000000000e+00  2.3083198622082796e-05 -9.4857279036559202e-05 0.0000000000000000e+00  1.7462041121264434e-05 -1.8457033519501446e-04 0.0000000000000000e+00  1.5529215084019856e-05 -2.5497472790714319e-04 0.0000000000000000e+00  2.5119985849280131e-05 -1.1374057707109746e-04 0.0000000000000000e+00  1.7592458171809839e-05 -1.6238551282783835e-04 0.0000000000000000e+00  -3.9080456476970473e-07 -1.4623591361246671e-06 0.0000000000000000e+00  -6.4949868568620752e-07 1.1054360912665788e-06 0.0000000000000000e+00  1.2120582696567488e-05 -4.1584419257951609e-04 0.0000000000000000e+00  2.9360058478842000e-06 -4.3862671940456856e-06 0.0000000000000000e+0