<?xml version="1.0"?>
<VTKFile type="UnstructuredGrid"  version="0.1"  >
<UnstructuredGrid>
<Piece  NumberOfPoints="1419" NumberOfCells="2698">
<Points>
<DataArray  type="Float64"  NumberOfComponents="3"  format="ascii">0 0 0  0 0.41 0  2.5 0 0  2.5 0.41 0  0.6 0.19 0  0.6 0.21 0  0.25 0.2 0  0.15 0.2 0  0.2489897948556636 0.21 0  0.2489897948556636 0.19 0  0.6 0.2 0  0 0.3807142857143437 0  0 0.3514285714286952 0  0 0.3221428571430699 0  0 0.29285714285744 0  0 0.2635714285718054 0  0 0.2342857142861561 0  0 0.2050000000005308 0  0 0.175714285714732 0  0 0.1464285714289574 0  0 0.1171428571431897 0  0 0.08785714285737878 0  0 0.05857142857161107 0  0 0.02928571428580012 0  0.03015443760436003 0 0  0.06140001986583606 0 0  0.09377624077125973 0 0  0.1273239957535082 0 0  0.1620856860351972 0 0  0.1981052433264291 0 0  0.235428184091502 0 0  0.2741016576309132 0 0  0.3141745521465447 0 0  0.3556974926295285 0 0  0.3987229542472677 0 0  0.4433053055141081 0 0  0.4895008759286886 0 0  0.5373680609405097 0 0  0.5869673343216626 0 0  0.6383613676634521 0 0  0.6916151138468254 0 0  0.7467958595648856 0 0  0.8039733463919316 0 0  0.8632198139502143 0 0  0.9246101326867038 0 0  0.9882218810934433 0 0  1.054135445558498 0 0  1.122434100542598 0 0  1.193204177141305 0 0  1.266535089879536 0 0  1.342519516046404 0 0  1.421253448503939 0 0  1.502836389106271 0 0  1.587371439758838 0 0  1.674965418777374 0 0  1.765729001825544 0 0  1.859776908880082 0 0  1.957227977487062 0 0  2.058205329869943 0 0  2.162836591189951 0 0  2.271253957290865 0 0  2.383594446803425 0 0  2.5 0.1024999999997612 0  2.5 0.2049999999994743 0  2.5 0.3074999999997183 0  2.383594446803656 0.41 0  2.271253957291315 0.41 0  2.162836591190598 0.41 0  2.058205329870775 0.41 0  1.957227977488067 0.41 0  1.859776908881246 0.41 0  1.765729001826854 0.41 0  1.674965418778818 0.41 0  1.58737143976041 0.41 0  1.502836389107956 0.41 0  1.421253448505726 0.41 0  1.342519516048286 0.41 0  1.266535089881505 0.41 0  1.193204177143353 0.41 0  1.122434100544716 0.41 0  1.05413544556068 0.41 0  0.9882218810956305 0.41 0  0.9246101326886647 0.41 0  0.8632198139519631 0.41 0  0.8039733463934788 0.41 0  0.7467958595662458 0.41 0  0.6916151138480078 0.41 0  0.6383613676644679 0.41 0  0.5869673343225223 0.41 0  0.5373680609412221 0.41 0  0.4895008759292634 0.41 0  0.4433053055145528 0.41 0  0.3987229542475914 0.41 0  0.3556974926297398 0.41 0  0.3141745521466497 0.41 0  0.2741016576310038 0.41 0  0.2354281840915826 0.41 0  0.1981052433265003 0.41 0  0.1620856860352591 0.41 0  0.1273239957535623 0.41 0  0.09377624077128965 0.41 0  0.06140001986584975 0.41 0  0.03015443760436654 0.41 0  0.2497468076502589 0.2050254481002335 0  0.2497468076502614 0.1949745518997913 0  0.2469965252529372 0.1829317073451959 0  0.2439893735792749 0.1762316384219906 0  0.2400332147834255 0.1700443375285386 0  0.2352133972704371 0.1645032867342007 0  0.2296339016332438 0.1597280261969788 0  0.2234150974217223 0.1558215752574715 0  0.2166911463437691 0.1528682099456123 0  0.2096071079204251 0.1509316448471593 0  0.2023158100364996 0.1500536585536553 0  0.194974551899914 0.1502531923497262 0  0.1877417105387872 0.1515259415822739 0  0.1807733240461124 0.153844448527136 0  0.1742197252835808 0.15715869474974 0  0.1682222986673531 0.1613971801805478 0  0.162910430003803 0.1664684656256651 0  0.1583987151779087 0.1722631454351573 0  0.1547844879126891 0.178656207771761 0  0.1521457199348551 0.1855097315605723 0  0.1505393388476355 0.1926758619366523 0  0.1505393388476328 0.2073241380633295 0  0.1521457199348437 0.2144902684393899 0  0.1547844879126531 0.221343792228163 0  0.1583987151778488 0.2277368545647528 0  0.1629104300036858 0.2335315343742052 0  0.1682222986671726 0.2386028198193036 0  0.1742197252833576 0.2428413052501257 0  0.1807733240458683 0.2461555514727623 0  0.1877417105384929 0.2484740584176516 0  0.1949745518995776 0.2497468076502398 0  0.202315810036185 0.2499463414463592 0  0.2096071079201568 0.2490683551528932 0  0.2166911463435495 0.2471317900544655 0  0.2234150974215506 0.2441784247426195 0  0.2296339016331197 0.2402719738031125 0  0.2352133972703547 0.2354967132658811 0  0.2400332147833751 0.2299556624715287 0  0.2439893735792577 0.2237683615780412 0  0.246996525252926 0.2170682926548348 0  0.25645809709277 0.21 0  0.2639263993298655 0.21 0  0.271394701566961 0.21 0  0.2788630038040554 0.21 0  0.2863313060411479 0.21 0  0.2937996082782405 0.21 0  0.301267910515333 0.21 0  0.3087362127524279 0.21 0  0.3162045149895234 0.21 0  0.3236728172265972 0.21 0  0.3311411194636928 0.21 0  0.3386094217007701 0.21 0  0.3460777239378666 0.21 0  0.3535460261749672 0.21 0  0.3610143284120516 0.21 0  0.3684826306491596 0.21 0  0.3759509328862226 0.21 0  0.383419235123329 0.21 0  0.3908875373604028 0.21 0  0.3983558395975142 0.21 0  0.4058241418345938 0.21 0  0.4132924440716992 0.21 0  0.4207607463087888 0.21 0  0.4282290485459029 0.21 0  0.4356973507830418 0.21 0  0.4431656530201649 0.21 0  0.4506339552573136 0.21 0  0.4581022574944306 0.21 0  0.4655705597315852 0.21 0  0.4730388619686996 0.21 0  0.480507164205851 0.21 0  0.4879754664429498 0.21 0  0.4954437686800938 0.21 0  0.502912070917267 0.21 0  0.5103803731544119 0.21 0  0.5178486753915261 0.21 0  0.5253169776286404 0.21 0  0.5327852798657868 0.21 0  0.5402535821029386 0.21 0  0.54772188434007 0.21 0  0.5551901865771842 0.21 0  0.5626584888143201 0.21 0  0.5701267910514778 0.21 0  0.5775950932886138 0.21 0  0.5850633955257281 0.21 0  0.5925316977628483 0.21 0  0.6 0.2050000000000054 0  0.6 0.1950000000000217 0  0.5925316977628897 0.19 0  0.5850633955257988 0.19 0  0.5775950932887378 0.19 0  0.5701267910515998 0.19 0  0.5626584888145268 0.19 0  0.5551901865773963 0.19 0  0.547721884340339 0.19 0  0.5402535821032429 0.19 0  0.5327852798661811 0.19 0  0.5253169776290537 0.19 0  0.5178486753919799 0.19 0  0.5103803731549078 0.19 0  0.502912070917822 0.19 0  0.4954437686807294 0.19 0  0.4879754664436223 0.19 0  0.4805071642065402 0.19 0  0.4730388619694271 0.19 0  0.4655705597323621 0.19 0  0.4581022574952563 0.19 0  0.4506339552581777 0.19 0  0.4431656530210671 0.19 0  0.4356973507839815 0.19 0  0.4282290485468779 0.19 0  0.4207607463097617 0.19 0  0.4132924440726327 0.19 0  0.4058241418354857 0.19 0  0.3983558395983636 0.19 0  0.3908875373612097 0.19 0  0.3834192351240934 0.19 0  0.3759509328869369 0.19 0  0.3684826306498175 0.19 0  0.361014328412667 0.19 0  0.3535460261755617 0.19 0  0.3460777239384295 0.19 0  0.3386094217012945 0.19 0  0.3311411194641595 0.19 0  0.3236728172270245 0.19 0  0.3162045149898895 0.19 0  0.3087362127527544 0.19 0  0.3012679105156187 0.19 0  0.2937996082784807 0.19 0  0.2863313060413428 0.19 0  0.2788630038042048 0.19 0  0.2713947015670686 0.19 0  0.2639263993299336 0.19 0  0.2564580970927985 0.19 0  0.2607803159922026 0.2000727136295815 0  0.5887803774232762 0.2001272386983733 0  0.5745072403740523 0.2002044435018727 0  0.5511891430099709 0.2001122610077113 0  0.2751288526855082 0.20000000000002 0  0.5365194309847112 0.1999999999999436 0  0.2894621222999649 0.1998691686390484 0  0.5215828265105155 0.1999999999999228 0  0.3127789816668748 0.1998657885438805 0  0.3274069683451451 0.2000000000000796 0  0.5066462220363641 0.199999999999908 0  0.3650630746574081 0.199866017807523 0  0.476773013087985 0.1999999999998713 0  0.3417402379596385 0.1998691686391011 0  0.3796850840047755 0.200000000000134 0  0.4618364086138087 0.1999999999998546 0  0.4917096175621762 0.1999999999998808 0  0.3946216884789568 0.2000000000001512 0  0.446899804139621 0.1999999999998389 0  0.4089549580935208 0.1998691686391595 0  0.4322718174608562 0.200127451265745 0  0.4201487168029707 0.1999966199048527 0  0.3528922713220932 0.2000185703532356 0  0.5633122436674589 0.1999814296467508 0  0.3006558810093873 0.1999966199048318 0  0.5815926498168407 0.1966545283159175 0  0.2677053789419034 0.1964246479135325 0  0.5290511287476175 0.1970915826863981 0  0.5439877332217911 0.197091582686394 0  0.2825131256993216 0.2035478995978015 0  0.3199386661080599 0.202908417313604 0  0.4842413153250809 0.1970915826863873 0  0.5141145242734466 0.1970915826863843 0  0.3722167817676917 0.2029084173136195 0  0.4693047108508938 0.1970915826863783 0  0.3348752705822316 0.202908417313609 0  0.3871533862418661 0.2029084173136212 0  0.4543681063767183 0.1970915826863795 0  0.4991779197992749 0.1970915826863902 0  0.4020059614928624 0.203547899597858 0  0.4394315019025246 0.1970915826863714 0  0.2550657455369551 0.2034088125358657 0  0.2548908499171161 0.1966940311614271 0  0.5946539510196798 0.2024302972968126 0  0.267698176732111 0.2039977513680092 0  0.4261685417851465 0.196409292431739 0  0.3590076176283495 0.196411355804271 0  0.5571672426447437 0.2036011176410121 0  0.3066757059912147 0.1964092924317024 0  0.594380730180568 0.1966558399668133 0  0.4842413153245942 0.2040749161535287 0  0.4693047108503577 0.2040749161535231 0  0.3871533862424271 0.1959250838464788 0  0.372246743208829 0.1959123236376545 0  0.5141145242731028 0.2040749161535395 0  0.4543681063761134 0.2040749161535186 0  0.4019979587101454 0.1959834479682427 0  0.4394608940728603 0.2040870543693135 0  0.5439623148931173 0.2040856076781014 0  0.5290511287473298 0.2040749161535501 0  0.4991779197988497 0.2040749161535382 0  0.3347912413592433 0.1959225448935183 0  0.3199680582793816 0.1959123018030061 0  0.2825051229162361 0.1959834479681729 0  0.3590471196690275 0.2036304442587945 0  0.5571594006495384 0.1963685282145804 0  0.3067669986803285 0.203627750582736 0  0.4262598344738712 0.2036568242185335 0  0.5814408164431408 0.2041285596160068 0  0.5688286748170428 0.1961819304477386 0  0.4145905603063645 0.2038180695522843 0  0.3473758401724931 0.2038180695522752 0  0.2950977245128307 0.2038180695522663 0  0.5688286748170693 0.203818069552238 0  0.2950977245127906 0.1961819304477774 0  0.3473758401723931 0.1961819304478349 0  0.4145905603061963 0.1961819304479011 0  0.2601812407614425 0.2056861609747042
[...]
<PointData  Vectors="f_40-0"> 
<DataArray  type="Float64"  Name="f_40-0"  NumberOfComponents="3" format="ascii">0.0000000000000000e+00 0.0000000000000000e+00 0.0000000000000000e+00  0.0000000000000000e+00 0.0000000000000000e+00 0.0000000000000000e+00  0.0000000000000000e+00 0.0000000000000000e+00 0.0000000000000000e+00  0.0000000000000000e+00 0.0000000000000000e+00 0.0000000000000000e+00  -1.3424377813748562e-05 -2.6536316684147668e-04 0.0000000000000000e+00  7.8767759174132796e-06 -2.7135001083820816e-04 0.0000000000000000e+00  0.0000000000000000e+00 0.0000000000000000e+00 0.0000000000000000e+00  0.0000000000000000e+00 0.0000000000000000e+00 0.0000000000000000e+00  0.0000000000000000e+00 0.0000000000000000e+00 0.0000000000000000e+00  0.0000000000000000e+00 0.0000000000000000e+00 0.0000000000000000e+00  -3.3402414411504713e-06 -2.6836044479743775e-04 0.0000000000000000e+00  3.9487877820224448e-02 0.0000000000000000e+00 0.0000000000000000e+00  7.2900697514265353e-02 0.0000000000000000e+00 0.0000000000000000e+00  1.0023845908211487e-01 0.0000000000000000e+00 0.0000000000000000e+00  1.2150116252380468e-01 0.0000000000000000e+00 0.0000000000000000e+00  1.3668880783933196e-01 0.0000000000000000e+00 0.0000000000000000e+00  1.4580139502869588e-01 0.0000000000000000e+00 0.0000000000000000e+00  1.4883892409188726e-01 0.0000000000000000e+00 0.0000000000000000e+00  1.4580139502888012e-01 0.0000000000000000e+00 0.0000000000000000e+00  1.3668880783964846e-01 0.0000000000000000e+00 0.0000000000000000e+00  1.2150116252419660e-01 0.0000000000000000e+00 0.0000000000000000e+00  1.0023845908248720e-01 0.0000000000000000e+00 0.0000000000000000e+00  7.2900697514583071e-02 0.0000000000000000e+00 0.0000000000000000e+00  3.9487877820403458e-02 0.0000000000000000e+00 0.0000000000000000e+00  0.0000000000000000e+00 0.0000000000000000e+00 0.0000000000000000e+00  0.0000000000000000e+00 0.0000000000000000e+00 0.0000000000000000e+00  0.0000000000000000e+00 0.0000000000000000e+00 0.0000000000000000e+00  0.0000000000000000e+00 0.0000000000000000e+00 0.0000000000000000e+00  0.0000000000000000e+00 0.0000000000000000e+00 0.0000000000000000e+00  0.0000000000000000e+00 0.0000000000000000e+00 0.0000000000000000e+00  0.0000000000000000e+00 0.0000000000000000e+00 0.0000000000000000e+00  0.0000000000000000e+00 0.0000000000000000e+00 0.0000000000000000e+00  0.0000000000000000e+00 0.0000000000000000e+00 0.0000000000000000e+00  0.0000000000000000e+00 0.0000000000000000e+00 0.0000000000000000e+00  0.0000000000000000e+00 0.0000000000000000e+00 0.0000000000000000e+00  0.0000000000000000e+00 0.0000000000000000e+00 0.0000000000000000e+00  0.0000000000000000e+00 0.0000000000000000e+00 0.0000000000000000e+00  0.0000000000000000e+00 0.0000000000000000e+00 0.0000000000000000e+00  0.0000000000000000e+00 0.0000000000000000e+00 0.0000000000000000e+00  0.0000000000000000e+00 0.0000000000000000e+00 0.0000000000000000e+00  0.0000000000000000e+00 0.0000000000000000e+00 0.0000000000000000e+00  0.0000000000000000e+00 0.0000000000000000e+00 0.0000000000000000e+00  0.0000000000000000e+00 0.0000000000000000e+00 0.0000000000000000e+00  0.0000000000000000e+00 0.0000000000000000e+00 0.0000000000000000e+00  0.0000000000000000e+00 0.0000000000000000e+00 0.0000000000000000e+00  0.0000000000000000e+00 0.0000000000000000e+00 0.0000000000000000e+00  0.0000000000000000e+00 0.0000000000000000e+00 0.0000000000000000e+00  0.0000000000000000e+00 0.0000000000000000e+00 0.0000000000000000e+00  0.0000000000000000e+00 0.0000000000000000e+00 0.0000000000000000e+00  0.0000000000000000e+00 0.0000000000000000e+00 0.0000000000000000e+00  0.0000000000000000e+00 0.0000000000000000e+00 0.0000000000000000e+00  0.0000000000000000e+00 0.0000000000000000e+00 0.0000000000000000e+00  0.0000000000000000e+00 0.0000000000000000e+00 0.0000000000000000e+00  0.0000000000000000e+00 0.0000000000000000e+00 0.0000000000000000e+00  0.0000000000000000e+00 0.0000000000000000e+00 0.0000000000000000e+00  0.0000000000000000e+00 0.0000000000000000e+00 0.0000000000000000e+00  0.0000000000000000e+00 0.0000000000000000e+00 0.0000000000000000e+00  0.0000000000000000e+00 0.0000000000000000e+00 0.0000000000000000e+00  0.0000000000000000e+00 0.0000000000000000e+00 0.0000000000000000e+00  0.0000000000000000e+00 0.0000000000000000e+00 0.0000000000000000e+00  0.0000000000000000e+00 0.0000000000000000e+00 0.0000000000000000e+00  0.0000000000000000e+00 0.0000000000000000e+00 0.0000000000000000e+00  1.4195934667456506e-01 6.0571461730296230e-03 0.0000000000000000e+00  1.0052631402945260e-01 -1.2529192411395390e-03 0.0000000000000000e+00  1.4333185754404890e-01 -6.2788817485170383e-03 0.0000000000000000e+00  0.0000000000000000e+00 0.0000000000000000e+00 0.0000000000000000e+00  0.0000000000000000e+00 0.0000000000000000e+00 0.0000000000000000e+00  0.0000000000000000e+00 0.0000000000000000e+00 0.0000000000000000e+00  0.0000000000000000e+00 0.0000000000000000e+00 0.0000000000000000e+00  0.0000000000000000e+00 0.0000000000000000e+00 0.0000000000000000e+00  0.0000000000000000e+00 0.0000000000000000e+00 0.0000000000000000e+00  0.0000000000000000e+00 0.0000000000000000e+00 0.0000000000000000e+00  0.0000000000000000e+00 0.0000000000000000e+00 0.0000000000000000e+00  0.0000000000000000e+00 0.0000000000000000e+00 0.0000000000000000e+00  0.0000000000000000e+00 0.0000000000000000e+00 0.0000000000000000e+00  0.0000000000000000e+00 0.0000000000000000e+00 0.0000000000000000e+00  0.0000000000000000e+00 0.0000000000000000e+00 0.0000000000000000e+00  0.0000000000000000e+00 0.0000000000000000e+00 0.0000000000000000e+00  0.0000000000000000e+00 0.0000000000000000e+00 0.0000000000000000e+00  0.0000000000000000e+00 0.0000000000000000e+00 0.0000000000000000e+00  0.0000000000000000e+00 0.0000000000000000e+00 0.0000000000000000e+00  0.0000000000000000e+00 0.0000000000000000e+00 0.0000000000000000e+00  0.0000000000000000e+00 0.0000000000000000e+00 0.0000000000000000e+00  0.0000000000000000e+00 0.0000000000000000e+00 0.0000000000000000e+00  0.0000000000000000e+00 0.0000000000000000e+00 0.0000000000000000e+00  0.0000000000000000e+00 0.0000000000000000e+00 0.0000000000000000e+00  0.0000000000000000e+00 0.0000000000000000e+00 0.0000000000000000e+00  0.0000000000000000e+00 0.0000000000000000e+00 0.0000000000000000e+00  0.0000000000000000e+00 0.0000000000000000e+00 0.0000000000000000e+00  0.0000000000000000e+00 0.0000000000000000e+00 0.0000000000000000e+00  0.0000000000000000e+00 0.0000000000000000e+00 0.0000000000000000e+00  0.0000000000000000e+00 0.0000000000000000e+00 0.0000000000000000e+00  0.0000000000000000e+00 0.0000000000000000e+00 0.0000000000000000e+00  0.0000000000000000e+00 0.0000000000000000e+00 0.0000000000000000e+00  0.0000000000000000e+00 0.0000000000000000e+00 0.0000000000000000e+00  0.0000000000000000e+00 0.0000000000000000e+00 0.0000000000000000e+00  0.0000000000000000e+00 0.0000000000000000e+00 0.0000000000000000e+00  0.0000000000000000e+00 0.0000000000000000e+00 0.0000000000000000e+00  0.0000000000000000e+00 0.0000000000000000e+00 0.0000000000000000e+00  0.0000000000000000e+00 0.0000000000000000e+00 0.0000000000000000e+00  0.0000000000000000e+00 0.0000000000000000e+00 0.0000000000000000e+00  0.0000000000000000e+00 0.0000000000000000e+00 0.0000000000000000e+00  0.0000000000000000e+00 0.0000000000000000e+00 0.0000000000000000e+00  0.0000000000000000e+00 0.0000000000000000e+00 0.0000000000000000e+00  0.0000000000000000e+00 0.0000000000000000e+00 0.0000000000000000e+00  0.0000000000000000e+00 0.0000000000000000e+00 0.0000000000000000e+00  0.0000000000000000e+00 0.0000000000000000e+00 0.0000000000000000e+00  0.0000000000000000e+00 0.0000000000000000e+00 0.0000000000000000e+00  0.0000000000000000e+00 0.0000000000000000e+00 0.0000000000000000e+00  0.0000000000000000e+00 0.0000000000000000e+00 0.0000000000000000e+00  0.0000000000000000e+00 0.0000000000000000e+00 0.0000000000000000e+00  0.0000000000000000e+00 0.0000000000000000e+00 0.0000000000000000e+00  0.0000000000000000e+00 0.0000000000000000e+00 0.0000000000000000e+00  0.0000000000000000e+00 0.0000000000000000e+00 0.0000000000000000e+00  0.0000000000000000e+00 0.0000000000000000e+00 0.0000000000000000e+00  0.0000000000000000e+00 0.0000000000000000e+00 0.0000000000000000e+00  0.0000000000000000e+00 0.0000000000000000e+00 0.0000000000000000e+00  0.0000000000000000e+00 0.0000000000000000e+00 0.0000000000000000e+00  0.0000000000000000e+00 0.0000000000000000e+00 0.0000000000000000e+00  0.0000000000000000e+00 0.0000000000000000e+00 0.0000000000000000e+00  0.0000000000000000e+00 0.0000000000000000e+00 0.0000000000000000e+00  0.0000000000000000e+00 0.0000000000000000e+00 0.0000000000000000e+00  0.0000000000000000e+00 0.0000000000000000e+00 0.0000000000000000e+00  0.0000000000000000e+00 0.0000000000000000e+00 0.0000000000000000e+00  0.0000000000000000e+00 0.0000000000000000e+00 0.0000000000000000e+00  0.0000000000000000e+00 0.0000000000000000e+00 0.0000000000000000e+00  0.0000000000000000e+00 0.0000000000000000e+00 0.0000000000000000e+00  0.0000000000000000e+00 0.0000000000000000e+00 0.0000000000000000e+00  0.0000000000000000e+00 0.0000000000000000e+00 0.0000000000000000e+00  0.0000000000000000e+00 0.0000000000000000e+00 0.0000000000000000e+00  0.0000000000000000e+00 0.0000000000000000e+00 0.0000000000000000e+00  0.0000000000000000e+00 0.0000000000000000e+00 0.0000000000000000e+00  0.0000000000000000e+00 0.0000000000000000e+00 0.0000000000000000e+00  0.0000000000000000e+00 0.0000000000000000e+00 0.0000000000000000e+00  0.0000000000000000e+00 0.0000000000000000e+00 0.0000000000000000e+00  0.0000000000000000e+00 0.0000000000000000e+00 0.0000000000000000e+00  0.0000000000000000e+00 0.0000000000000000e+00 0.0000000000000000e+00  0.0000000000000000e+00 0.0000000000000000e+00 0.0000000000000000e+00  0.0000000000000000e+00 0.0000000000000000e+00 0.0000000000000000e+00  0.0000000000000000e+00 0.0000000000000000e+00 0.0000000000000000e+00  0.0000000000000000e+00 0.0000000000000000e+00 0.0000000000000000e+00  0.0000000000000000e+00 0.0000000000000000e+00 0.0000000000000000e+00  0.0000000000000000e+00 0.0000000000000000e+00 0.0000000000000000e+00  1.0157266857971465e-06 -5.9197314343655283e-06 0.0000000000000000e+00  2.2999161407941665e-06 -6.9350461364166853e-06 0.0000000000000000e+00  3.8153194057750941e-06 -8.0265732096182621e-06 0.0000000000000000e+00  5.5020533141867412e-06 -9.3620775970475106e-06 0.0000000000000000e+00  7.1177129561745562e-06 -1.1046369785870123e-05 0.0000000000000000e+00  8.7446385834786575e-06 -1.3178084076608677e-05 0.0000000000000000e+00  1.0222783360453959e-05 -1.5597166708843029e-05 0.0000000000000000e+00  1.1621425865578775e-05 -1.8410625674571528e-05 0.0000000000000000e+00  1.3045268330082203e-05 -2.1530026834147194e-05 0.0000000000000000e+00  1.4278923587376863e-05 -2.4946456739079576e-05 0.0000000000000000e+00  1.5544479404961183e-05 -2.8706518776436108e-05 0.0000000000000000e+00  1.6626763494751348e-05 -3.2722438797653570e-05 0.0000000000000000e+00  1.7707199517502287e-05 -3.7037618477965834e-05 0.0000000000000000e+00  1.8650006155313485e-05 -4.1586141316111880e-05 0.0000000000000000e+00  1.9508887187395855e-05 -4.6407714073632077e-05 0.0000000000000000e+00  2.0366094995155142e-05 -5.1463368078700974e-05 0.0000000000000000e+00  2.1059695989046621e-05 -5.6709128566071826e-05 0.0000000000000000e+00  2.1747839361478471e-05 -6.2217070781360134e-05 0.0000000000000000e+00  2.2284726931765696e-05 -6.7875211554156120e-05 0.0000000000000000e+00  2.2809262287249270e-05 -7.3763526158023446e-05 0.0000000000000000e+00  2.3205166482233177e-05 -7.9789247772984033e-05 0.0000000000000000e+00  2.3553896784506890e-05 -8.6015808459260782e-05 0.0000000000000000e+00  2.3803414966346636e-05 -9.2375701319969745e-05 0.0000000000000000e+00  2.3971196409944957e-05 -9.8892902575088969e-05 0.0000000000000000e+00  2.4110792520271063e-05 -1.0555027104409444e-04 0.0000000000000000e+00  2.4138512702047760e-05 -1.1231061060423760e-04 0.0000000000000000e+00  2.4097165217917255e-05 -1.1924215134244507e-04 0.0000000000000000e+00  2.3973954014333426e-05 -1.2623375060410405e-04 0.0000000000000000e+00  2.3780843776518981e-05 -1.3337446272772486e-04 0.0000000000000000e+00  2.3506832667145786e-05 -1.4056851837729496e-04 0.0000000000000000e+00  2.3165462723709202e-05 -1.4788889239703002e-04 0.0000000000000000e+00  2.2740059491244727e-05 -1.5524551375275649e-04 0.0000000000000000e+00  2.2251857113034621e-05 -1.6271634679040486e-04 0.0000000000000000e+00  2.1677992877161563e-05 -1.7020171415859137e-04 0.0000000000000000e+00  2.1031169944451489e-05 -1.7779605538991764e-04 0.0000000000000000e+00  2.0309182937393236e-05 -1.8539406731759100e-04 0.0000000000000000e+00  1.9518486941674474e-05 -1.9307827233239531e-04 0.0000000000000000e+00  1.8651000648988382e-05 -2.0075789538975093e-04 0.0000000000000000e+00  1.7711260266246303e-05 -2.0851110019240183e-04 0.0000000000000000e+00  1.6691386357982259e-05 -2.1625207203793828e-04 0.0000000000000000e+00  1.5593807103577034e-05 -2.2404164658256187e-04 0.0000000000000000e+00  1.4431384452009337e-05 -2.3183022912534821e-04 0.0000000000000000e+00  1.3184845348428852e-05 -2.3964511844225722e-04 0.0000000000000000e+00  1.1895963072889006e-05 -2.4746190288860224e-04 0.0000000000000000e+00  1.0521228272862033e-05 -2.5526114204815596e-04 0.0000000000000000e+00  9.1327124970587296e-06 -2.6313860676356599e-04 0.0000000000000000e+00  2.0738653690732165e-06 -2.6983811392789403e-04 0.0000000000000000e+00  -8.5447318867760494e-06 -2.6688418620825346e-04 0.0000000000000000e+00  -1.2126149440679563e-05 -2.5769723189016168e-04 0.0000000000000000e+00  -1.0704033450362671e-05 -2.4969401387764162e-04 0.0000000000000000e+00  -9.2951851099155533e-06 -2.4165510393993919e-04 0.0000000000000000e+00  -7.9636477728727933e-06 -2.3365689916326031e-04 0.0000000000000000e+00  -6.6757956043527700e-06 -2.2567279280171859e-04 0.0000000000000000e+00  -5.4696456293985514e-06 -2.1770862047819492e-04 0.0000000000000000e+00  -4.3087946976628523e-06 -2.0977011185226266e-04 0.0000000000000000e+00  -3.2277930512841212e-06 -2.0183644856994280e-04 0.0000000000000000e+00  -2.1963623761827873e-06 -1.9396457076681757e-04 0.0000000000000000e+00  -1.2379035319593650e-06 -1.8608842388968073e-04 0.0000000000000000e+00  -3.2487086307716224e-07 -1.7828659916455198e-04 0.0000000000000000e+00  5.1375739476219358e-07 -1.7049294783153245e-04 0.0000000000000000e+00  1.3128756577673249e-06 -1.6278625469894636e-04 0.0000000000000000e+00  2.0364247637932182e-06 -1.5510160949177234e-04 0.0000000000000000e+00  2.7265082734891085e-06 -1.4751793534124099e-04 0.0000000000000000e+00  3.3369738696786601e-06 -1.3997033263952620e-04 0.0000000000000000e+00  3.9205894529019720e-06 -1.3253491033541457e-04 0.0000000000000000e+00  4.4189550785861522e-06 -1.2514977524043542e-04 0.0000000000000000e+00  4.8961920055595461e-06 -1.1789655104954986e-04 0.0000000000000000e+00  5.2856670163411585e-06 -1.1071270478196832e-04 0.0000000000000000e+00  5.6627135197491452e-06 -1.0367647889168626e-04 0.0000000000000000e+00  5.9455893005032401e-06 -9.6728475923663570e-05 0.0000000000000000e+00  6.2103559270222623e-06 -8.9932334766812109e-05 0.0000000000000000e+00  6.3996501454714744e-06 -8.3256490801415409e-05 0.0000000000000000e+00  6.5228593931429616e-06 -7.6750760191168785e-05 0.0000000000000000e+00  6.6515827181629532e-06 -7.0382551475468716e-05 0.0000000000000000e+00  6.6897104854227850e-06 -6.4175101418721120e-05 0.0000000000000000e+00  6.7003437700854057e-06 -5.8177567889442186e-05 0.0000000000000000e+00  6.6402764302527470e-06 -5.2329457597042499e-05 0.0000000000000000e+00  6.5502114331237785e-06 -4.6719628065164551e-05 0.0000000000000000e+00  6.3906179016661193e-06 -4.1274426569968101e-05 0.0000000000000000e+00  6.2198288963080379e-06 -3.6109542730510337e-05 0.0000000000000000e+00  5.9632145428043606e-06 -3.1125038944953840e-05 0.0000000000000000e+00  5.6475991303224713e-06 -2.6442549065650759e-05 0.0000000000000000e+00  5.3627237746577393e-06 -2.1967054703388807e-05 0.0000000000000000e+00  4.9819550948033157e-06 -1.7789123447623667e-05 0.0000000000000000e+00  4.5847464630594575e-06 -1.3922077195476645e-05 0.0000000000000000e+00  4.1132429519750742e-06 -1.0325561013416017e-05 0.0000000000000000e+00  3.6522936535771567e-06 -7.0981986568809984e-06 0.0000000000000000e+00  3.0874240533231975e-06 -4.1436004284729848e-06 0.0000000000000000e+00  2.4656502623098304e-06 -1.5924828236545043e-06 0.0000000000000000e+00  1.9071436661292531e-06 6.5854655805692468e-07 0.0000000000000000e+00  1.2368474397181092e-06 2.5539883831986330e-06 0.0000000000000000e+00  6.7500768946359653e-07 4.0338706876485211e-06 0.0000000000000000e+00  1.5755225693938549e-07 4.9374019033364823e-06 0.0000000000000000e+00  -1.8647292649300854e-09 5.1018028893421037e-06 0.0000000000000000e+00  -1.4411954668633718e-07 -4.4587521798074269e-07 0.0000000000000000e+00  -8.5168927934988200e-07 -2.5645311431464279e-04 0.0000000000000000e+00  2.0052279386935605e-06 -2.4133518049587643e-04 0.0000000000000000e+00  5.7335514343651773e-06 -2.1668023807303526e-04 0.0000000000000000e+00  2.7401220651731155e-06 -2.3976727209804894e-06 0.0000000000000000e+00  7.6694755981209620e-06 -2.0124263283283642e-04 0.0000000000000000e+00  4.9086928145673999e-06 -5.7410072078398452e-06 0.0000000000000000e+00  9.5029849350023874e-06 -1.8567886533781390e-04 0.0000000000000000e+00  8.0420741303180156e-06 -1.4141774779830967e-05 0.0000000000000000e+00  9.7903959976585479e-06 -2.1112217403507825e-05 0.0000000000000000e+00  1.1070804134205848e-05 -1.7027812529701045e-04 0.0000000000000000e+00  1.3001643102004824e-05 -4.3779006981450888e-05 0.0000000000000000e+00  1.3419781461899820e-05 -1.4017551521414406e-04 0.0000000000000000e+00  1.1163105318769425e-05 -2.8898728629132351e-05 0.0000000000000000e+00  1.3939581049093449e-05 -5.4334606737575755e-05 0.0000000000000000e+00  1.4205359580676001e-05 -1.2558724952356821e-04 0.0000000000000000e+00  1.2375850394957067e-05 -1.5509137788615441e-04 0.0000000000000000e+00  1.4563493481041313e-05 -6.5853035936491177e-05 0.0000000000000000e+00  1.4732537175451175e-05 -1.1139625520624488e-04 0.0000000000000000e+00  1.4819795098200580e-05 -7.7531868779228151e-05 0.0000000000000000e+00  1.5123210274389302e-05 -9.8004412294144780e-05 0.0000000000000000e+00  1.5017148748045523e-05 -8.7208889148564206e-05 0.0000000000000000e+00  1.2188173290595888e-05 -3.5829738734096483e-05 0.0000000000000000e+00  3.6639761119847612e-06 -2.2942866649060912e-04 0.0000000000000000e+00  6.5000663697376836e-06 -9.4845087755737248e-06 0.0000000000000000e+00  -3.0878705302806637e-06 -2.4785222837681346e-04 0.0000000000000000e+00  9.3065390346695424e-07 1.0215396772443418e-06 0.0000000000000000e+00  5.5956906469405655e-06 -1.9244485294471372e-04 0.0000000000000000e+00  3.6054252339901796e-06 -2.0811723793175707e-04 0.0000000000000000e+00  4.7288448793812091e-06 -6.1187494527855102e-06 0.0000000000000000e+00  1.0311679750497533e-05 -1.9085172362137812e-05 0.0000000000000000e+00  1.0034428432942190e-05 -1.4646593626266771e-04 0.0000000000000000e+00  7.3287807654257827e-06 -1.7691197392965502e-04 0.0000000000000000e+00  1.5608716317866998e-05 -5.0359615779364257e-05 0.0000000000000000e+00  1.1014481931147695e-05 -1.3166223238014933e-04 0.0000000000000000e+00  1.2150298119610745e-05 -2.6678284579233318e-05 0.0000000000000000e+00  1.6511649441554769e-05 -6.1440800131122513e-05 0.0000000000000000e+00  1.1747653452798686e-05 -1.1722080419194934e-04 0.0000000000000000e+00  8.8068359732728548e-06 -1.6156677900526717e-04 0.0000000000000000e+00  1.7672940657820895e-05 -7.3529475747466331e-05 0.0000000000000000e+00  1.2237084810862772e-05 -1.0321252484528712e-04 0.0000000000000000e+00  -6.3648010707705110e-07 -1.4190219729617430e-06 0.0000000000000000e+00  -7.9945935433835321e-07 1.1324024472862178e-06 0.0000000000000000e+00  3.7128246705129947e-07 -2.6332759444437366e-04 0.0000000000000000e+00  1.9632797723444000e-06 -3.7376226634939758e-06 0.0000000000000