<?xml version="1.0"?>
<VTKFile type="UnstructuredGrid"  version="0.1"  >
<UnstructuredGrid>
<Piece  NumberOfPoints="1419" NumberOfCells="2698">
<Points>
<DataArray  type="Float64"  NumberOfComponents="3"  format="ascii">0 0 0  0 0.41 0  2.5 0 0  2.5 0.41 0  0.6 0.19 0  0.6 0.21 0  0.25 0.2 0  0.15 0.2 0  0.2489897948556636 0.21 0  0.2489897948556636 0.19 0  0.6 0.2 0  0 0.3807142857143437 0  0 0.3514285714286952 0  0 0.3221428571430699 0  0 0.29285714285744 0  0 0.2635714285718054 0  0 0.2342857142861561 0  0 0.2050000000005308 0  0 0.175714285714732 0  0 0.1464285714289574 0  0 0.1171428571431897 0  0 0.08785714285737878 0  0 0.05857142857161107 0  0 0.02928571428580012 0  0.03015443760436003 0 0  0.06140001986583606 0 0  0.09377624077125973 0 0  0.1273239957535082 0 0  0.1620856860351972 0 0  0.1981052433264291 0 0  0.235428184091502 0 0  0.2741016576309132 0 0  0.3141745521465447 0 0  0.3556974926295285 0 0  0.3987229542472677 0 0  0.4433053055141081 0 0  0.4895008759286886 0 0  0.5373680609405097 0 0  0.5869673343216626 0 0  0.6383613676634521 0 0  0.6916151138468254 0 0  0.7467958595648856 0 0  0.8039733463919316 0 0  0.8632198139502143 0 0  0.9246101326867038 0 0  0.9882218810934433 0 0  1.054135445558498 0 0  1.122434100542598 0 0  1.193204177141305 0 0  1.266535089879536 0 0  1.342519516046404 0 0  1.421253448503939 0 0  1.502836389106271 0 0  1.587371439758838 0 0  1.674965418777374 0 0  1.765729001825544 0 0  1.859776908880082 0 0  1.957227977487062 0 0  2.058205329869943 0 0  2.162836591189951 0 0  2.271253957290865 0 0  2.383594446803425 0 0  2.5 0.1024999999997612 0  2.5 0.2049999999994743 0  2.5 0.3074999999997183 0  2.383594446803656 0.41 0  2.271253957291315 0.41 0  2.162836591190598 0.41 0  2.058205329870775 0.41 0  1.957227977488067 0.41 0  1.859776908881246 0.41 0  1.765729001826854 0.41 0  1.674965418778818 0.41 0  1.58737143976041 0.41 0  1.502836389107956 0.41 0  1.421253448505726 0.41 0  1.342519516048286 0.41 0  1.266535089881505 0.41 0  1.193204177143353 0.41 0  1.122434100544716 0.41 0  1.05413544556068 0.41 0  0.9882218810956305 0.41 0  0.9246101326886647 0.41 0  0.8632198139519631 0.41 0  0.8039733463934788 0.41 0  0.7467958595662458 0.41 0  0.6916151138480078 0.41 0  0.6383613676644679 0.41 0  0.5869673343225223 0.41 0  0.5373680609412221 0.41 0  0.4895008759292634 0.41 0  0.4433053055145528 0.41 0  0.3987229542475914 0.41 0  0.3556974926297398 0.41 0  0.3141745521466497 0.41 0  0.2741016576310038 0.41 0  0.2354281840915826 0.41 0  0.1981052433265003 0.41 0  0.1620856860352591 0.41 0  0.1273239957535623 0.41 0  0.09377624077128965 0.41 0  0.06140001986584975 0.41 0  0.03015443760436654 0.41 0  0.2497468076502589 0.2050254481002335 0  0.2497468076502614 0.1949745518997913 0  0.2469965252529372 0.1829317073451959 0  0.2439893735792749 0.1762316384219906 0  0.2400332147834255 0.1700443375285386 0  0.2352133972704371 0.1645032867342007 0  0.2296339016332438 0.1597280261969788 0  0.2234150974217223 0.1558215752574715 0  0.2166911463437691 0.1528682099456123 0  0.2096071079204251 0.1509316448471593 0  0.2023158100364996 0.1500536585536553 0  0.194974551899914 0.1502531923497262 0  0.1877417105387872 0.1515259415822739 0  0.1807733240461124 0.153844448527136 0  0.1742197252835808 0.15715869474974 0  0.1682222986673531 0.1613971801805478 0  0.162910430003803 0.1664684656256651 0  0.1583987151779087 0.1722631454351573 0  0.1547844879126891 0.178656207771761 0  0.1521457199348551 0.1855097315605723 0  0.1505393388476355 0.1926758619366523 0  0.1505393388476328 0.2073241380633295 0  0.1521457199348437 0.2144902684393899 0  0.1547844879126531 0.221343792228163 0  0.1583987151778488 0.2277368545647528 0  0.1629104300036858 0.2335315343742052 0  0.1682222986671726 0.2386028198193036 0  0.1742197252833576 0.2428413052501257 0  0.1807733240458683 0.2461555514727623 0  0.1877417105384929 0.2484740584176516 0  0.1949745518995776 0.2497468076502398 0  0.202315810036185 0.2499463414463592 0  0.2096071079201568 0.2490683551528932 0  0.2166911463435495 0.2471317900544655 0  0.2234150974215506 0.2441784247426195 0  0.2296339016331197 0.2402719738031125 0  0.2352133972703547 0.2354967132658811 0  0.2400332147833751 0.2299556624715287 0  0.2439893735792577 0.2237683615780412 0  0.246996525252926 0.2170682926548348 0  0.25645809709277 0.21 0  0.2639263993298655 0.21 0  0.271394701566961 0.21 0  0.2788630038040554 0.21 0  0.2863313060411479 0.21 0  0.2937996082782405 0.21 0  0.301267910515333 0.21 0  0.3087362127524279 0.21 0  0.3162045149895234 0.21 0  0.3236728172265972 0.21 0  0.3311411194636928 0.21 0  0.3386094217007701 0.21 0  0.3460777239378666 0.21 0  0.3535460261749672 0.21 0  0.3610143284120516 0.21 0  0.3684826306491596 0.21 0  0.3759509328862226 0.21 0  0.383419235123329 0.21 0  0.3908875373604028 0.21 0  0.3983558395975142 0.21 0  0.4058241418345938 0.21 0  0.4132924440716992 0.21 0  0.4207607463087888 0.21 0  0.4282290485459029 0.21 0  0.4356973507830418 0.21 0  0.4431656530201649 0.21 0  0.4506339552573136 0.21 0  0.4581022574944306 0.21 0  0.4655705597315852 0.21 0  0.4730388619686996 0.21 0  0.480507164205851 0.21 0  0.4879754664429498 0.21 0  0.4954437686800938 0.21 0  0.502912070917267 0.21 0  0.5103803731544119 0.21 0  0.5178486753915261 0.21 0  0.5253169776286404 0.21 0  0.5327852798657868 0.21 0  0.5402535821029386 0.21 0  0.54772188434007 0.21 0  0.5551901865771842 0.21 0  0.5626584888143201 0.21 0  0.5701267910514778 0.21 0  0.5775950932886138 0.21 0  0.5850633955257281 0.21 0  0.5925316977628483 0.21 0  0.6 0.2050000000000054 0  0.6 0.1950000000000217 0  0.5925316977628897 0.19 0  0.5850633955257988 0.19 0  0.5775950932887378 0.19 0  0.5701267910515998 0.19 0  0.5626584888145268 0.19 0  0.5551901865773963 0.19 0  0.547721884340339 0.19 0  0.5402535821032429 0.19 0  0.5327852798661811 0.19 0  0.5253169776290537 0.19 0  0.5178486753919799 0.19 0  0.5103803731549078 0.19 0  0.502912070917822 0.19 0  0.4954437686807294 0.19 0  0.4879754664436223 0.19 0  0.4805071642065402 0.19 0  0.4730388619694271 0.19 0  0.4655705597323621 0.19 0  0.4581022574952563 0.19 0  0.4506339552581777 0.19 0  0.4431656530210671 0.19 0  0.4356973507839815 0.19 0  0.4282290485468779 0.19 0  0.4207607463097617 0.19 0  0.4132924440726327 0.19 0  0.4058241418354857 0.19 0  0.3983558395983636 0.19 0  0.3908875373612097 0.19 0  0.3834192351240934 0.19 0  0.3759509328869369 0.19 0  0.3684826306498175 0.19 0  0.361014328412667 0.19 0  0.3535460261755617 0.19 0  0.3460777239384295 0.19 0  0.3386094217012945 0.19 0  0.3311411194641595 0.19 0  0.3236728172270245 0.19 0  0.3162045149898895 0.19 0  0.3087362127527544 0.19 0  0.3012679105156187 0.19 0  0.2937996082784807 0.19 0  0.2863313060413428 0.19 0  0.2788630038042048 0.19 0  0.2713947015670686 0.19 0  0.2639263993299336 0.19 0  0.2564580970927985 0.19 0  0.2607803159922026 0.2000727136295815 0  0.5887803774232762 0.2001272386983733 0  0.5745072403740523 0.2002044435018727 0  0.5511891430099709 0.2001122610077113 0  0.2751288526855082 0.20000000000002 0  0.5365194309847112 0.1999999999999436 0  0.2894621222999649 0.1998691686390484 0  0.5215828265105155 0.1999999999999228 0  0.3127789816668748 0.1998657885438805 0  0.3274069683451451 0.2000000000000796 0  0.5066462220363641 0.199999999999908 0  0.3650630746574081 0.199866017807523 0  0.476773013087985 0.1999999999998713 0  0.3417402379596385 0.1998691686391011 0  0.3796850840047755 0.200000000000134 0  0.4618364086138087 0.1999999999998546 0  0.4917096175621762 0.1999999999998808 0  0.3946216884789568 0.2000000000001512 0  0.446899804139621 0.1999999999998389 0  0.4089549580935208 0.1998691686391595 0  0.4322718174608562 0.200127451265745 0  0.4201487168029707 0.1999966199048527 0  0.3528922713220932 0.2000185703532356 0  0.5633122436674589 0.1999814296467508 0  0.3006558810093873 0.1999966199048318 0  0.5815926498168407 0.1966545283159175 0  0.2677053789419034 0.1964246479135325 0  0.5290511287476175 0.1970915826863981 0  0.5439877332217911 0.197091582686394 0  0.2825131256993216 0.2035478995978015 0  0.3199386661080599 0.202908417313604 0  0.4842413153250809 0.1970915826863873 0  0.5141145242734466 0.1970915826863843 0  0.3722167817676917 0.2029084173136195 0  0.4693047108508938 0.1970915826863783 0  0.3348752705822316 0.202908417313609 0  0.3871533862418661 0.2029084173136212 0  0.4543681063767183 0.1970915826863795 0  0.4991779197992749 0.1970915826863902 0  0.4020059614928624 0.203547899597858 0  0.4394315019025246 0.1970915826863714 0  0.2550657455369551 0.2034088125358657 0  0.2548908499171161 0.1966940311614271 0  0.5946539510196798 0.2024302972968126 0  0.267698176732111 0.2039977513680092 0  0.4261685417851465 0.196409292431739 0  0.3590076176283495 0.196411355804271 0  0.5571672426447437 0.2036011176410121 0  0.3066757059912147 0.1964092924317024 0  0.594380730180568 0.1966558399668133 0  0.4842413153245942 0.2040749161535287 0  0.4693047108503577 0.2040749161535231 0  0.3871533862424271 0.1959250838464788 0  0.372246743208829 0.1959123236376545 0  0.5141145242731028 0.2040749161535395 0  0.4543681063761134 0.2040749161535186 0  0.4019979587101454 0.1959834479682427 0  0.4394608940728603 0.2040870543693135 0  0.5439623148931173 0.2040856076781014 0  0.5290511287473298 0.2040749161535501 0  0.4991779197988497 0.2040749161535382 0  0.3347912413592433 0.1959225448935183 0  0.3199680582793816 0.1959123018030061 0  0.2825051229162361 0.1959834479681729 0  0.3590471196690275 0.2036304442587945 0  0.5571594006495384 0.1963685282145804 0  0.3067669986803285 0.203627750582736 0  0.4262598344738712 0.2036568242185335 0  0.5814408164431408 0.2041285596160068 0  0.5688286748170428 0.1961819304477386 0  0.4145905603063645 0.2038180695522843 0  0.3473758401724931 0.2038180695522752 0  0.2950977245128307 0.2038180695522663 0  0.5688286748170693 0.203818069552238 0  0.2950977245127906 0.1961819304477774 0  0.3473758401723931 0.1961819304478349 0  0.4145905603061963 0.1961819304479011 0  0.2601812407614425 0.2056861609747042
[...]
<PointData  Vectors="f_40-0"> 
<DataArray  type="Float64"  Name="f_40-0"  NumberOfComponents="3" format="ascii">0.0000000000000000e+00 0.0000000000000000e+00 0.0000000000000000e+00  0.0000000000000000e+00 0.0000000000000000e+00 0.0000000000000000e+00  0.0000000000000000e+00 0.0000000000000000e+00 0.0000000000000000e+00  0.0000000000000000e+00 0.0000000000000000e+00 0.0000000000000000e+00  -9.9248410783761128e-05 -2.1076775043880100e-06 0.0000000000000000e+00  -9.8447376685095809e-05 -8.1202321716301897e-06 0.0000000000000000e+00  0.0000000000000000e+00 0.0000000000000000e+00 0.0000000000000000e+00  0.0000000000000000e+00 0.0000000000000000e+00 0.0000000000000000e+00  0.0000000000000000e+00 0.0000000000000000e+00 0.0000000000000000e+00  0.0000000000000000e+00 0.0000000000000000e+00 0.0000000000000000e+00  -9.8990989893983988e-05 -5.1180955367226700e-06 0.0000000000000000e+00  4.6263754677382008e-04 0.0000000000000000e+00 0.0000000000000000e+00  8.5410008635172460e-04 0.0000000000000000e+00 0.0000000000000000e+00  1.1743876187336215e-03 0.0000000000000000e+00 0.0000000000000000e+00  1.4235001439198815e-03 0.0000000000000000e+00 0.0000000000000000e+00  1.6014376619104724e-03 0.0000000000000000e+00 0.0000000000000000e+00  1.7082001727053841e-03 0.0000000000000000e+00 0.0000000000000000e+00  1.7437876763045090e-03 0.0000000000000000e+00 0.0000000000000000e+00  1.7082001727075427e-03 0.0000000000000000e+00 0.0000000000000000e+00  1.6014376619141804e-03 0.0000000000000000e+00 0.0000000000000000e+00  1.4235001439244731e-03 0.0000000000000000e+00 0.0000000000000000e+00  1.1743876187379834e-03 0.0000000000000000e+00 0.0000000000000000e+00  8.5410008635544677e-04 0.0000000000000000e+00 0.0000000000000000e+00  4.6263754677591736e-04 0.0000000000000000e+00 0.0000000000000000e+00  0.0000000000000000e+00 0.0000000000000000e+00 0.0000000000000000e+00  0.0000000000000000e+00 0.0000000000000000e+00 0.0000000000000000e+00  0.0000000000000000e+00 0.0000000000000000e+00 0.0000000000000000e+00  0.0000000000000000e+00 0.0000000000000000e+00 0.0000000000000000e+00  0.0000000000000000e+00 0.0000000000000000e+00 0.0000000000000000e+00  0.0000000000000000e+00 0.0000000000000000e+00 0.0000000000000000e+00  0.0000000000000000e+00 0.0000000000000000e+00 0.0000000000000000e+00  0.0000000000000000e+00 0.0000000000000000e+00 0.0000000000000000e+00  0.0000000000000000e+00 0.0000000000000000e+00 0.0000000000000000e+00  0.0000000000000000e+00 0.0000000000000000e+00 0.0000000000000000e+00  0.0000000000000000e+00 0.0000000000000000e+00 0.0000000000000000e+00  0.0000000000000000e+00 0.0000000000000000e+00 0.0000000000000000e+00  0.0000000000000000e+00 0.0000000000000000e+00 0.0000000000000000e+00  0.0000000000000000e+00 0.0000000000000000e+00 0.0000000000000000e+00  0.0000000000000000e+00 0.0000000000000000e+00 0.0000000000000000e+00  0.0000000000000000e+00 0.0000000000000000e+00 0.0000000000000000e+00  0.0000000000000000e+00 0.0000000000000000e+00 0.0000000000000000e+00  0.0000000000000000e+00 0.0000000000000000e+00 0.0000000000000000e+00  0.0000000000000000e+00 0.0000000000000000e+00 0.0000000000000000e+00  0.0000000000000000e+00 0.0000000000000000e+00 0.0000000000000000e+00  0.0000000000000000e+00 0.0000000000000000e+00 0.0000000000000000e+00  0.0000000000000000e+00 0.0000000000000000e+00 0.0000000000000000e+00  0.0000000000000000e+00 0.0000000000000000e+00 0.0000000000000000e+00  0.0000000000000000e+00 0.0000000000000000e+00 0.0000000000000000e+00  0.0000000000000000e+00 0.0000000000000000e+00 0.0000000000000000e+00  0.0000000000000000e+00 0.0000000000000000e+00 0.0000000000000000e+00  0.0000000000000000e+00 0.0000000000000000e+00 0.0000000000000000e+00  0.0000000000000000e+00 0.0000000000000000e+00 0.0000000000000000e+00  0.0000000000000000e+00 0.0000000000000000e+00 0.0000000000000000e+00  0.0000000000000000e+00 0.0000000000000000e+00 0.0000000000000000e+00  0.0000000000000000e+00 0.0000000000000000e+00 0.0000000000000000e+00  0.0000000000000000e+00 0.0000000000000000e+00 0.0000000000000000e+00  0.0000000000000000e+00 0.0000000000000000e+00 0.0000000000000000e+00  0.0000000000000000e+00 0.0000000000000000e+00 0.0000000000000000e+00  0.0000000000000000e+00 0.0000000000000000e+00 0.0000000000000000e+00  0.0000000000000000e+00 0.0000000000000000e+00 0.0000000000000000e+00  0.0000000000000000e+00 0.0000000000000000e+00 0.0000000000000000e+00  0.0000000000000000e+00 0.0000000000000000e+00 0.0000000000000000e+00  1.6169213269849230e-03 5.3280358759114123e-05 0.0000000000000000e+00  1.1490057474528980e-03 4.5146823557468541e-06 0.0000000000000000e+00  1.5788607073885577e-03 -1.0182705201982824e-04 0.0000000000000000e+00  0.0000000000000000e+00 0.0000000000000000e+00 0.0000000000000000e+00  0.0000000000000000e+00 0.0000000000000000e+00 0.0000000000000000e+00  0.0000000000000000e+00 0.0000000000000000e+00 0.0000000000000000e+00  0.0000000000000000e+00 0.0000000000000000e+00 0.0000000000000000e+00  0.0000000000000000e+00 0.0000000000000000e+00 0.0000000000000000e+00  0.0000000000000000e+00 0.0000000000000000e+00 0.0000000000000000e+00  0.0000000000000000e+00 0.0000000000000000e+00 0.0000000000000000e+00  0.0000000000000000e+00 0.0000000000000000e+00 0.0000000000000000e+00  0.0000000000000000e+00 0.0000000000000000e+00 0.0000000000000000e+00  0.0000000000000000e+00 0.0000000000000000e+00 0.0000000000000000e+00  0.0000000000000000e+00 0.0000000000000000e+00 0.0000000000000000e+00  0.0000000000000000e+00 0.0000000000000000e+00 0.0000000000000000e+00  0.0000000000000000e+00 0.0000000000000000e+00 0.0000000000000000e+00  0.0000000000000000e+00 0.0000000000000000e+00 0.0000000000000000e+00  0.0000000000000000e+00 0.0000000000000000e+00 0.0000000000000000e+00  0.0000000000000000e+00 0.0000000000000000e+00 0.0000000000000000e+00  0.0000000000000000e+00 0.0000000000000000e+00 0.0000000000000000e+00  0.0000000000000000e+00 0.0000000000000000e+00 0.0000000000000000e+00  0.0000000000000000e+00 0.0000000000000000e+00 0.0000000000000000e+00  0.0000000000000000e+00 0.0000000000000000e+00 0.0000000000000000e+00  0.0000000000000000e+00 0.0000000000000000e+00 0.0000000000000000e+00  0.0000000000000000e+00 0.0000000000000000e+00 0.0000000000000000e+00  0.0000000000000000e+00 0.0000000000000000e+00 0.0000000000000000e+00  0.0000000000000000e+00 0.0000000000000000e+00 0.0000000000000000e+00  0.0000000000000000e+00 0.0000000000000000e+00 0.0000000000000000e+00  0.0000000000000000e+00 0.0000000000000000e+00 0.0000000000000000e+00  0.0000000000000000e+00 0.0000000000000000e+00 0.0000000000000000e+00  0.0000000000000000e+00 0.0000000000000000e+00 0.0000000000000000e+00  0.0000000000000000e+00 0.0000000000000000e+00 0.0000000000000000e+00  0.0000000000000000e+00 0.0000000000000000e+00 0.0000000000000000e+00  0.0000000000000000e+00 0.0000000000000000e+00 0.0000000000000000e+00  0.0000000000000000e+00 0.0000000000000000e+00 0.0000000000000000e+00  0.0000000000000000e+00 0.0000000000000000e+00 0.0000000000000000e+00  0.0000000000000000e+00 0.0000000000000000e+00 0.0000000000000000e+00  0.0000000000000000e+00 0.0000000000000000e+00 0.0000000000000000e+00  0.0000000000000000e+00 0.0000000000000000e+00 0.0000000000000000e+00  0.0000000000000000e+00 0.0000000000000000e+00 0.0000000000000000e+00  0.0000000000000000e+00 0.0000000000000000e+00 0.0000000000000000e+00  0.0000000000000000e+00 0.0000000000000000e+00 0.0000000000000000e+00  0.0000000000000000e+00 0.0000000000000000e+00 0.0000000000000000e+00  0.0000000000000000e+00 0.0000000000000000e+00 0.0000000000000000e+00  0.0000000000000000e+00 0.0000000000000000e+00 0.0000000000000000e+00  0.0000000000000000e+00 0.0000000000000000e+00 0.0000000000000000e+00  0.0000000000000000e+00 0.0000000000000000e+00 0.0000000000000000e+00  0.0000000000000000e+00 0.0000000000000000e+00 0.0000000000000000e+00  0.0000000000000000e+00 0.0000000000000000e+00 0.0000000000000000e+00  0.0000000000000000e+00 0.0000000000000000e+00 0.0000000000000000e+00  0.0000000000000000e+00 0.0000000000000000e+00 0.0000000000000000e+00  0.0000000000000000e+00 0.0000000000000000e+00 0.0000000000000000e+00  0.0000000000000000e+00 0.0000000000000000e+00 0.0000000000000000e+00  0.0000000000000000e+00 0.0000000000000000e+00 0.0000000000000000e+00  0.0000000000000000e+00 0.0000000000000000e+00 0.0000000000000000e+00  0.0000000000000000e+00 0.0000000000000000e+00 0.0000000000000000e+00  0.0000000000000000e+00 0.0000000000000000e+00 0.0000000000000000e+00  0.0000000000000000e+00 0.0000000000000000e+00 0.0000000000000000e+00  0.0000000000000000e+00 0.0000000000000000e+00 0.0000000000000000e+00  0.0000000000000000e+00 0.0000000000000000e+00 0.0000000000000000e+00  0.0000000000000000e+00 0.0000000000000000e+00 0.0000000000000000e+00  0.0000000000000000e+00 0.0000000000000000e+00 0.0000000000000000e+00  0.0000000000000000e+00 0.0000000000000000e+00 0.0000000000000000e+00  0.0000000000000000e+00 0.0000000000000000e+00 0.0000000000000000e+00  0.0000000000000000e+00 0.0000000000000000e+00 0.0000000000000000e+00  0.0000000000000000e+00 0.0000000000000000e+00 0.0000000000000000e+00  0.0000000000000000e+00 0.0000000000000000e+00 0.0000000000000000e+00  0.0000000000000000e+00 0.0000000000000000e+00 0.0000000000000000e+00  0.0000000000000000e+00 0.0000000000000000e+00 0.0000000000000000e+00  0.0000000000000000e+00 0.0000000000000000e+00 0.0000000000000000e+00  0.0000000000000000e+00 0.0000000000000000e+00 0.0000000000000000e+00  0.0000000000000000e+00 0.0000000000000000e+00 0.0000000000000000e+00  0.0000000000000000e+00 0.0000000000000000e+00 0.0000000000000000e+00  0.0000000000000000e+00 0.0000000000000000e+00 0.0000000000000000e+00  0.0000000000000000e+00 0.0000000000000000e+00 0.0000000000000000e+00  0.0000000000000000e+00 0.0000000000000000e+00 0.0000000000000000e+00  0.0000000000000000e+00 0.0000000000000000e+00 0.0000000000000000e+00  0.0000000000000000e+00 0.0000000000000000e+00 0.0000000000000000e+00  0.0000000000000000e+00 0.0000000000000000e+00 0.0000000000000000e+00  0.0000000000000000e+00 0.0000000000000000e+00 0.0000000000000000e+00  0.0000000000000000e+00 0.0000000000000000e+00 0.0000000000000000e+00  -2.2360480231695558e-06 -3.4479050461431159e-06 0.0000000000000000e+00  -4.4576001063027563e-06 -3.6506834575978461e-06 0.0000000000000000e+00  -6.5258997334633366e-06 -3.6625725912949857e-06 0.0000000000000000e+00  -8.5001157202806919e-06 -3.5424257069659789e-06 0.0000000000000000e+00  -1.0440859673127630e-05 -3.4352735795221022e-06 0.0000000000000000e+00  -1.2396856680793439e-05 -3.3711237198745746e-06 0.0000000000000000e+00  -1.4364824200607953e-05 -3.3213876904134983e-06 0.0000000000000000e+00  -1.6353576101600084e-05 -3.2971495699960407e-06 0.0000000000000000e+00  -1.8348626511385077e-05 -3.2921548776673177e-06 0.0000000000000000e+00  -2.0369290399361687e-05 -3.3026686629606698e-06 0.0000000000000000e+00  -2.2402259560243216e-05 -3.3382175444211128e-06 0.0000000000000000e+00  -2.4456652185492099e-05 -3.3791034729800487e-06 0.0000000000000000e+00  -2.6527531559896799e-05 -3.4315375189422331e-06 0.0000000000000000e+00  -2.8611588278643373e-05 -3.4914950366369778e-06 0.0000000000000000e+00  -3.0712567990160995e-05 -3.5476921877156353e-06 0.0000000000000000e+00  -3.2822353410320430e-05 -3.6075708679670968e-06 0.0000000000000000e+00  -3.4944678269314462e-05 -3.6536228535584139e-06 0.0000000000000000e+00  -3.7076580119577195e-05 -3.7049940861256688e-06 0.0000000000000000e+00  -3.9213856639383620e-05 -3.7385628592424976e-06 0.0000000000000000e+00  -4.1356384304638515e-05 -3.7769257888686540e-06 0.0000000000000000e+00  -4.3501878835578098e-05 -3.8019509702996853e-06 0.0000000000000000e+00  -4.5650509838494033e-05 -3.8289965829800703e-06 0.0000000000000000e+00  -4.7796475848568429e-05 -3.8581667276246172e-06 0.0000000000000000e+00  -4.9943357423620960e-05 -3.8838338855342567e-06 0.0000000000000000e+00  -5.2085274534097218e-05 -3.9224964549474701e-06 0.0000000000000000e+00  -5.4226619526519053e-05 -3.9592656155305415e-06 0.0000000000000000e+00  -5.6366519923184132e-05 -4.0149107781794814e-06 0.0000000000000000e+00  -5.8502793638887881e-05 -4.0752440158536793e-06 0.0000000000000000e+00  -6.0634983447786053e-05 -4.1533688833764306e-06 0.0000000000000000e+00  -6.2764521305419999e-05 -4.2443318200039590e-06 0.0000000000000000e+00  -6.4888926708596368e-05 -4.3541591726680925e-06 0.0000000000000000e+00  -6.7012567399855997e-05 -4.4783246540022936e-06 0.0000000000000000e+00  -6.9131318065437716e-05 -4.6260489180042471e-06 0.0000000000000000e+00  -7.1247731059422028e-05 -4.7862805631667979e-06 0.0000000000000000e+00  -7.3358954529793136e-05 -4.9698221805521899e-06 0.0000000000000000e+00  -7.5469311982249339e-05 -5.1621062790682494e-06 0.0000000000000000e+00  -7.7577266975326821e-05 -5.3744557711414381e-06 0.0000000000000000e+00  -7.9684921148142550e-05 -5.5991055100314192e-06 0.0000000000000000e+00  -8.1789435977701219e-05 -5.8418059334066749e-06 0.0000000000000000e+00  -8.3893019195562652e-05 -6.0919252275377238e-06 0.0000000000000000e+00  -8.5994809739629207e-05 -6.3532173088376522e-06 0.0000000000000000e+00  -8.8095677249496111e-05 -6.6187893540580507e-06 0.0000000000000000e+00  -9.0192979127497023e-05 -6.8926593600155677e-06 0.0000000000000000e+00  -9.2284045193382253e-05 -7.1652685795910878e-06 0.0000000000000000e+00  -9.4373741303687908e-05 -7.4405783738506013e-06 0.0000000000000000e+00  -9.6441708442187977e-05 -7.7376361134460233e-06 0.0000000000000000e+00  -9.8766397843242043e-05 -6.6143487577422576e-06 0.0000000000000000e+00  -9.9158196304864699e-05 -3.6212446312661754e-06 0.0000000000000000e+00  -9.7235004612847403e-05 -1.9035922454871414e-06 0.0000000000000000e+00  -9.5161853107543192e-05 -1.6007064424202574e-06 0.0000000000000000e+00  -9.3064115383697756e-05 -1.2894243721998712e-06 0.0000000000000000e+00  -9.0960527960865574e-05 -9.8327798587773985e-07 0.0000000000000000e+00  -8.8849043252529246e-05 -6.8122443198535792e-07 0.0000000000000000e+00  -8.6732106887045231e-05 -3.8620787264244265e-07 0.0000000000000000e+00  -8.4605789303739102e-05 -9.6798643369427842e-08 0.0000000000000000e+00  -8.2477625436689367e-05 1.8331182425852583e-07 0.0000000000000000e+00  -8.0339863516782755e-05 4.5055337410600139e-07 0.0000000000000000e+00  -7.8200146404313440e-05 7.0584101706668935e-07 0.0000000000000000e+00  -7.6049486620002475e-05 9.4408558773641342e-07 0.0000000000000000e+00  -7.3898923177455355e-05 1.1691357886148229e-06 0.0000000000000000e+00  -7.1737507835183256e-05 1.3767494114791774e-06 0.0000000000000000e+00  -6.9579060054378482e-05 1.5705372711180442e-06 0.0000000000000000e+00  -6.7412723178253431e-05 1.7433923464319384e-06 0.0000000000000000e+00  -6.5248865189992359e-05 1.9005417383648284e-06 0.0000000000000000e+00  -6.3077444604953608e-05 2.0377476836066919e-06 0.0000000000000000e+00  -6.0910563417302909e-05 2.1625830284055519e-06 0.0000000000000000e+00  -5.8738498816618862e-05 2.2692173550122678e-06 0.0000000000000000e+00  -5.6573121419024861e-05 2.3679103421176459e-06 0.0000000000000000e+00  -5.4407176516736011e-05 2.4508678092747569e-06 0.0000000000000000e+00  -5.2246529238919671e-05 2.5289347181955549e-06 0.0000000000000000e+00  -5.0089040654278352e-05 2.5990254658630643e-06 0.0000000000000000e+00  -4.7934555062416737e-05 2.6636794078386854e-06 0.0000000000000000e+00  -4.5786239494454154e-05 2.7311503564375748e-06 0.0000000000000000e+00  -4.3640341726198339e-05 2.7960651270704859e-06 0.0000000000000000e+00  -4.1504383798236764e-05 2.8717009975475916e-06 0.0000000000000000e+00  -3.9374651646822663e-05 2.9409733580116082e-06 0.0000000000000000e+00  -3.7251264776479543e-05 3.0297928169339046e-06 0.0000000000000000e+00  -3.5134523055246257e-05 3.1144216163969080e-06 0.0000000000000000e+00  -3.3023686312936175e-05 3.2187218717872824e-06 0.0000000000000000e+00  -3.0921678805896811e-05 3.3210520902267976e-06 0.0000000000000000e+00  -2.8821295498582544e-05 3.4320706184562323e-06 0.0000000000000000e+00  -2.6729917539886098e-05 3.5392899587965840e-06 0.0000000000000000e+00  -2.4640393388260780e-05 3.6467664565062418e-06 0.0000000000000000e+00  -2.2560954389925594e-05 3.7463951735251257e-06 0.0000000000000000e+00  -2.0489266938880857e-05 3.8292075422496343e-06 0.0000000000000000e+00  -1.8429680689435585e-05 3.9033875909238350e-06 0.0000000000000000e+00  -1.6382877919600515e-05 3.9540827454963896e-06 0.0000000000000000e+00  -1.4349542288182083e-05 3.9866575885859564e-06 0.0000000000000000e+00  -1.2340214659593639e-05 3.9982914934799618e-06 0.0000000000000000e+00  -1.0340320976162467e-05 3.9896408206250173e-06 0.0000000000000000e+00  -8.3754372622104048e-06 3.9954213075116598e-06 0.0000000000000000e+00  -6.3894544569047061e-06 3.9813124759025923e-06 0.0000000000000000e+00  -4.3418382721918576e-06 3.8435672361796126e-06 0.0000000000000000e+00  -2.1795092659359084e-06 3.5124357167513580e-06 0.0000000000000000e+00  -4.1170954750071699e-06 3.6680340827938387e-08 0.0000000000000000e+00  -9.5845463402107948e-05 -4.7048155359111868e-06 0.0000000000000000e+00  -9.1817154441591411e-05 -4.1641366193671181e-06 0.0000000000000000e+00  -8.5243894224580380e-05 -3.2489430725597527e-06 0.0000000000000000e+00  -7.4699536232655114e-06 1.9309190460793764e-07 0.0000000000000000e+00  -8.1091820503858609e-05 -2.6928930908011905e-06 0.0000000000000000e+00  -1.1218098203851870e-05 3.5219276192965279e-07 0.0000000000000000e+00  -7.6842492851590194e-05 -2.2103033848754389e-06 0.0000000000000000e+00  -1.7467555336580528e-05 3.7807549964524359e-07 0.0000000000000000e+00  -2.1464415467007995e-05 2.4375372041418121e-07 0.0000000000000000e+00  -7.2578696280980296e-05 -1.7891118031233120e-06 0.0000000000000000e+00  -3.1969052230425082e-05 -1.1359570007022863e-07 0.0000000000000000e+00  -6.4012057994359271e-05 -1.1525478783114250e-06 0.0000000000000000e+00  -2.5428585136643916e-05 1.5158079038114600e-07 0.0000000000000000e+00  -3.6114888986088038e-05 -3.0748373622605620e-07 0.0000000000000000e+00  -5.9713449820872352e-05 -9.3862061914631705e-07 0.0000000000000000e+00  -6.8301338849813235e-05 -1.4348862487214287e-06 0.0000000000000000e+00  -4.0376131813521376e-05 -4.2917289001425538e-07 0.0000000000000000e+00  -5.5409865060930553e-05 -7.8185039862801007e-07 0.0000000000000000e+00  -4.4484007442084766e-05 -4.8017192664544280e-07 0.0000000000000000e+00  -5.1191992761881347e-05 -7.0879033513011472e-07 0.0000000000000000e+00  -4.7706419982601505e-05 -5.9077588996229795e-07 0.0000000000000000e+00  -2.8547628194296823e-05 -2.7718935254415975e-08 0.0000000000000000e+00  -8.8677091416408966e-05 -3.6666149142803546e-06 0.0000000000000000e+00  -1.4205410338972740e-05 3.4062420576933969e-07 0.0000000000000000e+00  -9.3951996830232435e-05 -3.4055751170023902e-06 0.0000000000000000e+00  -5.6159016339036302e-06 1.5499892305973356e-06 0.0000000000000000e+00  -7.9061125159939996e-05 -1.5634274211088465e-06 0.0000000000000000e+00  -8.3310916490561164e-05 -2.0807590343726486e-06 0.0000000000000000e+00  -9.4118357981684493e-06 -1.0686872744193262e-06 0.0000000000000000e+00  -1.9403282359606542e-05 -7.4634243889362214e-07 0.0000000000000000e+00  -6.6212815587293254e-05 -3.7877062797100431e-07 0.0000000000000000e+00  -7.4793081661230919e-05 -1.1031415444083516e-06 0.0000000000000000e+00  -3.3965293811877488e-05 -1.2232651428054652e-06 0.0000000000000000e+00  -6.1906117508079425e-05 -1.2297678909183672e-07 0.0000000000000000e+00  -2.3500312766671779e-05 -8.5030970153882696e-07 0.0000000000000000e+00  -3.8218183602888392e-05 -1.3473000701945838e-06 0.0000000000000000e+00  -5.7593931162329876e-05 7.0200172042322420e-08 0.0000000000000000e+00  -7.0509043818325974e-05 -7.0591586567638603e-07 0.0000000000000000e+00  -4.2464145234387801e-05 -1.6550059144877187e-06 0.0000000000000000e+00  -5.3282095408147571e-05 2.1467950631472591e-07 0.0000000000000000e+00  -2.3891316563281941e-06 -7.9231924346263198e-07 0.0000000000000000e+00  -2.3119987563490807e-06 7.5042605816016601e-07 0.0000000000000000e+00  -9.7403677053164620e-05 -5.6129035843119702e-06 0.0000000