<?xml version="1.0"?>
<VTKFile type="UnstructuredGrid"  version="0.1"  >
<UnstructuredGrid>
<Piece  NumberOfPoints="1419" NumberOfCells="2698">
<Points>
<DataArray  type="Float64"  NumberOfComponents="3"  format="ascii">0 0 0  0 0.41 0  2.5 0 0  2.5 0.41 0  0.6 0.19 0  0.6 0.21 0  0.25 0.2 0  0.15 0.2 0  0.2489897948556636 0.21 0  0.2489897948556636 0.19 0  0.6 0.2 0  0 0.3807142857143437 0  0 0.3514285714286952 0  0 0.3221428571430699 0  0 0.29285714285744 0  0 0.2635714285718054 0  0 0.2342857142861561 0  0 0.2050000000005308 0  0 0.175714285714732 0  0 0.1464285714289574 0  0 0.1171428571431897 0  0 0.08785714285737878 0  0 0.05857142857161107 0  0 0.02928571428580012 0  0.03015443760436003 0 0  0.06140001986583606 0 0  0.09377624077125973 0 0  0.1273239957535082 0 0  0.1620856860351972 0 0  0.1981052433264291 0 0  0.235428184091502 0 0  0.2741016576309132 0 0  0.3141745521465447 0 0  0.3556974926295285 0 0  0.3987229542472677 0 0  0.4433053055141081 0 0  0.4895008759286886 0 0  0.5373680609405097 0 0  0.5869673343216626 0 0  0.6383613676634521 0 0  0.6916151138468254 0 0  0.7467958595648856 0 0  0.8039733463919316 0 0  0.8632198139502143 0 0  0.9246101326867038 0 0  0.9882218810934433 0 0  1.054135445558498 0 0  1.122434100542598 0 0  1.193204177141305 0 0  1.266535089879536 0 0  1.342519516046404 0 0  1.421253448503939 0 0  1.502836389106271 0 0  1.587371439758838 0 0  1.674965418777374 0 0  1.765729001825544 0 0  1.859776908880082 0 0  1.957227977487062 0 0  2.058205329869943 0 0  2.162836591189951 0 0  2.271253957290865 0 0  2.383594446803425 0 0  2.5 0.1024999999997612 0  2.5 0.2049999999994743 0  2.5 0.3074999999997183 0  2.383594446803656 0.41 0  2.271253957291315 0.41 0  2.162836591190598 0.41 0  2.058205329870775 0.41 0  1.957227977488067 0.41 0  1.859776908881246 0.41 0  1.765729001826854 0.41 0  1.674965418778818 0.41 0  1.58737143976041 0.41 0  1.502836389107956 0.41 0  1.421253448505726 0.41 0  1.342519516048286 0.41 0  1.266535089881505 0.41 0  1.193204177143353 0.41 0  1.122434100544716 0.41 0  1.05413544556068 0.41 0  0.9882218810956305 0.41 0  0.9246101326886647 0.41 0  0.8632198139519631 0.41 0  0.8039733463934788 0.41 0  0.7467958595662458 0.41 0  0.6916151138480078 0.41 0  0.6383613676644679 0.41 0  0.5869673343225223 0.41 0  0.5373680609412221 0.41 0  0.4895008759292634 0.41 0  0.4433053055145528 0.41 0  0.3987229542475914 0.41 0  0.3556974926297398 0.41 0  0.3141745521466497 0.41 0  0.2741016576310038 0.41 0  0.2354281840915826 0.41 0  0.1981052433265003 0.41 0  0.1620856860352591 0.41 0  0.1273239957535623 0.41 0  0.09377624077128965 0.41 0  0.06140001986584975 0.41 0  0.03015443760436654 0.41 0  0.2497468076502589 0.2050254481002335 0  0.2497468076502614 0.1949745518997913 0  0.2469965252529372 0.1829317073451959 0  0.2439893735792749 0.1762316384219906 0  0.2400332147834255 0.1700443375285386 0  0.2352133972704371 0.1645032867342007 0  0.2296339016332438 0.1597280261969788 0  0.2234150974217223 0.1558215752574715 0  0.2166911463437691 0.1528682099456123 0  0.2096071079204251 0.1509316448471593 0  0.2023158100364996 0.1500536585536553 0  0.194974551899914 0.1502531923497262 0  0.1877417105387872 0.1515259415822739 0  0.1807733240461124 0.153844448527136 0  0.1742197252835808 0.15715869474974 0  0.1682222986673531 0.1613971801805478 0  0.162910430003803 0.1664684656256651 0  0.1583987151779087 0.1722631454351573 0  0.1547844879126891 0.178656207771761 0  0.1521457199348551 0.1855097315605723 0  0.1505393388476355 0.1926758619366523 0  0.1505393388476328 0.2073241380633295 0  0.1521457199348437 0.2144902684393899 0  0.1547844879126531 0.221343792228163 0  0.1583987151778488 0.2277368545647528 0  0.1629104300036858 0.2335315343742052 0  0.1682222986671726 0.2386028198193036 0  0.1742197252833576 0.2428413052501257 0  0.1807733240458683 0.2461555514727623 0  0.1877417105384929 0.2484740584176516 0  0.1949745518995776 0.2497468076502398 0  0.202315810036185 0.2499463414463592 0  0.2096071079201568 0.2490683551528932 0  0.2166911463435495 0.2471317900544655 0  0.2234150974215506 0.2441784247426195 0  0.2296339016331197 0.2402719738031125 0  0.2352133972703547 0.2354967132658811 0  0.2400332147833751 0.2299556624715287 0  0.2439893735792577 0.2237683615780412 0  0.246996525252926 0.2170682926548348 0  0.25645809709277 0.21 0  0.2639263993298655 0.21 0  0.271394701566961 0.21 0  0.2788630038040554 0.21 0  0.2863313060411479 0.21 0  0.2937996082782405 0.21 0  0.301267910515333 0.21 0  0.3087362127524279 0.21 0  0.3162045149895234 0.21 0  0.3236728172265972 0.21 0  0.3311411194636928 0.21 0  0.3386094217007701 0.21 0  0.3460777239378666 0.21 0  0.3535460261749672 0.21 0  0.3610143284120516 0.21 0  0.3684826306491596 0.21 0  0.3759509328862226 0.21 0  0.383419235123329 0.21 0  0.3908875373604028 0.21 0  0.3983558395975142 0.21 0  0.4058241418345938 0.21 0  0.4132924440716992 0.21 0  0.4207607463087888 0.21 0  0.4282290485459029 0.21 0  0.4356973507830418 0.21 0  0.4431656530201649 0.21 0  0.4506339552573136 0.21 0  0.4581022574944306 0.21 0  0.4655705597315852 0.21 0  0.4730388619686996 0.21 0  0.480507164205851 0.21 0  0.4879754664429498 0.21 0  0.4954437686800938 0.21 0  0.502912070917267 0.21 0  0.5103803731544119 0.21 0  0.5178486753915261 0.21 0  0.5253169776286404 0.21 0  0.5327852798657868 0.21 0  0.5402535821029386 0.21 0  0.54772188434007 0.21 0  0.5551901865771842 0.21 0  0.5626584888143201 0.21 0  0.5701267910514778 0.21 0  0.5775950932886138 0.21 0  0.5850633955257281 0.21 0  0.5925316977628483 0.21 0  0.6 0.2050000000000054 0  0.6 0.1950000000000217 0  0.5925316977628897 0.19 0  0.5850633955257988 0.19 0  0.5775950932887378 0.19 0  0.5701267910515998 0.19 0  0.5626584888145268 0.19 0  0.5551901865773963 0.19 0  0.547721884340339 0.19 0  0.5402535821032429 0.19 0  0.5327852798661811 0.19 0  0.5253169776290537 0.19 0  0.5178486753919799 0.19 0  0.5103803731549078 0.19 0  0.502912070917822 0.19 0  0.4954437686807294 0.19 0  0.4879754664436223 0.19 0  0.4805071642065402 0.19 0  0.4730388619694271 0.19 0  0.4655705597323621 0.19 0  0.4581022574952563 0.19 0  0.4506339552581777 0.19 0  0.4431656530210671 0.19 0  0.4356973507839815 0.19 0  0.4282290485468779 0.19 0  0.4207607463097617 0.19 0  0.4132924440726327 0.19 0  0.4058241418354857 0.19 0  0.3983558395983636 0.19 0  0.3908875373612097 0.19 0  0.3834192351240934 0.19 0  0.3759509328869369 0.19 0  0.3684826306498175 0.19 0  0.361014328412667 0.19 0  0.3535460261755617 0.19 0  0.3460777239384295 0.19 0  0.3386094217012945 0.19 0  0.3311411194641595 0.19 0  0.3236728172270245 0.19 0  0.3162045149898895 0.19 0  0.3087362127527544 0.19 0  0.3012679105156187 0.19 0  0.2937996082784807 0.19 0  0.2863313060413428 0.19 0  0.2788630038042048 0.19 0  0.2713947015670686 0.19 0  0.2639263993299336 0.19 0  0.2564580970927985 0.19 0  0.2607803159922026 0.2000727136295815 0  0.5887803774232762 0.2001272386983733 0  0.5745072403740523 0.2002044435018727 0  0.5511891430099709 0.2001122610077113 0  0.2751288526855082 0.20000000000002 0  0.5365194309847112 0.1999999999999436 0  0.2894621222999649 0.1998691686390484 0  0.5215828265105155 0.1999999999999228 0  0.3127789816668748 0.1998657885438805 0  0.3274069683451451 0.2000000000000796 0  0.5066462220363641 0.199999999999908 0  0.3650630746574081 0.199866017807523 0  0.476773013087985 0.1999999999998713 0  0.3417402379596385 0.1998691686391011 0  0.3796850840047755 0.200000000000134 0  0.4618364086138087 0.1999999999998546 0  0.4917096175621762 0.1999999999998808 0  0.3946216884789568 0.2000000000001512 0  0.446899804139621 0.1999999999998389 0  0.4089549580935208 0.1998691686391595 0  0.4322718174608562 0.200127451265745 0  0.4201487168029707 0.1999966199048527 0  0.3528922713220932 0.2000185703532356 0  0.5633122436674589 0.1999814296467508 0  0.3006558810093873 0.1999966199048318 0  0.5815926498168407 0.1966545283159175 0  0.2677053789419034 0.1964246479135325 0  0.5290511287476175 0.1970915826863981 0  0.5439877332217911 0.197091582686394 0  0.2825131256993216 0.2035478995978015 0  0.3199386661080599 0.202908417313604 0  0.4842413153250809 0.1970915826863873 0  0.5141145242734466 0.1970915826863843 0  0.3722167817676917 0.2029084173136195 0  0.4693047108508938 0.1970915826863783 0  0.3348752705822316 0.202908417313609 0  0.3871533862418661 0.2029084173136212 0  0.4543681063767183 0.1970915826863795 0  0.4991779197992749 0.1970915826863902 0  0.4020059614928624 0.203547899597858 0  0.4394315019025246 0.1970915826863714 0  0.2550657455369551 0.2034088125358657 0  0.2548908499171161 0.1966940311614271 0  0.5946539510196798 0.2024302972968126 0  0.267698176732111 0.2039977513680092 0  0.4261685417851465 0.196409292431739 0  0.3590076176283495 0.196411355804271 0  0.5571672426447437 0.2036011176410121 0  0.3066757059912147 0.1964092924317024 0  0.594380730180568 0.1966558399668133 0  0.4842413153245942 0.2040749161535287 0  0.4693047108503577 0.2040749161535231 0  0.3871533862424271 0.1959250838464788 0  0.372246743208829 0.1959123236376545 0  0.5141145242731028 0.2040749161535395 0  0.4543681063761134 0.2040749161535186 0  0.4019979587101454 0.1959834479682427 0  0.4394608940728603 0.2040870543693135 0  0.5439623148931173 0.2040856076781014 0  0.5290511287473298 0.2040749161535501 0  0.4991779197988497 0.2040749161535382 0  0.3347912413592433 0.1959225448935183 0  0.3199680582793816 0.1959123018030061 0  0.2825051229162361 0.1959834479681729 0  0.3590471196690275 0.2036304442587945 0  0.5571594006495384 0.1963685282145804 0  0.3067669986803285 0.203627750582736 0  0.4262598344738712 0.2036568242185335 0  0.5814408164431408 0.2041285596160068 0  0.5688286748170428 0.1961819304477386 0  0.4145905603063645 0.2038180695522843 0  0.3473758401724931 0.2038180695522752 0  0.2950977245128307 0.2038180695522663 0  0.5688286748170693 0.203818069552238 0  0.2950977245127906 0.1961819304477774 0  0.3473758401723931 0.1961819304478349 0  0.4145905603061963 0.1961819304479011 0  0.2601812407614425 0.2056861609747042
[...]
<PointData  Vectors="f_40-0"> 
<DataArray  type="Float64"  Name="f_40-0"  NumberOfComponents="3" format="ascii">0.0000000000000000e+00 0.0000000000000000e+00 0.0000000000000000e+00  0.0000000000000000e+00 0.0000000000000000e+00 0.0000000000000000e+00  0.0000000000000000e+00 0.0000000000000000e+00 0.0000000000000000e+00  0.0000000000000000e+00 0.0000000000000000e+00 0.0000000000000000e+00  -1.4063496497457589e-05 -2.3912276136356118e-04 0.0000000000000000e+00  5.0070156806254091e-06 -2.4516020955797830e-04 0.0000000000000000e+00  0.0000000000000000e+00 0.0000000000000000e+00 0.0000000000000000e+00  0.0000000000000000e+00 0.0000000000000000e+00 0.0000000000000000e+00  0.0000000000000000e+00 0.0000000000000000e+00 0.0000000000000000e+00  0.0000000000000000e+00 0.0000000000000000e+00 0.0000000000000000e+00  -5.0871276170685873e-06 -2.4214576769096465e-04 0.0000000000000000e+00  3.5877838604729005e-02 0.0000000000000000e+00 0.0000000000000000e+00  6.6236009731811790e-02 0.0000000000000000e+00 0.0000000000000000e+00  9.1074513381241229e-02 0.0000000000000000e+00 0.0000000000000000e+00  1.1039334955304607e-01 0.0000000000000000e+00 0.0000000000000000e+00  1.2419251824722384e-01 0.0000000000000000e+00 0.0000000000000000e+00  1.3247201946377363e-01 0.0000000000000000e+00 0.0000000000000000e+00  1.3523185320268727e-01 0.0000000000000000e+00 0.0000000000000000e+00  1.3247201946394105e-01 0.0000000000000000e+00 0.0000000000000000e+00  1.2419251824751135e-01 0.0000000000000000e+00 0.0000000000000000e+00  1.1039334955340216e-01 0.0000000000000000e+00 0.0000000000000000e+00  9.1074513381579500e-02 0.0000000000000000e+00 0.0000000000000000e+00  6.6236009732100448e-02 0.0000000000000000e+00 0.0000000000000000e+00  3.5877838604891660e-02 0.0000000000000000e+00 0.0000000000000000e+00  0.0000000000000000e+00 0.0000000000000000e+00 0.0000000000000000e+00  0.0000000000000000e+00 0.0000000000000000e+00 0.0000000000000000e+00  0.0000000000000000e+00 0.0000000000000000e+00 0.0000000000000000e+00  0.0000000000000000e+00 0.0000000000000000e+00 0.0000000000000000e+00  0.0000000000000000e+00 0.0000000000000000e+00 0.0000000000000000e+00  0.0000000000000000e+00 0.0000000000000000e+00 0.0000000000000000e+00  0.0000000000000000e+00 0.0000000000000000e+00 0.0000000000000000e+00  0.0000000000000000e+00 0.0000000000000000e+00 0.0000000000000000e+00  0.0000000000000000e+00 0.0000000000000000e+00 0.0000000000000000e+00  0.0000000000000000e+00 0.0000000000000000e+00 0.0000000000000000e+00  0.0000000000000000e+00 0.0000000000000000e+00 0.0000000000000000e+00  0.0000000000000000e+00 0.0000000000000000e+00 0.0000000000000000e+00  0.0000000000000000e+00 0.0000000000000000e+00 0.0000000000000000e+00  0.0000000000000000e+00 0.0000000000000000e+00 0.0000000000000000e+00  0.0000000000000000e+00 0.0000000000000000e+00 0.0000000000000000e+00  0.0000000000000000e+00 0.0000000000000000e+00 0.0000000000000000e+00  0.0000000000000000e+00 0.0000000000000000e+00 0.0000000000000000e+00  0.0000000000000000e+00 0.0000000000000000e+00 0.0000000000000000e+00  0.0000000000000000e+00 0.0000000000000000e+00 0.0000000000000000e+00  0.0000000000000000e+00 0.0000000000000000e+00 0.0000000000000000e+00  0.0000000000000000e+00 0.0000000000000000e+00 0.0000000000000000e+00  0.0000000000000000e+00 0.0000000000000000e+00 0.0000000000000000e+00  0.0000000000000000e+00 0.0000000000000000e+00 0.0000000000000000e+00  0.0000000000000000e+00 0.0000000000000000e+00 0.0000000000000000e+00  0.0000000000000000e+00 0.0000000000000000e+00 0.0000000000000000e+00  0.0000000000000000e+00 0.0000000000000000e+00 0.0000000000000000e+00  0.0000000000000000e+00 0.0000000000000000e+00 0.0000000000000000e+00  0.0000000000000000e+00 0.0000000000000000e+00 0.0000000000000000e+00  0.0000000000000000e+00 0.0000000000000000e+00 0.0000000000000000e+00  0.0000000000000000e+00 0.0000000000000000e+00 0.0000000000000000e+00  0.0000000000000000e+00 0.0000000000000000e+00 0.0000000000000000e+00  0.0000000000000000e+00 0.0000000000000000e+00 0.0000000000000000e+00  0.0000000000000000e+00 0.0000000000000000e+00 0.0000000000000000e+00  0.0000000000000000e+00 0.0000000000000000e+00 0.0000000000000000e+00  0.0000000000000000e+00 0.0000000000000000e+00 0.0000000000000000e+00  0.0000000000000000e+00 0.0000000000000000e+00 0.0000000000000000e+00  0.0000000000000000e+00 0.0000000000000000e+00 0.0000000000000000e+00  0.0000000000000000e+00 0.0000000000000000e+00 0.0000000000000000e+00  1.2897408930359730e-01 5.5394341852744115e-03 0.0000000000000000e+00  9.1345752364183005e-02 -1.1357713317123781e-03 0.0000000000000000e+00  1.3021959602223981e-01 -5.8532316626936347e-03 0.0000000000000000e+00  0.0000000000000000e+00 0.0000000000000000e+00 0.0000000000000000e+00  0.0000000000000000e+00 0.0000000000000000e+00 0.0000000000000000e+00  0.0000000000000000e+00 0.0000000000000000e+00 0.0000000000000000e+00  0.0000000000000000e+00 0.0000000000000000e+00 0.0000000000000000e+00  0.0000000000000000e+00 0.0000000000000000e+00 0.0000000000000000e+00  0.0000000000000000e+00 0.0000000000000000e+00 0.0000000000000000e+00  0.0000000000000000e+00 0.0000000000000000e+00 0.0000000000000000e+00  0.0000000000000000e+00 0.0000000000000000e+00 0.0000000000000000e+00  0.0000000000000000e+00 0.0000000000000000e+00 0.0000000000000000e+00  0.0000000000000000e+00 0.0000000000000000e+00 0.0000000000000000e+00  0.0000000000000000e+00 0.0000000000000000e+00 0.0000000000000000e+00  0.0000000000000000e+00 0.0000000000000000e+00 0.0000000000000000e+00  0.0000000000000000e+00 0.0000000000000000e+00 0.0000000000000000e+00  0.0000000000000000e+00 0.0000000000000000e+00 0.0000000000000000e+00  0.0000000000000000e+00 0.0000000000000000e+00 0.0000000000000000e+00  0.0000000000000000e+00 0.0000000000000000e+00 0.0000000000000000e+00  0.0000000000000000e+00 0.0000000000000000e+00 0.0000000000000000e+00  0.0000000000000000e+00 0.0000000000000000e+00 0.0000000000000000e+00  0.0000000000000000e+00 0.0000000000000000e+00 0.0000000000000000e+00  0.0000000000000000e+00 0.0000000000000000e+00 0.0000000000000000e+00  0.0000000000000000e+00 0.0000000000000000e+00 0.0000000000000000e+00  0.0000000000000000e+00 0.0000000000000000e+00 0.0000000000000000e+00  0.0000000000000000e+00 0.0000000000000000e+00 0.0000000000000000e+00  0.0000000000000000e+00 0.0000000000000000e+00 0.0000000000000000e+00  0.0000000000000000e+00 0.0000000000000000e+00 0.0000000000000000e+00  0.0000000000000000e+00 0.0000000000000000e+00 0.0000000000000000e+00  0.0000000000000000e+00 0.0000000000000000e+00 0.0000000000000000e+00  0.0000000000000000e+00 0.0000000000000000e+00 0.0000000000000000e+00  0.0000000000000000e+00 0.0000000000000000e+00 0.0000000000000000e+00  0.0000000000000000e+00 0.0000000000000000e+00 0.0000000000000000e+00  0.0000000000000000e+00 0.0000000000000000e+00 0.0000000000000000e+00  0.0000000000000000e+00 0.0000000000000000e+00 0.0000000000000000e+00  0.0000000000000000e+00 0.0000000000000000e+00 0.0000000000000000e+00  0.0000000000000000e+00 0.0000000000000000e+00 0.0000000000000000e+00  0.0000000000000000e+00 0.0000000000000000e+00 0.0000000000000000e+00  0.0000000000000000e+00 0.0000000000000000e+00 0.0000000000000000e+00  0.0000000000000000e+00 0.0000000000000000e+00 0.0000000000000000e+00  0.0000000000000000e+00 0.0000000000000000e+00 0.0000000000000000e+00  0.0000000000000000e+00 0.0000000000000000e+00 0.0000000000000000e+00  0.0000000000000000e+00 0.0000000000000000e+00 0.0000000000000000e+00  0.0000000000000000e+00 0.0000000000000000e+00 0.0000000000000000e+00  0.0000000000000000e+00 0.0000000000000000e+00 0.0000000000000000e+00  0.0000000000000000e+00 0.0000000000000000e+00 0.0000000000000000e+00  0.0000000000000000e+00 0.0000000000000000e+00 0.0000000000000000e+00  0.0000000000000000e+00 0.0000000000000000e+00 0.0000000000000000e+00  0.0000000000000000e+00 0.0000000000000000e+00 0.0000000000000000e+00  0.0000000000000000e+00 0.0000000000000000e+00 0.0000000000000000e+00  0.0000000000000000e+00 0.0000000000000000e+00 0.0000000000000000e+00  0.0000000000000000e+00 0.0000000000000000e+00 0.0000000000000000e+00  0.0000000000000000e+00 0.0000000000000000e+00 0.0000000000000000e+00  0.0000000000000000e+00 0.0000000000000000e+00 0.0000000000000000e+00  0.0000000000000000e+00 0.0000000000000000e+00 0.0000000000000000e+00  0.0000000000000000e+00 0.0000000000000000e+00 0.0000000000000000e+00  0.0000000000000000e+00 0.0000000000000000e+00 0.0000000000000000e+00  0.0000000000000000e+00 0.0000000000000000e+00 0.0000000000000000e+00  0.0000000000000000e+00 0.0000000000000000e+00 0.0000000000000000e+00  0.0000000000000000e+00 0.0000000000000000e+00 0.0000000000000000e+00  0.0000000000000000e+00 0.0000000000000000e+00 0.0000000000000000e+00  0.0000000000000000e+00 0.0000000000000000e+00 0.0000000000000000e+00  0.0000000000000000e+00 0.0000000000000000e+00 0.0000000000000000e+00  0.0000000000000000e+00 0.0000000000000000e+00 0.0000000000000000e+00  0.0000000000000000e+00 0.0000000000000000e+00 0.0000000000000000e+00  0.0000000000000000e+00 0.0000000000000000e+00 0.0000000000000000e+00  0.0000000000000000e+00 0.0000000000000000e+00 0.0000000000000000e+00  0.0000000000000000e+00 0.0000000000000000e+00 0.0000000000000000e+00  0.0000000000000000e+00 0.0000000000000000e+00 0.0000000000000000e+00  0.0000000000000000e+00 0.0000000000000000e+00 0.0000000000000000e+00  0.0000000000000000e+00 0.0000000000000000e+00 0.0000000000000000e+00  0.0000000000000000e+00 0.0000000000000000e+00 0.0000000000000000e+00  0.0000000000000000e+00 0.0000000000000000e+00 0.0000000000000000e+00  0.0000000000000000e+00 0.0000000000000000e+00 0.0000000000000000e+00  0.0000000000000000e+00 0.0000000000000000e+00 0.0000000000000000e+00  0.0000000000000000e+00 0.0000000000000000e+00 0.0000000000000000e+00  0.0000000000000000e+00 0.0000000000000000e+00 0.0000000000000000e+00  0.0000000000000000e+00 0.0000000000000000e+00 0.0000000000000000e+00  0.0000000000000000e+00 0.0000000000000000e+00 0.0000000000000000e+00  0.0000000000000000e+00 0.0000000000000000e+00 0.0000000000000000e+00  0.0000000000000000e+00 0.0000000000000000e+00 0.0000000000000000e+00  9.3368054545256038e-07 -5.8870712250590975e-06 0.0000000000000000e+00  2.1259671570576629e-06 -6.8623485097493785e-06 0.0000000000000000e+00  3.5496375730357220e-06 -7.8842580637886945e-06 0.0000000000000000e+00  5.1379991398881819e-06 -9.1192694866496164e-06 0.0000000000000000e+00  6.6612044308793473e-06 -1.0674150473305743e-05 0.0000000000000000e+00  8.1880554018972306e-06 -1.2644059055086013e-05 0.0000000000000000e+00  9.5747153096529527e-06 -1.4875954741946318e-05 0.0000000000000000e+00  1.0882523765804315e-05 -1.7467247603091026e-05 0.0000000000000000e+00  1.2208653811797182e-05 -2.0336527176037687e-05 0.0000000000000000e+00  1.3356020538681050e-05 -2.3472948250890849e-05 0.0000000000000000e+00  1.4526316004810025e-05 -2.6921725187042522e-05 0.0000000000000000e+00  1.5525488159638883e-05 -3.0597382168578500e-05 0.0000000000000000e+00  1.6515852415593854e-05 -3.4542358145155347e-05 0.0000000000000000e+00  1.7377979415013474e-05 -3.8695972294789760e-05 0.0000000000000000e+00  1.8157529390830963e-05 -4.3091312038719216e-05 0.0000000000000000e+00  1.8930219784029446e-05 -4.7696104494490181e-05 0.0000000000000000e+00  1.9549993560416522e-05 -5.2465338029396818e-05 0.0000000000000000e+00  2.0157619624646399e-05 -5.7470251790922195e-05 0.0000000000000000e+00  2.0624744666972445e-05 -6.2601816054563299e-05 0.0000000000000000e+00  2.1073827796637020e-05 -6.7939924428846705e-05 0.0000000000000000e+00  2.1402395052419691e-05 -7.3392642065851432e-05 0.0000000000000000e+00  2.1680599238512637e-05 -7.9022706674324340e-05 0.0000000000000000e+00  2.1866845960861184e-05 -8.4768531590909122e-05 0.0000000000000000e+00  2.1972829547019888e-05 -9.0648191156326259e-05 0.0000000000000000e+00  2.2047961572720748e-05 -9.6651682642255718e-05 0.0000000000000000e+00  2.2017033072327611e-05 -1.0273816586280277e-04 0.0000000000000000e+00  2.1917306000318461e-05 -1.0897770934646881e-04 0.0000000000000000e+00  2.1739464875564634e-05 -1.1526174859191204e-04 0.0000000000000000e+00  2.1492381389348915e-05 -1.2167801453571554e-04 0.0000000000000000e+00  2.1168019288728917e-05 -1.2813425828944115e-04 0.0000000000000000e+00  2.0777287853784060e-05 -1.3470192941952079e-04 0.0000000000000000e+00  2.0305905093229981e-05 -1.4129476081437247e-04 0.0000000000000000e+00  1.9773016014758593e-05 -1.4798929304577581e-04 0.0000000000000000e+00  1.9157833401200647e-05 -1.5468924110743871e-04 0.0000000000000000e+00  1.8471117974702429e-05 -1.6148776511874219e-04 0.0000000000000000e+00  1.7712332944054423e-05 -1.6828335494442119e-04 0.0000000000000000e+00  1.6886449219004159e-05 -1.7515712979793916e-04 0.0000000000000000e+00  1.5986592293991209e-05 -1.8202190551610409e-04 0.0000000000000000e+00  1.5016122386443717e-05 -1.8895429060625013e-04 0.0000000000000000e+00  1.3968097329937804e-05 -1.9587195250465436e-04 0.0000000000000000e+00  1.2844153898317875e-05 -2.0283430721189765e-04 0.0000000000000000e+00  1.1657619026901997e-05 -2.0979443745902646e-04 0.0000000000000000e+00  1.0388837505224256e-05 -2.1677896402626880e-04 0.0000000000000000e+00  9.0787614420164391e-06 -2.2376477363036823e-04 0.0000000000000000e+00  7.6852871196969331e-06 -2.3073359170952009e-04 0.0000000000000000e+00  6.2797749191331237e-06 -2.3778050586076695e-04 0.0000000000000000e+00  -2.3217891289646974e-07 -2.4363620356011398e-04 0.0000000000000000e+00  -9.7355166835741764e-06 -2.4065659035866794e-04 0.0000000000000000e+00  -1.2749016762083749e-05 -2.3229207444798892e-04 0.0000000000000000e+00  -1.1310864877714620e-05 -2.2512371415984710e-04 0.0000000000000000e+00  -9.8847083304767846e-06 -2.1791979111177116e-04 0.0000000000000000e+00  -8.5348590599515179e-06 -2.1075498871969494e-04 0.0000000000000000e+00  -7.2282536965623236e-06 -2.0360343939430521e-04 0.0000000000000000e+00  -6.0029212702966886e-06 -1.9647001239128710e-04 0.0000000000000000e+00  -4.8235480741126369e-06 -1.8936004437537839e-04 0.0000000000000000e+00  -3.7229978539781205e-06 -1.8225228361860393e-04 0.0000000000000000e+00  -2.6736537598886379e-06 -1.7520189171417230e-04 0.0000000000000000e+00  -1.6959180839352065e-06 -1.6814292320622813e-04 0.0000000000000000e+00  -7.6623784686321321e-07 -1.6115216730251360e-04 0.0000000000000000e+00  9.0945151678609634e-08 -1.5416331228153987e-04 0.0000000000000000e+00  9.0525697169512470e-07 -1.4725299803745759e-04 0.0000000000000000e+00  1.6464532199288627e-06 -1.4035596890730171e-04 0.0000000000000000e+00  2.3499573403644378e-06 -1.3354923981341268e-04 0.0000000000000000e+00  2.9771453601720477e-06 -1.2676758658225200e-04 0.0000000000000000e+00  3.5724326492723682e-06 -1.2008529604168482e-04 0.0000000000000000e+00  4.0866229426179778e-06 -1.1344029973119017e-04 0.0000000000000000e+00  4.5741319397968673e-06 -1.0691209209617876e-04 0.0000000000000000e+00  4.9787447026974673e-06 -1.0043795832520663e-04 0.0000000000000000e+00  5.3645016260681927e-06 -9.4094225884973660e-05 0.0000000000000000e+00  5.6617828031236373e-06 -8.7821449781376760e-05 0.0000000000000000e+00  5.9346421114543839e-06 -8.1681452519817156e-05 0.0000000000000000e+00  6.1367802767968440e-06 -7.5644456355739259e-05 0.0000000000000000e+00  6.2729656487034683e-06 -6.9754003818086360e-05 0.0000000000000000e+00  6.4093311079245594e-06 -6.3984095381088420e-05 0.0000000000000000e+00  6.4588470135930892e-06 -5.8350935707268791e-05 0.0000000000000000e+00  6.4780020921342531e-06 -5.2905472631290539e-05 0.0000000000000000e+00  6.4288720987020461e-06 -4.7585787504664174e-05 0.0000000000000000e+00  6.3473122450378357e-06 -4.2479972508756750e-05 0.0000000000000000e+00  6.1987027637668981e-06 -3.7514693421637073e-05 0.0000000000000000e+00  6.0340485691394577e-06 -3.2800400219558812e-05 0.0000000000000000e+00  5.7897508080696281e-06 -2.8244406210842824e-05 0.0000000000000000e+00  5.4870250972568509e-06 -2.3958170058357373e-05 0.0000000000000000e+00  5.2085074233519148e-06 -1.9856395774898647e-05 0.0000000000000000e+00  4.8391508294900234e-06 -1.6020437192567656e-05 0.0000000000000000e+00  4.4509199275642561e-06 -1.2465974079070800e-05 0.0000000000000000e+00  3.9920964759750928e-06 -9.1533896196666421e-06 0.0000000000000000e+00  3.5391439458961445e-06 -6.1759536958254481e-06 0.0000000000000000e+00  2.9899081561772309e-06 -3.4459585044869105e-06 0.0000000000000000e+00  2.3852177650457258e-06 -1.0833980955254366e-06 0.0000000000000000e+00  1.8370645244012573e-06 1.0045138764208577e-06 0.0000000000000000e+00  1.1831198994487111e-06 2.7704724054091171e-06 0.0000000000000000e+00  6.3304037229581994e-07 4.1527945420696415e-06 0.0000000000000000e+00  1.3267515034993679e-07 4.9893605611951153e-06 0.0000000000000000e+00  -1.6316496927962420e-08 5.1168381386752597e-06 0.0000000000000000e+00  -2.2014756894661492e-07 -4.2359617990874879e-07 0.0000000000000000e+00  -2.5924046249919406e-06 -2.3149027744354269e-04 0.0000000000000000e+00  2.8926686095792702e-07 -2.1796422986014629e-04 0.0000000000000000e+00  4.0936914479189065e-06 -1.9590316546481973e-04 0.0000000000000000e+00  2.5598776501467513e-06 -2.2411482486130741e-06 0.0000000000000000e+00  6.0886705352609245e-06 -1.8208616380945250e-04 0.0000000000000000e+00  4.6257447531542435e-06 -5.3385473549210961e-06 0.0000000000000000e+00  7.9731042658307696e-06 -1.6815590694084390e-04 0.0000000000000000e+00  7.5939761687834356e-06 -1.3097602909172426e-05 0.0000000000000000e+00  9.2379134566723440e-06 -1.9514165233876538e-05 0.0000000000000000e+00  9.5953157475012909e-06 -1.5436383793192648e-04 0.0000000000000000e+00  1.2218732952885006e-05 -4.0242707541258816e-05 0.0000000000000000e+00  1.2063180303757662e-05 -1.2736722972196967e-04 0.0000000000000000e+00  1.0522907176340289e-05 -2.6647926847216246e-05 0.0000000000000000e+00  1.3062983425290110e-05 -4.9860267861642962e-05 0.0000000000000000e+00  1.2913163146551746e-05 -1.1425836084445425e-04 0.0000000000000000e+00  1.0958145277079613e-05 -1.4075171965868502e-04 0.0000000000000000e+00  1.3603159650206182e-05 -6.0322820737009411e-05 0.0000000000000000e+00  1.3508176595980998e-05 -1.0148597112659344e-04 0.0000000000000000e+00  1.3792940888823101e-05 -7.0901264095116806e-05 0.0000000000000000e+00  1.3957030891955369e-05 -8.9416994000690364e-05 0.0000000000000000e+00  1.3923034789153407e-05 -7.9660252354597972e-05 0.0000000000000000e+00  1.1470847146478648e-05 -3.2993300700831803e-05 0.0000000000000000e+00  2.0037058235698804e-06 -2.0730415288388503e-04 0.0000000000000000e+00  6.1339384607309954e-06 -8.8063419271855655e-06 0.0000000000000000e+00  -4.4257033663417138e-06 -2.2368375389347214e-04 0.0000000000000000e+00  8.3845199488508784e-07 1.0941682683704796e-06 0.0000000000000000e+00  4.3568056651091208e-06 -1.7410348870721223e-04 0.0000000000000000e+00  2.3207774790594706e-06 -1.8813272775145519e-04 0.0000000000000000e+00  4.4330285421619986e-06 -5.8415380026957837e-06 0.0000000000000000e+00  9.6997574021404628e-06 -1.7778955307970172e-05 0.0000000000000000e+00  8.9437341108471971e-06 -1.3289436618172686e-04 0.0000000000000000e+00  6.1375532066781297e-06 -1.6019303956139533e-04 0.0000000000000000e+00  1.4589545522772485e-05 -4.6373601156955214e-05 0.0000000000000000e+00  9.9764044379230175e-06 -1.1959736763582762e-04 0.0000000000000000e+00  1.1416460761187304e-05 -2.4748662636540169e-05 0.0000000000000000e+00  1.5388098029402398e-05 -5.6447922570209365e-05 0.0000000000000000e+00  1.0763960087248847e-05 -1.0660626451577424e-04 0.0000000000000000e+00  7.6650715977112789e-06 -1.4644093083333279e-04 0.0000000000000000e+00  1.6401326596232102e-05 -6.7440355684938294e-05 0.0000000000000000e+00  1.1309810801766042e-05 -9.3983355215131057e-05 0.0000000000000000e+00  -6.7780169375257712e-07 -1.4133925201580513e-06 0.0000000000000000e+00  -8.2795873558599611e-07 1.1323427508321116e-06 0.0000000000000000e+00  -1.6377458750739691e-06 -2.3771544855312791e-04 0.0000000000000000e+00  1.7993934928243210e-06 -3.6561844212492445e-06 0.00000000000