<?xml version="1.0"?>
<VTKFile type="UnstructuredGrid"  version="0.1"  >
<UnstructuredGrid>
<Piece  NumberOfPoints="1419" NumberOfCells="2698">
<Points>
<DataArray  type="Float64"  NumberOfComponents="3"  format="ascii">0 0 0  0 0.41 0  2.5 0 0  2.5 0.41 0  0.6 0.19 0  0.6 0.21 0  0.25 0.2 0  0.15 0.2 0  0.2489897948556636 0.21 0  0.2489897948556636 0.19 0  0.6 0.2 0  0 0.3807142857143437 0  0 0.3514285714286952 0  0 0.3221428571430699 0  0 0.29285714285744 0  0 0.2635714285718054 0  0 0.2342857142861561 0  0 0.2050000000005308 0  0 0.175714285714732 0  0 0.1464285714289574 0  0 0.1171428571431897 0  0 0.08785714285737878 0  0 0.05857142857161107 0  0 0.02928571428580012 0  0.03015443760436003 0 0  0.06140001986583606 0 0  0.09377624077125973 0 0  0.1273239957535082 0 0  0.1620856860351972 0 0  0.1981052433264291 0 0  0.235428184091502 0 0  0.2741016576309132 0 0  0.3141745521465447 0 0  0.3556974926295285 0 0  0.3987229542472677 0 0  0.4433053055141081 0 0  0.4895008759286886 0 0  0.5373680609405097 0 0  0.5869673343216626 0 0  0.6383613676634521 0 0  0.6916151138468254 0 0  0.7467958595648856 0 0  0.8039733463919316 0 0  0.8632198139502143 0 0  0.9246101326867038 0 0  0.9882218810934433 0 0  1.054135445558498 0 0  1.122434100542598 0 0  1.193204177141305 0 0  1.266535089879536 0 0  1.342519516046404 0 0  1.421253448503939 0 0  1.502836389106271 0 0  1.587371439758838 0 0  1.674965418777374 0 0  1.765729001825544 0 0  1.859776908880082 0 0  1.957227977487062 0 0  2.058205329869943 0 0  2.162836591189951 0 0  2.271253957290865 0 0  2.383594446803425 0 0  2.5 0.1024999999997612 0  2.5 0.2049999999994743 0  2.5 0.3074999999997183 0  2.383594446803656 0.41 0  2.271253957291315 0.41 0  2.162836591190598 0.41 0  2.058205329870775 0.41 0  1.957227977488067 0.41 0  1.859776908881246 0.41 0  1.765729001826854 0.41 0  1.674965418778818 0.41 0  1.58737143976041 0.41 0  1.502836389107956 0.41 0  1.421253448505726 0.41 0  1.342519516048286 0.41 0  1.266535089881505 0.41 0  1.193204177143353 0.41 0  1.122434100544716 0.41 0  1.05413544556068 0.41 0  0.9882218810956305 0.41 0  0.9246101326886647 0.41 0  0.8632198139519631 0.41 0  0.8039733463934788 0.41 0  0.7467958595662458 0.41 0  0.6916151138480078 0.41 0  0.6383613676644679 0.41 0  0.5869673343225223 0.41 0  0.5373680609412221 0.41 0  0.4895008759292634 0.41 0  0.4433053055145528 0.41 0  0.3987229542475914 0.41 0  0.3556974926297398 0.41 0  0.3141745521466497 0.41 0  0.2741016576310038 0.41 0  0.2354281840915826 0.41 0  0.1981052433265003 0.41 0  0.1620856860352591 0.41 0  0.1273239957535623 0.41 0  0.09377624077128965 0.41 0  0.06140001986584975 0.41 0  0.03015443760436654 0.41 0  0.2497468076502589 0.2050254481002335 0  0.2497468076502614 0.1949745518997913 0  0.2469965252529372 0.1829317073451959 0  0.2439893735792749 0.1762316384219906 0  0.2400332147834255 0.1700443375285386 0  0.2352133972704371 0.1645032867342007 0  0.2296339016332438 0.1597280261969788 0  0.2234150974217223 0.1558215752574715 0  0.2166911463437691 0.1528682099456123 0  0.2096071079204251 0.1509316448471593 0  0.2023158100364996 0.1500536585536553 0  0.194974551899914 0.1502531923497262 0  0.1877417105387872 0.1515259415822739 0  0.1807733240461124 0.153844448527136 0  0.1742197252835808 0.15715869474974 0  0.1682222986673531 0.1613971801805478 0  0.162910430003803 0.1664684656256651 0  0.1583987151779087 0.1722631454351573 0  0.1547844879126891 0.178656207771761 0  0.1521457199348551 0.1855097315605723 0  0.1505393388476355 0.1926758619366523 0  0.1505393388476328 0.2073241380633295 0  0.1521457199348437 0.2144902684393899 0  0.1547844879126531 0.221343792228163 0  0.1583987151778488 0.2277368545647528 0  0.1629104300036858 0.2335315343742052 0  0.1682222986671726 0.2386028198193036 0  0.1742197252833576 0.2428413052501257 0  0.1807733240458683 0.2461555514727623 0  0.1877417105384929 0.2484740584176516 0  0.1949745518995776 0.2497468076502398 0  0.202315810036185 0.2499463414463592 0  0.2096071079201568 0.2490683551528932 0  0.2166911463435495 0.2471317900544655 0  0.2234150974215506 0.2441784247426195 0  0.2296339016331197 0.2402719738031125 0  0.2352133972703547 0.2354967132658811 0  0.2400332147833751 0.2299556624715287 0  0.2439893735792577 0.2237683615780412 0  0.246996525252926 0.2170682926548348 0  0.25645809709277 0.21 0  0.2639263993298655 0.21 0  0.271394701566961 0.21 0  0.2788630038040554 0.21 0  0.2863313060411479 0.21 0  0.2937996082782405 0.21 0  0.301267910515333 0.21 0  0.3087362127524279 0.21 0  0.3162045149895234 0.21 0  0.3236728172265972 0.21 0  0.3311411194636928 0.21 0  0.3386094217007701 0.21 0  0.3460777239378666 0.21 0  0.3535460261749672 0.21 0  0.3610143284120516 0.21 0  0.3684826306491596 0.21 0  0.3759509328862226 0.21 0  0.383419235123329 0.21 0  0.3908875373604028 0.21 0  0.3983558395975142 0.21 0  0.4058241418345938 0.21 0  0.4132924440716992 0.21 0  0.4207607463087888 0.21 0  0.4282290485459029 0.21 0  0.4356973507830418 0.21 0  0.4431656530201649 0.21 0  0.4506339552573136 0.21 0  0.4581022574944306 0.21 0  0.4655705597315852 0.21 0  0.4730388619686996 0.21 0  0.480507164205851 0.21 0  0.4879754664429498 0.21 0  0.4954437686800938 0.21 0  0.502912070917267 0.21 0  0.5103803731544119 0.21 0  0.5178486753915261 0.21 0  0.5253169776286404 0.21 0  0.5327852798657868 0.21 0  0.5402535821029386 0.21 0  0.54772188434007 0.21 0  0.5551901865771842 0.21 0  0.5626584888143201 0.21 0  0.5701267910514778 0.21 0  0.5775950932886138 0.21 0  0.5850633955257281 0.21 0  0.5925316977628483 0.21 0  0.6 0.2050000000000054 0  0.6 0.1950000000000217 0  0.5925316977628897 0.19 0  0.5850633955257988 0.19 0  0.5775950932887378 0.19 0  0.5701267910515998 0.19 0  0.5626584888145268 0.19 0  0.5551901865773963 0.19 0  0.547721884340339 0.19 0  0.5402535821032429 0.19 0  0.5327852798661811 0.19 0  0.5253169776290537 0.19 0  0.5178486753919799 0.19 0  0.5103803731549078 0.19 0  0.502912070917822 0.19 0  0.4954437686807294 0.19 0  0.4879754664436223 0.19 0  0.4805071642065402 0.19 0  0.4730388619694271 0.19 0  0.4655705597323621 0.19 0  0.4581022574952563 0.19 0  0.4506339552581777 0.19 0  0.4431656530210671 0.19 0  0.4356973507839815 0.19 0  0.4282290485468779 0.19 0  0.4207607463097617 0.19 0  0.4132924440726327 0.19 0  0.4058241418354857 0.19 0  0.3983558395983636 0.19 0  0.3908875373612097 0.19 0  0.3834192351240934 0.19 0  0.3759509328869369 0.19 0  0.3684826306498175 0.19 0  0.361014328412667 0.19 0  0.3535460261755617 0.19 0  0.3460777239384295 0.19 0  0.3386094217012945 0.19 0  0.3311411194641595 0.19 0  0.3236728172270245 0.19 0  0.3162045149898895 0.19 0  0.3087362127527544 0.19 0  0.3012679105156187 0.19 0  0.2937996082784807 0.19 0  0.2863313060413428 0.19 0  0.2788630038042048 0.19 0  0.2713947015670686 0.19 0  0.2639263993299336 0.19 0  0.2564580970927985 0.19 0  0.2607803159922026 0.2000727136295815 0  0.5887803774232762 0.2001272386983733 0  0.5745072403740523 0.2002044435018727 0  0.5511891430099709 0.2001122610077113 0  0.2751288526855082 0.20000000000002 0  0.5365194309847112 0.1999999999999436 0  0.2894621222999649 0.1998691686390484 0  0.5215828265105155 0.1999999999999228 0  0.3127789816668748 0.1998657885438805 0  0.3274069683451451 0.2000000000000796 0  0.5066462220363641 0.199999999999908 0  0.3650630746574081 0.199866017807523 0  0.476773013087985 0.1999999999998713 0  0.3417402379596385 0.1998691686391011 0  0.3796850840047755 0.200000000000134 0  0.4618364086138087 0.1999999999998546 0  0.4917096175621762 0.1999999999998808 0  0.3946216884789568 0.2000000000001512 0  0.446899804139621 0.1999999999998389 0  0.4089549580935208 0.1998691686391595 0  0.4322718174608562 0.200127451265745 0  0.4201487168029707 0.1999966199048527 0  0.3528922713220932 0.2000185703532356 0  0.5633122436674589 0.1999814296467508 0  0.3006558810093873 0.1999966199048318 0  0.5815926498168407 0.1966545283159175 0  0.2677053789419034 0.1964246479135325 0  0.5290511287476175 0.1970915826863981 0  0.5439877332217911 0.197091582686394 0  0.2825131256993216 0.2035478995978015 0  0.3199386661080599 0.202908417313604 0  0.4842413153250809 0.1970915826863873 0  0.5141145242734466 0.1970915826863843 0  0.3722167817676917 0.2029084173136195 0  0.4693047108508938 0.1970915826863783 0  0.3348752705822316 0.202908417313609 0  0.3871533862418661 0.2029084173136212 0  0.4543681063767183 0.1970915826863795 0  0.4991779197992749 0.1970915826863902 0  0.4020059614928624 0.203547899597858 0  0.4394315019025246 0.1970915826863714 0  0.2550657455369551 0.2034088125358657 0  0.2548908499171161 0.1966940311614271 0  0.5946539510196798 0.2024302972968126 0  0.267698176732111 0.2039977513680092 0  0.4261685417851465 0.196409292431739 0  0.3590076176283495 0.196411355804271 0  0.5571672426447437 0.2036011176410121 0  0.3066757059912147 0.1964092924317024 0  0.594380730180568 0.1966558399668133 0  0.4842413153245942 0.2040749161535287 0  0.4693047108503577 0.2040749161535231 0  0.3871533862424271 0.1959250838464788 0  0.372246743208829 0.1959123236376545 0  0.5141145242731028 0.2040749161535395 0  0.4543681063761134 0.2040749161535186 0  0.4019979587101454 0.1959834479682427 0  0.4394608940728603 0.2040870543693135 0  0.5439623148931173 0.2040856076781014 0  0.5290511287473298 0.2040749161535501 0  0.4991779197988497 0.2040749161535382 0  0.3347912413592433 0.1959225448935183 0  0.3199680582793816 0.1959123018030061 0  0.2825051229162361 0.1959834479681729 0  0.3590471196690275 0.2036304442587945 0  0.5571594006495384 0.1963685282145804 0  0.3067669986803285 0.203627750582736 0  0.4262598344738712 0.2036568242185335 0  0.5814408164431408 0.2041285596160068 0  0.5688286748170428 0.1961819304477386 0  0.4145905603063645 0.2038180695522843 0  0.3473758401724931 0.2038180695522752 0  0.2950977245128307 0.2038180695522663 0  0.5688286748170693 0.203818069552238 0  0.2950977245127906 0.1961819304477774 0  0.3473758401723931 0.1961819304478349 0  0.4145905603061963 0.1961819304479011 0  0.2601812407614425 0.2056861609747042
[...]
<PointData  Vectors="f_40-0"> 
<DataArray  type="Float64"  Name="f_40-0"  NumberOfComponents="3" format="ascii">0.0000000000000000e+00 0.0000000000000000e+00 0.0000000000000000e+00  0.0000000000000000e+00 0.0000000000000000e+00 0.0000000000000000e+00  0.0000000000000000e+00 0.0000000000000000e+00 0.0000000000000000e+00  0.0000000000000000e+00 0.0000000000000000e+00 0.0000000000000000e+00  -6.9622436176917906e-06 -5.0327888801475463e-04 0.0000000000000000e+00  3.3051614689427951e-05 -5.0873289745718595e-04 0.0000000000000000e+00  0.0000000000000000e+00 0.0000000000000000e+00 0.0000000000000000e+00  0.0000000000000000e+00 0.0000000000000000e+00 0.0000000000000000e+00  0.0000000000000000e+00 0.0000000000000000e+00 0.0000000000000000e+00  0.0000000000000000e+00 0.0000000000000000e+00 0.0000000000000000e+00  1.2440514465378935e-05 -5.0600281092732006e-04 0.0000000000000000e+00  7.4795245982935105e-02 0.0000000000000000e+00 0.0000000000000000e+00  1.3808353104542781e-01 0.0000000000000000e+00 0.0000000000000000e+00  1.8986485518746329e-01 0.0000000000000000e+00 0.0000000000000000e+00  2.3013921840910143e-01 0.0000000000000000e+00 0.0000000000000000e+00  2.5890662071033710e-01 0.0000000000000000e+00 0.0000000000000000e+00  2.7616706209116848e-01 0.0000000000000000e+00 0.0000000000000000e+00  2.8192054255157839e-01 0.0000000000000000e+00 0.0000000000000000e+00  2.7616706209151748e-01 0.0000000000000000e+00 0.0000000000000000e+00  2.5890662071093651e-01 0.0000000000000000e+00 0.0000000000000000e+00  2.3013921840984378e-01 0.0000000000000000e+00 0.0000000000000000e+00  1.8986485518816848e-01 0.0000000000000000e+00 0.0000000000000000e+00  1.3808353104602961e-01 0.0000000000000000e+00 0.0000000000000000e+00  7.4795245983274181e-02 0.0000000000000000e+00 0.0000000000000000e+00  0.0000000000000000e+00 0.0000000000000000e+00 0.0000000000000000e+00  0.0000000000000000e+00 0.0000000000000000e+00 0.0000000000000000e+00  0.0000000000000000e+00 0.0000000000000000e+00 0.0000000000000000e+00  0.0000000000000000e+00 0.0000000000000000e+00 0.0000000000000000e+00  0.0000000000000000e+00 0.0000000000000000e+00 0.0000000000000000e+00  0.0000000000000000e+00 0.0000000000000000e+00 0.0000000000000000e+00  0.0000000000000000e+00 0.0000000000000000e+00 0.0000000000000000e+00  0.0000000000000000e+00 0.0000000000000000e+00 0.0000000000000000e+00  0.0000000000000000e+00 0.0000000000000000e+00 0.0000000000000000e+00  0.0000000000000000e+00 0.0000000000000000e+00 0.0000000000000000e+00  0.0000000000000000e+00 0.0000000000000000e+00 0.0000000000000000e+00  0.0000000000000000e+00 0.0000000000000000e+00 0.0000000000000000e+00  0.0000000000000000e+00 0.0000000000000000e+00 0.0000000000000000e+00  0.0000000000000000e+00 0.0000000000000000e+00 0.0000000000000000e+00  0.0000000000000000e+00 0.0000000000000000e+00 0.0000000000000000e+00  0.0000000000000000e+00 0.0000000000000000e+00 0.0000000000000000e+00  0.0000000000000000e+00 0.0000000000000000e+00 0.0000000000000000e+00  0.0000000000000000e+00 0.0000000000000000e+00 0.0000000000000000e+00  0.0000000000000000e+00 0.0000000000000000e+00 0.0000000000000000e+00  0.0000000000000000e+00 0.0000000000000000e+00 0.0000000000000000e+00  0.0000000000000000e+00 0.0000000000000000e+00 0.0000000000000000e+00  0.0000000000000000e+00 0.0000000000000000e+00 0.0000000000000000e+00  0.0000000000000000e+00 0.0000000000000000e+00 0.0000000000000000e+00  0.0000000000000000e+00 0.0000000000000000e+00 0.0000000000000000e+00  0.0000000000000000e+00 0.0000000000000000e+00 0.0000000000000000e+00  0.0000000000000000e+00 0.0000000000000000e+00 0.0000000000000000e+00  0.0000000000000000e+00 0.0000000000000000e+00 0.0000000000000000e+00  0.0000000000000000e+00 0.0000000000000000e+00 0.0000000000000000e+00  0.0000000000000000e+00 0.0000000000000000e+00 0.0000000000000000e+00  0.0000000000000000e+00 0.0000000000000000e+00 0.0000000000000000e+00  0.0000000000000000e+00 0.0000000000000000e+00 0.0000000000000000e+00  0.0000000000000000e+00 0.0000000000000000e+00 0.0000000000000000e+00  0.0000000000000000e+00 0.0000000000000000e+00 0.0000000000000000e+00  0.0000000000000000e+00 0.0000000000000000e+00 0.0000000000000000e+00  0.0000000000000000e+00 0.0000000000000000e+00 0.0000000000000000e+00  0.0000000000000000e+00 0.0000000000000000e+00 0.0000000000000000e+00  0.0000000000000000e+00 0.0000000000000000e+00 0.0000000000000000e+00  0.0000000000000000e+00 0.0000000000000000e+00 0.0000000000000000e+00  2.6954091417462045e-01 1.0332931360844436e-02 0.0000000000000000e+00  1.8982199589330753e-01 -2.2045099045898435e-03 0.0000000000000000e+00  2.7139575051214537e-01 -9.0833690676533456e-03 0.0000000000000000e+00  0.0000000000000000e+00 0.0000000000000000e+00 0.0000000000000000e+00  0.0000000000000000e+00 0.0000000000000000e+00 0.0000000000000000e+00  0.0000000000000000e+00 0.0000000000000000e+00 0.0000000000000000e+00  0.0000000000000000e+00 0.0000000000000000e+00 0.0000000000000000e+00  0.0000000000000000e+00 0.0000000000000000e+00 0.0000000000000000e+00  0.0000000000000000e+00 0.0000000000000000e+00 0.0000000000000000e+00  0.0000000000000000e+00 0.0000000000000000e+00 0.0000000000000000e+00  0.0000000000000000e+00 0.0000000000000000e+00 0.0000000000000000e+00  0.0000000000000000e+00 0.0000000000000000e+00 0.0000000000000000e+00  0.0000000000000000e+00 0.0000000000000000e+00 0.0000000000000000e+00  0.0000000000000000e+00 0.0000000000000000e+00 0.0000000000000000e+00  0.0000000000000000e+00 0.0000000000000000e+00 0.0000000000000000e+00  0.0000000000000000e+00 0.0000000000000000e+00 0.0000000000000000e+00  0.0000000000000000e+00 0.0000000000000000e+00 0.0000000000000000e+00  0.0000000000000000e+00 0.0000000000000000e+00 0.0000000000000000e+00  0.0000000000000000e+00 0.0000000000000000e+00 0.0000000000000000e+00  0.0000000000000000e+00 0.0000000000000000e+00 0.0000000000000000e+00  0.0000000000000000e+00 0.0000000000000000e+00 0.0000000000000000e+00  0.0000000000000000e+00 0.0000000000000000e+00 0.0000000000000000e+00  0.0000000000000000e+00 0.0000000000000000e+00 0.0000000000000000e+00  0.0000000000000000e+00 0.0000000000000000e+00 0.0000000000000000e+00  0.0000000000000000e+00 0.0000000000000000e+00 0.0000000000000000e+00  0.0000000000000000e+00 0.0000000000000000e+00 0.0000000000000000e+00  0.0000000000000000e+00 0.0000000000000000e+00 0.0000000000000000e+00  0.0000000000000000e+00 0.0000000000000000e+00 0.0000000000000000e+00  0.0000000000000000e+00 0.0000000000000000e+00 0.0000000000000000e+00  0.0000000000000000e+00 0.0000000000000000e+00 0.0000000000000000e+00  0.0000000000000000e+00 0.0000000000000000e+00 0.0000000000000000e+00  0.0000000000000000e+00 0.0000000000000000e+00 0.0000000000000000e+00  0.0000000000000000e+00 0.0000000000000000e+00 0.0000000000000000e+00  0.0000000000000000e+00 0.0000000000000000e+00 0.0000000000000000e+00  0.0000000000000000e+00 0.0000000000000000e+00 0.0000000000000000e+00  0.0000000000000000e+00 0.0000000000000000e+00 0.0000000000000000e+00  0.0000000000000000e+00 0.0000000000000000e+00 0.0000000000000000e+00  0.0000000000000000e+00 0.0000000000000000e+00 0.0000000000000000e+00  0.0000000000000000e+00 0.0000000000000000e+00 0.0000000000000000e+00  0.0000000000000000e+00 0.0000000000000000e+00 0.0000000000000000e+00  0.0000000000000000e+00 0.0000000000000000e+00 0.0000000000000000e+00  0.0000000000000000e+00 0.0000000000000000e+00 0.0000000000000000e+00  0.0000000000000000e+00 0.0000000000000000e+00 0.0000000000000000e+00  0.0000000000000000e+00 0.0000000000000000e+00 0.0000000000000000e+00  0.0000000000000000e+00 0.0000000000000000e+00 0.0000000000000000e+00  0.0000000000000000e+00 0.0000000000000000e+00 0.0000000000000000e+00  0.0000000000000000e+00 0.0000000000000000e+00 0.0000000000000000e+00  0.0000000000000000e+00 0.0000000000000000e+00 0.0000000000000000e+00  0.0000000000000000e+00 0.0000000000000000e+00 0.0000000000000000e+00  0.0000000000000000e+00 0.0000000000000000e+00 0.0000000000000000e+00  0.0000000000000000e+00 0.0000000000000000e+00 0.0000000000000000e+00  0.0000000000000000e+00 0.0000000000000000e+00 0.0000000000000000e+00  0.0000000000000000e+00 0.0000000000000000e+00 0.0000000000000000e+00  0.0000000000000000e+00 0.0000000000000000e+00 0.0000000000000000e+00  0.0000000000000000e+00 0.0000000000000000e+00 0.0000000000000000e+00  0.0000000000000000e+00 0.0000000000000000e+00 0.0000000000000000e+00  0.0000000000000000e+00 0.0000000000000000e+00 0.0000000000000000e+00  0.0000000000000000e+00 0.0000000000000000e+00 0.0000000000000000e+00  0.0000000000000000e+00 0.0000000000000000e+00 0.0000000000000000e+00  0.0000000000000000e+00 0.0000000000000000e+00 0.0000000000000000e+00  0.0000000000000000e+00 0.0000000000000000e+00 0.0000000000000000e+00  0.0000000000000000e+00 0.0000000000000000e+00 0.0000000000000000e+00  0.0000000000000000e+00 0.0000000000000000e+00 0.0000000000000000e+00  0.0000000000000000e+00 0.0000000000000000e+00 0.0000000000000000e+00  0.0000000000000000e+00 0.0000000000000000e+00 0.0000000000000000e+00  0.0000000000000000e+00 0.0000000000000000e+00 0.0000000000000000e+00  0.0000000000000000e+00 0.0000000000000000e+00 0.0000000000000000e+00  0.0000000000000000e+00 0.0000000000000000e+00 0.0000000000000000e+00  0.0000000000000000e+00 0.0000000000000000e+00 0.0000000000000000e+00  0.0000000000000000e+00 0.0000000000000000e+00 0.0000000000000000e+00  0.0000000000000000e+00 0.0000000000000000e+00 0.0000000000000000e+00  0.0000000000000000e+00 0.0000000000000000e+00 0.0000000000000000e+00  0.0000000000000000e+00 0.0000000000000000e+00 0.0000000000000000e+00  0.0000000000000000e+00 0.0000000000000000e+00 0.0000000000000000e+00  0.0000000000000000e+00 0.0000000000000000e+00 0.0000000000000000e+00  0.0000000000000000e+00 0.0000000000000000e+00 0.0000000000000000e+00  0.0000000000000000e+00 0.0000000000000000e+00 0.0000000000000000e+00  0.0000000000000000e+00 0.0000000000000000e+00 0.0000000000000000e+00  0.0000000000000000e+00 0.0000000000000000e+00 0.0000000000000000e+00  0.0000000000000000e+00 0.0000000000000000e+00 0.0000000000000000e+00  0.0000000000000000e+00 0.0000000000000000e+00 0.0000000000000000e+00  1.8355556260466946e-06 -6.2389153809987899e-06 0.0000000000000000e+00  4.0263383499969230e-06 -7.7871040503969675e-06 0.0000000000000000e+00  6.4204300108965494e-06 -9.7770505887852257e-06 0.0000000000000000e+00  9.0489148028247196e-06 -1.2375712873088235e-05 0.0000000000000000e+00  1.1535010009305986e-05 -1.5644545681683085e-05 0.0000000000000000e+00  1.4109625999912833e-05 -1.9704071931109038e-05 0.0000000000000000e+00  1.6441629384449343e-05 -2.4309549554052788e-05 0.0000000000000000e+00  1.8683351551539904e-05 -2.9657378908914577e-05 0.0000000000000000e+00  2.1010573767961149e-05 -3.5579517614408190e-05 0.0000000000000000e+00  2.3030498069445470e-05 -4.2077506760494283e-05 0.0000000000000000e+00  2.5156738082007368e-05 -4.9204118069619794e-05 0.0000000000000000e+00  2.6982576855718974e-05 -5.6841335173708612e-05 0.0000000000000000e+00  2.8858038251283221e-05 -6.5035212596448790e-05 0.0000000000000000e+00  3.0508821489881375e-05 -7.3669293291744571e-05 0.0000000000000000e+00  3.2057133009770049e-05 -8.2831894751520237e-05 0.0000000000000000e+00  3.3637707028704968e-05 -9.2424524834317561e-05 0.0000000000000000e+00  3.4963154897518867e-05 -1.0240474677293742e-04 0.0000000000000000e+00  3.6326634057328293e-05 -1.1284929174850101e-04 0.0000000000000000e+00  3.7452031119532935e-05 -1.2361432292297728e-04 0.0000000000000000e+00  3.8599271002920687e-05 -1.3478109177834932e-04 0.0000000000000000e+00  3.9553790726941917e-05 -1.4624194140594937e-04 0.0000000000000000e+00  4.0475605696039536e-05 -1.5806458016840862e-04 0.0000000000000000e+00  4.1244447991374771e-05 -1.7013656591304460e-04 0.0000000000000000e+00  4.1915773390491630e-05 -1.8251726176381295e-04 0.0000000000000000e+00  4.2570864610940244e-05 -1.9514185526274468e-04 0.0000000000000000e+00  4.3070718408517157e-05 -2.0799052758562446e-04 0.0000000000000000e+00  4.3494604322549373e-05 -2.2112234560194238e-04 0.0000000000000000e+00  4.3809163987779024e-05 -2.3440252852237656e-04 0.0000000000000000e+00  4.4045113760417660e-05 -2.4793171382812189e-04 0.0000000000000000e+00  4.4174795768086016e-05 -2.6158695859611049e-04 0.0000000000000000e+00  4.4227031198969334e-05 -2.7545316872520524e-04 0.0000000000000000e+00  4.4172478507653846e-05 -2.8941336892949706e-04 0.0000000000000000e+00  4.4044284946769881e-05 -3.0355658244157134e-04 0.0000000000000000e+00  4.3808212101786531e-05 -3.1776019996874322e-04 0.0000000000000000e+00  4.3488034165484597e-05 -3.3213048473046804e-04 0.0000000000000000e+00  4.3072848034226199e-05 -3.4653635796805856e-04 0.0000000000000000e+00  4.2576829019276994e-05 -3.6107208449150135e-04 0.0000000000000000e+00  4.1985858748637283e-05 -3.7562423494118925e-04 0.0000000000000000e+00  4.1310880683979061e-05 -3.9028326698535245e-04 0.0000000000000000e+00  4.0538648346920040e-05 -4.0494218470569100e-04 0.0000000000000000e+00  3.9675762954661643e-05 -4.1967248212998015e-04 0.0000000000000000e+00  3.8732443295589751e-05 -4.3440854697078323e-04 0.0000000000000000e+00  3.7690251074785745e-05 -4.4918411285022839e-04 0.0000000000000000e+00  3.6597013210069122e-05 -4.6396649157591979e-04 0.0000000000000000e+00  3.5397534949161113e-05 -4.7872793692940388e-04 0.0000000000000000e+00  3.4164757548573412e-05 -4.9356564461356615e-04 0.0000000000000000e+00  2.2539383733618559e-05 -5.0734880155684718e-04 0.0000000000000000e+00  2.5659889220046921e-06 -5.0465983738279057e-04 0.0000000000000000e+00  -5.7972461766953259e-06 -4.8857967151611523e-04 0.0000000000000000e+00  -4.5216295914302770e-06 -4.7357231319109048e-04 0.0000000000000000e+00  -3.2755621482019373e-06 -4.5853142373901716e-04 0.0000000000000000e+00  -2.1183487811330184e-06 -4.4354508470151349e-04 0.0000000000000000e+00  -1.0113290125188650e-06 -4.2857966196043629e-04 0.0000000000000000e+00  6.2708902931534568e-09 -4.1364660743441303e-04 0.0000000000000000e+00  9.7836124065544090e-07 -3.9875312030649020e-04 0.0000000000000000e+00  1.8595965354437362e-06 -3.8387906495366468e-04 0.0000000000000000e+00  2.6958305264342972e-06 -3.6909333754539178e-04 0.0000000000000000e+00  3.4475928201840273e-06 -3.5432412648856825e-04 0.0000000000000000e+00  4.1642896419282110e-06 -3.3966289981735687e-04 0.0000000000000000e+00  4.7924773596904945e-06 -3.2504038991079963e-04 0.0000000000000000e+00  5.3956287606498164e-06 -3.1055151211531842e-04 0.0000000000000000e+00  5.9074528566562361e-06 -2.9612923826408518e-04 0.0000000000000000e+00  6.4058119670410155e-06 -2.8186649913370288e-04 0.0000000000000000e+00  6.8048503149139424e-06 -2.6769732472793688e-04 0.0000000000000000e+00  7.2035118644006360e-06 -2.5371094184639122e-04 0.0000000000000000e+00  7.4924503449303981e-06 -2.3984512639996740e-04 0.0000000000000000e+00  7.7911234837390934e-06 -2.2619779168231246e-04 0.0000000000000000e+00  7.9739122263496104e-06 -2.1270735995687528e-04 0.0000000000000000e+00  8.1829702732017161e-06 -1.9946629582733689e-04 0.0000000000000000e+00  8.2642271821258667e-06 -1.8641655083520862e-04 0.0000000000000000e+00  8.3679125708181081e-06 -1.7363599061207818e-04 0.0000000000000000e+00  8.3678896031198099e-06 -1.6108475910049089e-04 0.0000000000000000e+00  8.3029174991935324e-06 -1.4885625780291324e-04 0.0000000000000000e+00  8.2817058225434877e-06 -1.3687765492600588e-04 0.0000000000000000e+00  8.1482763089148443e-06 -1.2522321732684526e-04 0.0000000000000000e+00  8.0114611539600080e-06 -1.1393284774536312e-04 0.0000000000000000e+00  7.7913467599976542e-06 -1.0296215104001359e-04 0.0000000000000000e+00  7.5643244907536910e-06 -9.2407310510065751e-05 0.0000000000000000e+00  7.2548118271097681e-06 -8.2200277555142165e-05 0.0000000000000000e+00  6.9797306692525654e-06 -7.2499985371684623e-05 0.0000000000000000e+00  6.5756733280274822e-06 -6.3155852163838884e-05 0.0000000000000000e+00  6.1151769154486045e-06 -5.4377371249580683e-05 0.0000000000000000e+00  5.7472997800205376e-06 -4.5993309900056204e-05 0.0000000000000000e+00  5.2516323834690293e-06 -3.8182716243973495e-05 0.0000000000000000e+00  4.7720565628677812e-06 -3.0939349358695703e-05 0.0000000000000000e+00  4.1977921241843073e-06 -2.4233199993724896e-05 0.0000000000000000e+00  3.6950971483685129e-06 -1.8214204074311895e-05 0.0000000000000000e+00  3.0297278559073547e-06 -1.2717312146998354e-05 0.0000000000000000e+00  2.3132593155399795e-06 -7.9867397999669188e-06 0.0000000000000000e+00  1.7493502737704782e-06 -3.8194593017935006e-06 0.0000000000000000e+00  1.0405251858551636e-06 -3.7388970139415407e-07 0.0000000000000000e+00  5.2005779330447372e-07 2.3133217570594829e-06 0.0000000000000000e+00  5.4222339653439586e-09 4.0679143987631889e-06 0.0000000000000000e+00  -5.5457392349618723e-08 4.7447467557011255e-06 0.0000000000000000e+00  4.8100068781401029e-07 -7.9223856676981514e-07 0.0000000000000000e+00  1.4853575763411325e-05 -4.8359584738268379e-04 0.0000000000000000e+00  1.7464775837590726e-05 -4.5513122446375976e-04 0.0000000000000000e+00  2.0488120769685049e-05 -4.0872789684204698e-04 0.0000000000000000e+00  4.1859991202073346e-06 -4.4823313741302185e-06 0.0000000000000000e+00  2.1880920343904102e-05 -3.7967636891509684e-04 0.0000000000000000e+00  7.2046147803727159e-06 -1.0824367277397077e-05 0.0000000000000000e+00  2.3235306978769587e-05 -3.5033933633045331e-04 0.0000000000000000e+00  1.1785250697831303e-05 -2.6608365922264593e-05 0.0000000000000000e+00  1.4482243237260330e-05 -3.9666919497223644e-05 0.0000000000000000e+00  2.4291299753656966e-05 -3.2129442322876900e-04 0.0000000000000000e+00  1.9782915700802410e-05 -8.2481703146705424e-05 0.0000000000000000e+00  2.5523553323129536e-05 -2.6449084417573776e-04 0.0000000000000000e+00  1.6641082027465677e-05 -5.4407283769096968e-05 0.0000000000000000e+00  2.1586944444637117e-05 -1.0235343012706096e-04 0.0000000000000000e+00  2.5706107820347107e-05 -2.3695069088263852e-04 0.0000000000000000e+00  2.5053060295933345e-05 -2.9264224593060647e-04 0.0000000000000000e+00  2.2981506529237881e-05 -1.2411434025540183e-04 0.0000000000000000e+00  2.5600118828479045e-05 -2.1015340725101650e-04 0.0000000000000000e+00  2.3850781617066863e-05 -1.4623743677706822e-04 0.0000000000000000e+00  2.5446338651679639e-05 -1.8480925208626373e-04 0.0000000000000000e+00  2.4673203729509231e-05 -1.6446556978918922e-04 0.0000000000000000e+00  1.8379376068107104e-05 -6.7410354664125088e-05 0.0000000000000000e+00  1.8625774876998103e-05 -4.3277622092446709e-04 0.0000000000000000e+00  9.5284708733846385e-06 -1.7788261673526604e-05 0.0000000000000000e+00  9.2191491908499081e-06 -4.6834293468731128e-04 0.0000000000000000e+00  1.5234186023453673e-06 -4.2928680398489122e-08 0.0000000000000000e+00  1.6895991870907097e-05 -3.6401801566198307e-04 0.0000000000000000e+00  1.5349873945845422e-05 -3.9351647430534891e-04 0.0000000000000000e+00  7.3544005275043100e-06 -9.6504363428358723e-06 0.0000000000000000e+00  1.5747771076211423e-05 -3.4440649006859690e-05 0.0000000000000000e+00  1.9859968758353841e-05 -2.7739821520212531e-04 0.0000000000000000e+00  1.8160184187221246e-05 -3.3476756506930003e-04 0.0000000000000000e+00  2.4700536442993763e-05 -9.3546582231639991e-05 0.0000000000000000e+00  2.0308111465107587e-05 -2.4949113442719411e-04 0.0000000000000000e+00  1.8687896153342996e-05 -4.8776861442606771e-05 0.0000000000000000e+00  2.6530265696464662e-05 -1.1450955600588731e-04 0.0000000000000000e+00  2.0490515727668699e-05 -2.2226035873576508e-04 0.0000000000000000e+00  1.9145651063349009e-05 -3.0585801903525417e-04 0.0000000000000000e+00  2.9032338964026334e-05 -1.3711177781602332e-04 0.0000000000000000e+00  2.0410608787592189e-05 -1.9584004493346268e-04 0.0000000000000000e+00  -2.5963485551160429e-07 -1.4856480760154972e-06 0.0000000000000000e+00  -5.7901751782241605e-07 1.0736379110161179e-06 0.0000000000000000e+00  1.8340514754632884e-05 -4.9590826385700892e-04 0.0000000000000000e+00  3.4418545372532685e-06 -4.8053775849395160e-06 0.0000000000000000e+00 