<?xml version="1.0"?>
<VTKFile type="UnstructuredGrid"  version="0.1"  >
<UnstructuredGrid>
<Piece  NumberOfPoints="1419" NumberOfCells="2698">
<Points>
<DataArray  type="Float64"  NumberOfComponents="3"  format="ascii">0 0 0  0 0.41 0  2.5 0 0  2.5 0.41 0  0.6 0.19 0  0.6 0.21 0  0.25 0.2 0  0.15 0.2 0  0.2489897948556636 0.21 0  0.2489897948556636 0.19 0  0.6 0.2 0  0 0.3807142857143437 0  0 0.3514285714286952 0  0 0.3221428571430699 0  0 0.29285714285744 0  0 0.2635714285718054 0  0 0.2342857142861561 0  0 0.2050000000005308 0  0 0.175714285714732 0  0 0.1464285714289574 0  0 0.1171428571431897 0  0 0.08785714285737878 0  0 0.05857142857161107 0  0 0.02928571428580012 0  0.03015443760436003 0 0  0.06140001986583606 0 0  0.09377624077125973 0 0  0.1273239957535082 0 0  0.1620856860351972 0 0  0.1981052433264291 0 0  0.235428184091502 0 0  0.2741016576309132 0 0  0.3141745521465447 0 0  0.3556974926295285 0 0  0.3987229542472677 0 0  0.4433053055141081 0 0  0.4895008759286886 0 0  0.5373680609405097 0 0  0.5869673343216626 0 0  0.6383613676634521 0 0  0.6916151138468254 0 0  0.7467958595648856 0 0  0.8039733463919316 0 0  0.8632198139502143 0 0  0.9246101326867038 0 0  0.9882218810934433 0 0  1.054135445558498 0 0  1.122434100542598 0 0  1.193204177141305 0 0  1.266535089879536 0 0  1.342519516046404 0 0  1.421253448503939 0 0  1.502836389106271 0 0  1.587371439758838 0 0  1.674965418777374 0 0  1.765729001825544 0 0  1.859776908880082 0 0  1.957227977487062 0 0  2.058205329869943 0 0  2.162836591189951 0 0  2.271253957290865 0 0  2.383594446803425 0 0  2.5 0.1024999999997612 0  2.5 0.2049999999994743 0  2.5 0.3074999999997183 0  2.383594446803656 0.41 0  2.271253957291315 0.41 0  2.162836591190598 0.41 0  2.058205329870775 0.41 0  1.957227977488067 0.41 0  1.859776908881246 0.41 0  1.765729001826854 0.41 0  1.674965418778818 0.41 0  1.58737143976041 0.41 0  1.502836389107956 0.41 0  1.421253448505726 0.41 0  1.342519516048286 0.41 0  1.266535089881505 0.41 0  1.193204177143353 0.41 0  1.122434100544716 0.41 0  1.05413544556068 0.41 0  0.9882218810956305 0.41 0  0.9246101326886647 0.41 0  0.8632198139519631 0.41 0  0.8039733463934788 0.41 0  0.7467958595662458 0.41 0  0.6916151138480078 0.41 0  0.6383613676644679 0.41 0  0.5869673343225223 0.41 0  0.5373680609412221 0.41 0  0.4895008759292634 0.41 0  0.4433053055145528 0.41 0  0.3987229542475914 0.41 0  0.3556974926297398 0.41 0  0.3141745521466497 0.41 0  0.2741016576310038 0.41 0  0.2354281840915826 0.41 0  0.1981052433265003 0.41 0  0.1620856860352591 0.41 0  0.1273239957535623 0.41 0  0.09377624077128965 0.41 0  0.06140001986584975 0.41 0  0.03015443760436654 0.41 0  0.2497468076502589 0.2050254481002335 0  0.2497468076502614 0.1949745518997913 0  0.2469965252529372 0.1829317073451959 0  0.2439893735792749 0.1762316384219906 0  0.2400332147834255 0.1700443375285386 0  0.2352133972704371 0.1645032867342007 0  0.2296339016332438 0.1597280261969788 0  0.2234150974217223 0.1558215752574715 0  0.2166911463437691 0.1528682099456123 0  0.2096071079204251 0.1509316448471593 0  0.2023158100364996 0.1500536585536553 0  0.194974551899914 0.1502531923497262 0  0.1877417105387872 0.1515259415822739 0  0.1807733240461124 0.153844448527136 0  0.1742197252835808 0.15715869474974 0  0.1682222986673531 0.1613971801805478 0  0.162910430003803 0.1664684656256651 0  0.1583987151779087 0.1722631454351573 0  0.1547844879126891 0.178656207771761 0  0.1521457199348551 0.1855097315605723 0  0.1505393388476355 0.1926758619366523 0  0.1505393388476328 0.2073241380633295 0  0.1521457199348437 0.2144902684393899 0  0.1547844879126531 0.221343792228163 0  0.1583987151778488 0.2277368545647528 0  0.1629104300036858 0.2335315343742052 0  0.1682222986671726 0.2386028198193036 0  0.1742197252833576 0.2428413052501257 0  0.1807733240458683 0.2461555514727623 0  0.1877417105384929 0.2484740584176516 0  0.1949745518995776 0.2497468076502398 0  0.202315810036185 0.2499463414463592 0  0.2096071079201568 0.2490683551528932 0  0.2166911463435495 0.2471317900544655 0  0.2234150974215506 0.2441784247426195 0  0.2296339016331197 0.2402719738031125 0  0.2352133972703547 0.2354967132658811 0  0.2400332147833751 0.2299556624715287 0  0.2439893735792577 0.2237683615780412 0  0.246996525252926 0.2170682926548348 0  0.25645809709277 0.21 0  0.2639263993298655 0.21 0  0.271394701566961 0.21 0  0.2788630038040554 0.21 0  0.2863313060411479 0.21 0  0.2937996082782405 0.21 0  0.301267910515333 0.21 0  0.3087362127524279 0.21 0  0.3162045149895234 0.21 0  0.3236728172265972 0.21 0  0.3311411194636928 0.21 0  0.3386094217007701 0.21 0  0.3460777239378666 0.21 0  0.3535460261749672 0.21 0  0.3610143284120516 0.21 0  0.3684826306491596 0.21 0  0.3759509328862226 0.21 0  0.383419235123329 0.21 0  0.3908875373604028 0.21 0  0.3983558395975142 0.21 0  0.4058241418345938 0.21 0  0.4132924440716992 0.21 0  0.4207607463087888 0.21 0  0.4282290485459029 0.21 0  0.4356973507830418 0.21 0  0.4431656530201649 0.21 0  0.4506339552573136 0.21 0  0.4581022574944306 0.21 0  0.4655705597315852 0.21 0  0.4730388619686996 0.21 0  0.480507164205851 0.21 0  0.4879754664429498 0.21 0  0.4954437686800938 0.21 0  0.502912070917267 0.21 0  0.5103803731544119 0.21 0  0.5178486753915261 0.21 0  0.5253169776286404 0.21 0  0.5327852798657868 0.21 0  0.5402535821029386 0.21 0  0.54772188434007 0.21 0  0.5551901865771842 0.21 0  0.5626584888143201 0.21 0  0.5701267910514778 0.21 0  0.5775950932886138 0.21 0  0.5850633955257281 0.21 0  0.5925316977628483 0.21 0  0.6 0.2050000000000054 0  0.6 0.1950000000000217 0  0.5925316977628897 0.19 0  0.5850633955257988 0.19 0  0.5775950932887378 0.19 0  0.5701267910515998 0.19 0  0.5626584888145268 0.19 0  0.5551901865773963 0.19 0  0.547721884340339 0.19 0  0.5402535821032429 0.19 0  0.5327852798661811 0.19 0  0.5253169776290537 0.19 0  0.5178486753919799 0.19 0  0.5103803731549078 0.19 0  0.502912070917822 0.19 0  0.4954437686807294 0.19 0  0.4879754664436223 0.19 0  0.4805071642065402 0.19 0  0.4730388619694271 0.19 0  0.4655705597323621 0.19 0  0.4581022574952563 0.19 0  0.4506339552581777 0.19 0  0.4431656530210671 0.19 0  0.4356973507839815 0.19 0  0.4282290485468779 0.19 0  0.4207607463097617 0.19 0  0.4132924440726327 0.19 0  0.4058241418354857 0.19 0  0.3983558395983636 0.19 0  0.3908875373612097 0.19 0  0.3834192351240934 0.19 0  0.3759509328869369 0.19 0  0.3684826306498175 0.19 0  0.361014328412667 0.19 0  0.3535460261755617 0.19 0  0.3460777239384295 0.19 0  0.3386094217012945 0.19 0  0.3311411194641595 0.19 0  0.3236728172270245 0.19 0  0.3162045149898895 0.19 0  0.3087362127527544 0.19 0  0.3012679105156187 0.19 0  0.2937996082784807 0.19 0  0.2863313060413428 0.19 0  0.2788630038042048 0.19 0  0.2713947015670686 0.19 0  0.2639263993299336 0.19 0  0.2564580970927985 0.19 0  0.2607803159922026 0.2000727136295815 0  0.5887803774232762 0.2001272386983733 0  0.5745072403740523 0.2002044435018727 0  0.5511891430099709 0.2001122610077113 0  0.2751288526855082 0.20000000000002 0  0.5365194309847112 0.1999999999999436 0  0.2894621222999649 0.1998691686390484 0  0.5215828265105155 0.1999999999999228 0  0.3127789816668748 0.1998657885438805 0  0.3274069683451451 0.2000000000000796 0  0.5066462220363641 0.199999999999908 0  0.3650630746574081 0.199866017807523 0  0.476773013087985 0.1999999999998713 0  0.3417402379596385 0.1998691686391011 0  0.3796850840047755 0.200000000000134 0  0.4618364086138087 0.1999999999998546 0  0.4917096175621762 0.1999999999998808 0  0.3946216884789568 0.2000000000001512 0  0.446899804139621 0.1999999999998389 0  0.4089549580935208 0.1998691686391595 0  0.4322718174608562 0.200127451265745 0  0.4201487168029707 0.1999966199048527 0  0.3528922713220932 0.2000185703532356 0  0.5633122436674589 0.1999814296467508 0  0.3006558810093873 0.1999966199048318 0  0.5815926498168407 0.1966545283159175 0  0.2677053789419034 0.1964246479135325 0  0.5290511287476175 0.1970915826863981 0  0.5439877332217911 0.197091582686394 0  0.2825131256993216 0.2035478995978015 0  0.3199386661080599 0.202908417313604 0  0.4842413153250809 0.1970915826863873 0  0.5141145242734466 0.1970915826863843 0  0.3722167817676917 0.2029084173136195 0  0.4693047108508938 0.1970915826863783 0  0.3348752705822316 0.202908417313609 0  0.3871533862418661 0.2029084173136212 0  0.4543681063767183 0.1970915826863795 0  0.4991779197992749 0.1970915826863902 0  0.4020059614928624 0.203547899597858 0  0.4394315019025246 0.1970915826863714 0  0.2550657455369551 0.2034088125358657 0  0.2548908499171161 0.1966940311614271 0  0.5946539510196798 0.2024302972968126 0  0.267698176732111 0.2039977513680092 0  0.4261685417851465 0.196409292431739 0  0.3590076176283495 0.196411355804271 0  0.5571672426447437 0.2036011176410121 0  0.3066757059912147 0.1964092924317024 0  0.594380730180568 0.1966558399668133 0  0.4842413153245942 0.2040749161535287 0  0.4693047108503577 0.2040749161535231 0  0.3871533862424271 0.1959250838464788 0  0.372246743208829 0.1959123236376545 0  0.5141145242731028 0.2040749161535395 0  0.4543681063761134 0.2040749161535186 0  0.4019979587101454 0.1959834479682427 0  0.4394608940728603 0.2040870543693135 0  0.5439623148931173 0.2040856076781014 0  0.5290511287473298 0.2040749161535501 0  0.4991779197988497 0.2040749161535382 0  0.3347912413592433 0.1959225448935183 0  0.3199680582793816 0.1959123018030061 0  0.2825051229162361 0.1959834479681729 0  0.3590471196690275 0.2036304442587945 0  0.5571594006495384 0.1963685282145804 0  0.3067669986803285 0.203627750582736 0  0.4262598344738712 0.2036568242185335 0  0.5814408164431408 0.2041285596160068 0  0.5688286748170428 0.1961819304477386 0  0.4145905603063645 0.2038180695522843 0  0.3473758401724931 0.2038180695522752 0  0.2950977245128307 0.2038180695522663 0  0.5688286748170693 0.203818069552238 0  0.2950977245127906 0.1961819304477774 0  0.3473758401723931 0.1961819304478349 0  0.4145905603061963 0.1961819304479011 0  0.2601812407614425 0.2056861609747042
[...]
<PointData  Vectors="f_40-0"> 
<DataArray  type="Float64"  Name="f_40-0"  NumberOfComponents="3" format="ascii">0.0000000000000000e+00 0.0000000000000000e+00 0.0000000000000000e+00  0.0000000000000000e+00 0.0000000000000000e+00 0.0000000000000000e+00  0.0000000000000000e+00 0.0000000000000000e+00 0.0000000000000000e+00  0.0000000000000000e+00 0.0000000000000000e+00 0.0000000000000000e+00  -4.1385584262270838e-05 -1.6724310411443634e-05 0.0000000000000000e+00  -3.8995600567845816e-05 -2.2500188145995614e-05 0.0000000000000000e+00  0.0000000000000000e+00 0.0000000000000000e+00 0.0000000000000000e+00  0.0000000000000000e+00 0.0000000000000000e+00 0.0000000000000000e+00  0.0000000000000000e+00 0.0000000000000000e+00 0.0000000000000000e+00  0.0000000000000000e+00 0.0000000000000000e+00 0.0000000000000000e+00  -4.0453519768013427e-05 -1.9612229676263866e-05 0.0000000000000000e+00  2.2216412113079125e-03 0.0000000000000000e+00 0.0000000000000000e+00  4.1014914670302648e-03 0.0000000000000000e+00 0.0000000000000000e+00  5.6395507671666151e-03 0.0000000000000000e+00 0.0000000000000000e+00  6.8358191117187436e-03 0.0000000000000000e+00 0.0000000000000000e+00  7.6902965006864976e-03 0.0000000000000000e+00 0.0000000000000000e+00  8.2029829340698225e-03 0.0000000000000000e+00 0.0000000000000000e+00  8.3738784118682075e-03 0.0000000000000000e+00 0.0000000000000000e+00  8.2029829340801875e-03 0.0000000000000000e+00 0.0000000000000000e+00  7.6902965007043019e-03 0.0000000000000000e+00 0.0000000000000000e+00  6.8358191117407945e-03 0.0000000000000000e+00 0.0000000000000000e+00  5.6395507671875627e-03 0.0000000000000000e+00 0.0000000000000000e+00  4.1014914670481403e-03 0.0000000000000000e+00 0.0000000000000000e+00  2.2216412113179843e-03 0.0000000000000000e+00 0.0000000000000000e+00  0.0000000000000000e+00 0.0000000000000000e+00 0.0000000000000000e+00  0.0000000000000000e+00 0.0000000000000000e+00 0.0000000000000000e+00  0.0000000000000000e+00 0.0000000000000000e+00 0.0000000000000000e+00  0.0000000000000000e+00 0.0000000000000000e+00 0.0000000000000000e+00  0.0000000000000000e+00 0.0000000000000000e+00 0.0000000000000000e+00  0.0000000000000000e+00 0.0000000000000000e+00 0.0000000000000000e+00  0.0000000000000000e+00 0.0000000000000000e+00 0.0000000000000000e+00  0.0000000000000000e+00 0.0000000000000000e+00 0.0000000000000000e+00  0.0000000000000000e+00 0.0000000000000000e+00 0.0000000000000000e+00  0.0000000000000000e+00 0.0000000000000000e+00 0.0000000000000000e+00  0.0000000000000000e+00 0.0000000000000000e+00 0.0000000000000000e+00  0.0000000000000000e+00 0.0000000000000000e+00 0.0000000000000000e+00  0.0000000000000000e+00 0.0000000000000000e+00 0.0000000000000000e+00  0.0000000000000000e+00 0.0000000000000000e+00 0.0000000000000000e+00  0.0000000000000000e+00 0.0000000000000000e+00 0.0000000000000000e+00  0.0000000000000000e+00 0.0000000000000000e+00 0.0000000000000000e+00  0.0000000000000000e+00 0.0000000000000000e+00 0.0000000000000000e+00  0.0000000000000000e+00 0.0000000000000000e+00 0.0000000000000000e+00  0.0000000000000000e+00 0.0000000000000000e+00 0.0000000000000000e+00  0.0000000000000000e+00 0.0000000000000000e+00 0.0000000000000000e+00  0.0000000000000000e+00 0.0000000000000000e+00 0.0000000000000000e+00  0.0000000000000000e+00 0.0000000000000000e+00 0.0000000000000000e+00  0.0000000000000000e+00 0.0000000000000000e+00 0.0000000000000000e+00  0.0000000000000000e+00 0.0000000000000000e+00 0.0000000000000000e+00  0.0000000000000000e+00 0.0000000000000000e+00 0.0000000000000000e+00  0.0000000000000000e+00 0.0000000000000000e+00 0.0000000000000000e+00  0.0000000000000000e+00 0.0000000000000000e+00 0.0000000000000000e+00  0.0000000000000000e+00 0.0000000000000000e+00 0.0000000000000000e+00  0.0000000000000000e+00 0.0000000000000000e+00 0.0000000000000000e+00  0.0000000000000000e+00 0.0000000000000000e+00 0.0000000000000000e+00  0.0000000000000000e+00 0.0000000000000000e+00 0.0000000000000000e+00  0.0000000000000000e+00 0.0000000000000000e+00 0.0000000000000000e+00  0.0000000000000000e+00 0.0000000000000000e+00 0.0000000000000000e+00  0.0000000000000000e+00 0.0000000000000000e+00 0.0000000000000000e+00  0.0000000000000000e+00 0.0000000000000000e+00 0.0000000000000000e+00  0.0000000000000000e+00 0.0000000000000000e+00 0.0000000000000000e+00  0.0000000000000000e+00 0.0000000000000000e+00 0.0000000000000000e+00  0.0000000000000000e+00 0.0000000000000000e+00 0.0000000000000000e+00  7.9906864734197655e-03 3.0014694340796540e-04 0.0000000000000000e+00  5.6010960987026466e-03 -1.2893331540095218e-05 0.0000000000000000e+00  7.9064420424803175e-03 -4.9198998245372229e-04 0.0000000000000000e+00  0.0000000000000000e+00 0.0000000000000000e+00 0.0000000000000000e+00  0.0000000000000000e+00 0.0000000000000000e+00 0.0000000000000000e+00  0.0000000000000000e+00 0.0000000000000000e+00 0.0000000000000000e+00  0.0000000000000000e+00 0.0000000000000000e+00 0.0000000000000000e+00  0.0000000000000000e+00 0.0000000000000000e+00 0.0000000000000000e+00  0.0000000000000000e+00 0.0000000000000000e+00 0.0000000000000000e+00  0.0000000000000000e+00 0.0000000000000000e+00 0.0000000000000000e+00  0.0000000000000000e+00 0.0000000000000000e+00 0.0000000000000000e+00  0.0000000000000000e+00 0.0000000000000000e+00 0.0000000000000000e+00  0.0000000000000000e+00 0.0000000000000000e+00 0.0000000000000000e+00  0.0000000000000000e+00 0.0000000000000000e+00 0.0000000000000000e+00  0.0000000000000000e+00 0.0000000000000000e+00 0.0000000000000000e+00  0.0000000000000000e+00 0.0000000000000000e+00 0.0000000000000000e+00  0.0000000000000000e+00 0.0000000000000000e+00 0.0000000000000000e+00  0.0000000000000000e+00 0.0000000000000000e+00 0.0000000000000000e+00  0.0000000000000000e+00 0.0000000000000000e+00 0.0000000000000000e+00  0.0000000000000000e+00 0.0000000000000000e+00 0.0000000000000000e+00  0.0000000000000000e+00 0.0000000000000000e+00 0.0000000000000000e+00  0.0000000000000000e+00 0.0000000000000000e+00 0.0000000000000000e+00  0.0000000000000000e+00 0.0000000000000000e+00 0.0000000000000000e+00  0.0000000000000000e+00 0.0000000000000000e+00 0.0000000000000000e+00  0.0000000000000000e+00 0.0000000000000000e+00 0.0000000000000000e+00  0.0000000000000000e+00 0.0000000000000000e+00 0.0000000000000000e+00  0.0000000000000000e+00 0.0000000000000000e+00 0.0000000000000000e+00  0.0000000000000000e+00 0.0000000000000000e+00 0.0000000000000000e+00  0.0000000000000000e+00 0.0000000000000000e+00 0.0000000000000000e+00  0.0000000000000000e+00 0.0000000000000000e+00 0.0000000000000000e+00  0.0000000000000000e+00 0.0000000000000000e+00 0.0000000000000000e+00  0.0000000000000000e+00 0.0000000000000000e+00 0.0000000000000000e+00  0.0000000000000000e+00 0.0000000000000000e+00 0.0000000000000000e+00  0.0000000000000000e+00 0.0000000000000000e+00 0.0000000000000000e+00  0.0000000000000000e+00 0.0000000000000000e+00 0.0000000000000000e+00  0.0000000000000000e+00 0.0000000000000000e+00 0.0000000000000000e+00  0.0000000000000000e+00 0.0000000000000000e+00 0.0000000000000000e+00  0.0000000000000000e+00 0.0000000000000000e+00 0.0000000000000000e+00  0.0000000000000000e+00 0.0000000000000000e+00 0.0000000000000000e+00  0.0000000000000000e+00 0.0000000000000000e+00 0.0000000000000000e+00  0.0000000000000000e+00 0.0000000000000000e+00 0.0000000000000000e+00  0.0000000000000000e+00 0.0000000000000000e+00 0.0000000000000000e+00  0.0000000000000000e+00 0.0000000000000000e+00 0.0000000000000000e+00  0.0000000000000000e+00 0.0000000000000000e+00 0.0000000000000000e+00  0.0000000000000000e+00 0.0000000000000000e+00 0.0000000000000000e+00  0.0000000000000000e+00 0.0000000000000000e+00 0.0000000000000000e+00  0.0000000000000000e+00 0.0000000000000000e+00 0.0000000000000000e+00  0.0000000000000000e+00 0.0000000000000000e+00 0.0000000000000000e+00  0.0000000000000000e+00 0.0000000000000000e+00 0.0000000000000000e+00  0.0000000000000000e+00 0.0000000000000000e+00 0.0000000000000000e+00  0.0000000000000000e+00 0.0000000000000000e+00 0.0000000000000000e+00  0.0000000000000000e+00 0.0000000000000000e+00 0.0000000000000000e+00  0.0000000000000000e+00 0.0000000000000000e+00 0.0000000000000000e+00  0.0000000000000000e+00 0.0000000000000000e+00 0.0000000000000000e+00  0.0000000000000000e+00 0.0000000000000000e+00 0.0000000000000000e+00  0.0000000000000000e+00 0.0000000000000000e+00 0.0000000000000000e+00  0.0000000000000000e+00 0.0000000000000000e+00 0.0000000000000000e+00  0.0000000000000000e+00 0.0000000000000000e+00 0.0000000000000000e+00  0.0000000000000000e+00 0.0000000000000000e+00 0.0000000000000000e+00  0.0000000000000000e+00 0.0000000000000000e+00 0.0000000000000000e+00  0.0000000000000000e+00 0.0000000000000000e+00 0.0000000000000000e+00  0.0000000000000000e+00 0.0000000000000000e+00 0.0000000000000000e+00  0.0000000000000000e+00 0.0000000000000000e+00 0.0000000000000000e+00  0.0000000000000000e+00 0.0000000000000000e+00 0.0000000000000000e+00  0.0000000000000000e+00 0.0000000000000000e+00 0.0000000000000000e+00  0.0000000000000000e+00 0.0000000000000000e+00 0.0000000000000000e+00  0.0000000000000000e+00 0.0000000000000000e+00 0.0000000000000000e+00  0.0000000000000000e+00 0.0000000000000000e+00 0.0000000000000000e+00  0.0000000000000000e+00 0.0000000000000000e+00 0.0000000000000000e+00  0.0000000000000000e+00 0.0000000000000000e+00 0.0000000000000000e+00  0.0000000000000000e+00 0.0000000000000000e+00 0.0000000000000000e+00  0.0000000000000000e+00 0.0000000000000000e+00 0.0000000000000000e+00  0.0000000000000000e+00 0.0000000000000000e+00 0.0000000000000000e+00  0.0000000000000000e+00 0.0000000000000000e+00 0.0000000000000000e+00  0.0000000000000000e+00 0.0000000000000000e+00 0.0000000000000000e+00  0.0000000000000000e+00 0.0000000000000000e+00 0.0000000000000000e+00  0.0000000000000000e+00 0.0000000000000000e+00 0.0000000000000000e+00  0.0000000000000000e+00 0.0000000000000000e+00 0.0000000000000000e+00  0.0000000000000000e+00 0.0000000000000000e+00 0.0000000000000000e+00  0.0000000000000000e+00 0.0000000000000000e+00 0.0000000000000000e+00  0.0000000000000000e+00 0.0000000000000000e+00 0.0000000000000000e+00  -6.1385840739774344e-07 -4.5641440640016304e-06 0.0000000000000000e+00  -1.1140502132588100e-06 -4.8675360513295077e-06 0.0000000000000000e+00  -1.3834230635065643e-06 -4.9011148426825593e-06 0.0000000000000000e+00  -1.5446361324658586e-06 -4.7756025318872243e-06 0.0000000000000000e+00  -1.6710679043860003e-06 -4.6500099412686500e-06 0.0000000000000000e+00  -1.8313507542565591e-06 -4.5673974227374776e-06 0.0000000000000000e+00  -2.0120971252284171e-06 -4.4861697557452840e-06 0.0000000000000000e+00  -2.2315202270557241e-06 -4.4193554532360626e-06 0.0000000000000000e+00  -2.4685303186734783e-06 -4.3664272140719166e-06 0.0000000000000000e+00  -2.7469978239858934e-06 -4.3227629780022867e-06 0.0000000000000000e+00  -3.0493204980164382e-06 -4.3133240175932247e-06 0.0000000000000000e+00  -3.3924388285004298e-06 -4.3105350176735106e-06 0.0000000000000000e+00  -3.7661643052918012e-06 -4.3374686501372295e-06 0.0000000000000000e+00  -4.1731499433243606e-06 -4.3915963010542792e-06 0.0000000000000000e+00  -4.6233335876868821e-06 -4.4682665469728652e-06 0.0000000000000000e+00  -5.0911996796879566e-06 -4.5826637149802726e-06 0.0000000000000000e+00  -5.6095708645167848e-06 -4.7075522209114154e-06 0.0000000000000000e+00  -6.1528147527199779e-06 -4.8892766481304159e-06 0.0000000000000000e+00  -6.7436859231454705e-06 -5.0780104783817201e-06 0.0000000000000000e+00  -7.3577591733416814e-06 -5.3245621410932427e-06 0.0000000000000000e+00  -8.0189363350071996e-06 -5.5832689505331901e-06 0.0000000000000000e+00  -8.7142370093039063e-06 -5.8912647696111252e-06 0.0000000000000000e+00  -9.4446457518487268e-06 -6.2334623892718353e-06 0.0000000000000000e+00  -1.0221212046832434e-05 -6.6069588053527612e-06 0.0000000000000000e+00  -1.1017269901641135e-05 -7.0291558470588019e-06 0.0000000000000000e+00  -1.1864565581786187e-05 -7.4651830837875787e-06 0.0000000000000000e+00  -1.2752043422543451e-05 -7.9679943119426706e-06 0.0000000000000000e+00  -1.3679110237852567e-05 -8.4755119924121924e-06 0.0000000000000000e+00  -1.4646868759025663e-05 -9.0400862920229977e-06 0.0000000000000000e+00  -1.5655495690591951e-05 -9.6150768419374137e-06 0.0000000000000000e+00  -1.6702987053075390e-05 -1.0238008510910717e-05 0.0000000000000000e+00  -1.7796733700668211e-05 -1.0866679865918372e-05 0.0000000000000000e+00  -1.8925259498291883e-05 -1.1543451471435213e-05 0.0000000000000000e+00  -2.0100531465055643e-05 -1.2211501479627871e-05 0.0000000000000000e+00  -2.1319324759114366e-05 -1.2928902867746772e-05 0.0000000000000000e+00  -2.2578270877611414e-05 -1.3637676711943529e-05 0.0000000000000000e+00  -2.3877364891073430e-05 -1.4384751842211196e-05 0.0000000000000000e+00  -2.5218394215053076e-05 -1.5123665191837202e-05 0.0000000000000000e+00  -2.6601530809974959e-05 -1.5895185734573957e-05 0.0000000000000000e+00  -2.8029374031342054e-05 -1.6658143713463376e-05 0.0000000000000000e+00  -2.9500947961498845e-05 -1.7443892790240170e-05 0.0000000000000000e+00  -3.1007932991760032e-05 -1.8228312882104891e-05 0.0000000000000000e+00  -3.2565853024668294e-05 -1.9028030852703630e-05 0.0000000000000000e+00  -3.4147487865999522e-05 -1.9829050167583964e-05 0.0000000000000000e+00  -3.5776833213269523e-05 -2.0627495448860318e-05 0.0000000000000000e+00  -3.7417350113273257e-05 -2.1471704675365262e-05 0.0000000000000000e+00  -3.9820071198880404e-05 -2.1049342878155415e-05 0.0000000000000000e+00  -4.0994637207793692e-05 -1.8175921773971840e-05 0.0000000000000000e+00  -3.9778675253864513e-05 -1.5983448005381818e-05 0.0000000000000000e+00  -3.8117692590331807e-05 -1.5060802675120936e-05 0.0000000000000000e+00  -3.6466416935106238e-05 -1.4121045857462082e-05 0.0000000000000000e+00  -3.4858718834453283e-05 -1.3200838623654368e-05 0.0000000000000000e+00  -3.3277825802204918e-05 -1.2289165950414664e-05 0.0000000000000000e+00  -3.1748863285805121e-05 -1.1388834971639066e-05 0.0000000000000000e+00  -3.0248573840820038e-05 -1.0499108801848784e-05 0.0000000000000000e+00  -2.8796277849578821e-05 -9.6127155017643351e-06 0.0000000000000000e+00  -2.7377675557726820e-05 -8.7529555920767799e-06 0.0000000000000000e+00  -2.6001960735557994e-05 -7.8870002044414943e-06 0.0000000000000000e+00  -2.4659630601716399e-05 -7.0527340742153708e-06 0.0000000000000000e+00  -2.3360183811077185e-05 -6.2174352131073747e-06 0.0000000000000000e+00  -2.2090633717554924e-05 -5.4171000247884101e-06 0.0000000000000000e+00  -2.0864169778714988e-05 -4.6180980685204654e-06 0.0000000000000000e+00  -1.9666552594372737e-05 -3.8590063757585923e-06 0.0000000000000000e+00  -1.8511989895151779e-05 -3.1064866404193407e-06 0.0000000000000000e+00  -1.7384517607507679e-05 -2.3965844496618151e-06 0.0000000000000000e+00  -1.6303228458586687e-05 -1.6985859922711358e-06 0.0000000000000000e+00  -1.5246977096434620e-05 -1.0504935060887406e-06 0.0000000000000000e+00  -1.4237580062103491e-05 -4.1715575247022659e-07 0.0000000000000000e+00  -1.3253030197035094e-05 1.6359060142466305e-07 0.0000000000000000e+00  -1.2316668252203649e-05 7.2561979230155071e-07 0.0000000000000000e+00  -1.1411728392536150e-05 1.2416870604194229e-06 0.0000000000000000e+00  -1.0545196208853584e-05 1.7235744475855463e-06 0.0000000000000000e+00  -9.7267744657796436e-06 2.1666823057424062e-06 0.0000000000000000e+00  -8.9251736162591731e-06 2.5717129544792564e-06 0.0000000000000000e+00  -8.1764657860140063e-06 2.9535033449404844e-06 0.0000000000000000e+00  -7.4609353498548750e-06 3.2749396159889199e-06 0.0000000000000000e+00  -6.7896547643947328e-06 3.5918593132558789e-06 0.0000000000000000e+00  -6.1552921389140352e-06 3.8464926833144789e-06 0.0000000000000000e+00  -5.5629342041289190e-06 4.0983930323577068e-06 0.0000000000000000e+00  -5.0097498742700832e-06 4.2965066624907854e-06 0.0000000000000000e+00  -4.4908101397497231e-06 4.4824593877525456e-06 0.0000000000000000e+00  -4.0192023143557396e-06 4.6297183040940344e-06 0.0000000000000000e+00  -3.5701422449191975e-06 4.7583991236871347e-06 0.0000000000000000e+00  -3.1696834223492030e-06 4.8645172737787300e-06 0.0000000000000000e+00  -2.8062231255604883e-06 4.9315522655176687e-06 0.0000000000000000e+00  -2.4828930292167434e-06 4.9957473491316670e-06 0.0000000000000000e+00  -2.2006575095490153e-06 5.0300798733262268e-06 0.0000000000000000e+00  -1.9490317262742112e-06 5.0529949829878890e-06 0.0000000000000000e+00  -1.7438941331307115e-06 5.0627786887632604e-06 0.0000000000000000e+00  -1.5619035796968385e-06 5.0580520550154831e-06 0.0000000000000000e+00  -1.4291585603943568e-06 5.0885040936214740e-06 0.0000000000000000e+00  -1.2691239914026320e-06 5.1033861601389650e-06 0.0000000000000000e+00  -1.0257372302948966e-06 4.9759084501738603e-06 0.0000000000000000e+00  -5.8230623187442829e-07 4.5840535582290320e-06 0.0000000000000000e+00  -1.7444494065633528e-06 -1.1562784361362796e-09 0.0000000000000000e+00  -3.7842112865084277e-05 -1.8311864231605057e-05 0.0000000000000000e+00  -3.4637512473358760e-05 -1.6669787127457383e-05 0.0000000000000000e+00  -2.9829238996908661e-05 -1.3993824653650067e-05 0.0000000000000000e+00  -1.4401022555101762e-06 1.2466704600488452e-07 0.0000000000000000e+00  -2.7018514726432556e-05 -1.2336413278187907e-05 0.0000000000000000e+00  -1.6902965968250953e-06 2.9134502239449037e-07 0.0000000000000000e+00  -2.4298359467952800e-05 -1.0728884000123859e-05 0.0000000000000000e+00  -2.3663861457041300e-06 3.8597106711469733e-07 0.0000000000000000e+00  -2.9591092213618708e-06 3.0599816976390068e-07 0.0000000000000000e+00  -2.1736736831576348e-05 -9.1799494144411550e-06 0.0000000000000000e+00  -5.1069257038181660e-06 -8.9216545857019758e-08 0.0000000000000000e+00  -1.7082658891753234e-05 -6.3176497924169296e-06 0.0000000000000000e+00  -3.6648582049077456e-06 2.7065664226106562e-07 0.0000000000000000e+00  -6.1941515057254334e-06 -5.1532322078037264e-07 0.0000000000000000e+00  -1.4987381906450524e-05 -5.0424019504697855e-06 0.0000000000000000e+00  -1.9331886654948157e-05 -7.7033588676515350e-06 0.0000000000000000e+00  -7.4510001306176536e-06 -1.0162303047341465e-06 0.0000000000000000e+00  -1.3045767588708564e-05 -3.8958486208111922e-06 0.0000000000000000e+00  -8.8020765144153597e-06 -1.5729052510946158e-06 0.0000000000000000e+00  -1.1280705318307220e-05 -2.9577760173366105e-06 0.0000000000000000e+00  -9.9593070766832993e-06 -2.2022090500251292e-06 0.0000000000000000e+00  -4.3194094030534275e-06 5.9964705366233697e-08 0.0000000000000000e+00  -3.2312924496856712e-05 -1.5323654569571819e-05 0.0000000000000000e+00  -1.9872269195662781e-06 2.8750534821573519e-07 0.0000000000000000e+00  -3.6611652165626569e-05 -1.6499737829628912e-05 0.0000000000000000e+00  -1.4463500057500024e-06 1.9423003259913871e-06 0.0000000000000000e+00  -2.5950711968358130e-05 -1.0591934132343664e-05 0.0000000000000000e+00  -2.8759621653225997e-05 -1.2254115483749357e-05 0.0000000000000000e+00  -1.5745766888386247e-06 -1.5532692706134371e-06 0.0000000000000000e+00  -2.6359552438899066e-06 -1.0311278419401984e-06 0.0000000000000000e+00  -1.8456216960820617e-05 -5.9721927324211495e-06 0.0000000000000000e+00  -2.3298542497321611e-05 -8.9811652086142070e-06 0.0000000000000000e+00  -5.5470035623632827e-06 -1.5683640091673543e-06 0.0000000000000000e+00  -1.6262655422207062e-05 -4.6088604294754916e-06 0.0000000000000000e+00  -3.2903649442059359e-06 -1.0617694315310841e-06 0.0000000000000000e+00  -6.7069170186510014e-06 -1.9767972870385272e-06 0.0000000000000000e+00  -1.4220310172493332e-05 -3.3661559253473544e-06 0.0000000000000000e+00  -2.0801110601535610e-05 -7.4357432828298050e-06 0.0000000000000000e+00  -7.9760422968851067e-06 -2.7772917570227879e-06 0.0000000000000000e+00  -1.2328331664156159e-05 -2.2588058108815000e-06 0.0000000000000000e+00  -1.3816340692521694e-06 -1.0891411509328038e-06 0.0000000000000000e+00  -1.3448478772245683e-06 9.9718697645164002e-07 0.0000000000000000e+00  -3.8929054666528756e-05 -1.96432176095567