<?xml version="1.0"?>
<VTKFile type="UnstructuredGrid"  version="0.1"  >
<UnstructuredGrid>
<Piece  NumberOfPoints="1419" NumberOfCells="2698">
<Points>
<DataArray  type="Float64"  NumberOfComponents="3"  format="ascii">0 0 0  0 0.41 0  2.5 0 0  2.5 0.41 0  0.6 0.19 0  0.6 0.21 0  0.25 0.2 0  0.15 0.2 0  0.2489897948556636 0.21 0  0.2489897948556636 0.19 0  0.6 0.2 0  0 0.3807142857143437 0  0 0.3514285714286952 0  0 0.3221428571430699 0  0 0.29285714285744 0  0 0.2635714285718054 0  0 0.2342857142861561 0  0 0.2050000000005308 0  0 0.175714285714732 0  0 0.1464285714289574 0  0 0.1171428571431897 0  0 0.08785714285737878 0  0 0.05857142857161107 0  0 0.02928571428580012 0  0.03015443760436003 0 0  0.06140001986583606 0 0  0.09377624077125973 0 0  0.1273239957535082 0 0  0.1620856860351972 0 0  0.1981052433264291 0 0  0.235428184091502 0 0  0.2741016576309132 0 0  0.3141745521465447 0 0  0.3556974926295285 0 0  0.3987229542472677 0 0  0.4433053055141081 0 0  0.4895008759286886 0 0  0.5373680609405097 0 0  0.5869673343216626 0 0  0.6383613676634521 0 0  0.6916151138468254 0 0  0.7467958595648856 0 0  0.8039733463919316 0 0  0.8632198139502143 0 0  0.9246101326867038 0 0  0.9882218810934433 0 0  1.054135445558498 0 0  1.122434100542598 0 0  1.193204177141305 0 0  1.266535089879536 0 0  1.342519516046404 0 0  1.421253448503939 0 0  1.502836389106271 0 0  1.587371439758838 0 0  1.674965418777374 0 0  1.765729001825544 0 0  1.859776908880082 0 0  1.957227977487062 0 0  2.058205329869943 0 0  2.162836591189951 0 0  2.271253957290865 0 0  2.383594446803425 0 0  2.5 0.1024999999997612 0  2.5 0.2049999999994743 0  2.5 0.3074999999997183 0  2.383594446803656 0.41 0  2.271253957291315 0.41 0  2.162836591190598 0.41 0  2.058205329870775 0.41 0  1.957227977488067 0.41 0  1.859776908881246 0.41 0  1.765729001826854 0.41 0  1.674965418778818 0.41 0  1.58737143976041 0.41 0  1.502836389107956 0.41 0  1.421253448505726 0.41 0  1.342519516048286 0.41 0  1.266535089881505 0.41 0  1.193204177143353 0.41 0  1.122434100544716 0.41 0  1.05413544556068 0.41 0  0.9882218810956305 0.41 0  0.9246101326886647 0.41 0  0.8632198139519631 0.41 0  0.8039733463934788 0.41 0  0.7467958595662458 0.41 0  0.6916151138480078 0.41 0  0.6383613676644679 0.41 0  0.5869673343225223 0.41 0  0.5373680609412221 0.41 0  0.4895008759292634 0.41 0  0.4433053055145528 0.41 0  0.3987229542475914 0.41 0  0.3556974926297398 0.41 0  0.3141745521466497 0.41 0  0.2741016576310038 0.41 0  0.2354281840915826 0.41 0  0.1981052433265003 0.41 0  0.1620856860352591 0.41 0  0.1273239957535623 0.41 0  0.09377624077128965 0.41 0  0.06140001986584975 0.41 0  0.03015443760436654 0.41 0  0.2497468076502589 0.2050254481002335 0  0.2497468076502614 0.1949745518997913 0  0.2469965252529372 0.1829317073451959 0  0.2439893735792749 0.1762316384219906 0  0.2400332147834255 0.1700443375285386 0  0.2352133972704371 0.1645032867342007 0  0.2296339016332438 0.1597280261969788 0  0.2234150974217223 0.1558215752574715 0  0.2166911463437691 0.1528682099456123 0  0.2096071079204251 0.1509316448471593 0  0.2023158100364996 0.1500536585536553 0  0.194974551899914 0.1502531923497262 0  0.1877417105387872 0.1515259415822739 0  0.1807733240461124 0.153844448527136 0  0.1742197252835808 0.15715869474974 0  0.1682222986673531 0.1613971801805478 0  0.162910430003803 0.1664684656256651 0  0.1583987151779087 0.1722631454351573 0  0.1547844879126891 0.178656207771761 0  0.1521457199348551 0.1855097315605723 0  0.1505393388476355 0.1926758619366523 0  0.1505393388476328 0.2073241380633295 0  0.1521457199348437 0.2144902684393899 0  0.1547844879126531 0.221343792228163 0  0.1583987151778488 0.2277368545647528 0  0.1629104300036858 0.2335315343742052 0  0.1682222986671726 0.2386028198193036 0  0.1742197252833576 0.2428413052501257 0  0.1807733240458683 0.2461555514727623 0  0.1877417105384929 0.2484740584176516 0  0.1949745518995776 0.2497468076502398 0  0.202315810036185 0.2499463414463592 0  0.2096071079201568 0.2490683551528932 0  0.2166911463435495 0.2471317900544655 0  0.2234150974215506 0.2441784247426195 0  0.2296339016331197 0.2402719738031125 0  0.2352133972703547 0.2354967132658811 0  0.2400332147833751 0.2299556624715287 0  0.2439893735792577 0.2237683615780412 0  0.246996525252926 0.2170682926548348 0  0.25645809709277 0.21 0  0.2639263993298655 0.21 0  0.271394701566961 0.21 0  0.2788630038040554 0.21 0  0.2863313060411479 0.21 0  0.2937996082782405 0.21 0  0.301267910515333 0.21 0  0.3087362127524279 0.21 0  0.3162045149895234 0.21 0  0.3236728172265972 0.21 0  0.3311411194636928 0.21 0  0.3386094217007701 0.21 0  0.3460777239378666 0.21 0  0.3535460261749672 0.21 0  0.3610143284120516 0.21 0  0.3684826306491596 0.21 0  0.3759509328862226 0.21 0  0.383419235123329 0.21 0  0.3908875373604028 0.21 0  0.3983558395975142 0.21 0  0.4058241418345938 0.21 0  0.4132924440716992 0.21 0  0.4207607463087888 0.21 0  0.4282290485459029 0.21 0  0.4356973507830418 0.21 0  0.4431656530201649 0.21 0  0.4506339552573136 0.21 0  0.4581022574944306 0.21 0  0.4655705597315852 0.21 0  0.4730388619686996 0.21 0  0.480507164205851 0.21 0  0.4879754664429498 0.21 0  0.4954437686800938 0.21 0  0.502912070917267 0.21 0  0.5103803731544119 0.21 0  0.5178486753915261 0.21 0  0.5253169776286404 0.21 0  0.5327852798657868 0.21 0  0.5402535821029386 0.21 0  0.54772188434007 0.21 0  0.5551901865771842 0.21 0  0.5626584888143201 0.21 0  0.5701267910514778 0.21 0  0.5775950932886138 0.21 0  0.5850633955257281 0.21 0  0.5925316977628483 0.21 0  0.6 0.2050000000000054 0  0.6 0.1950000000000217 0  0.5925316977628897 0.19 0  0.5850633955257988 0.19 0  0.5775950932887378 0.19 0  0.5701267910515998 0.19 0  0.5626584888145268 0.19 0  0.5551901865773963 0.19 0  0.547721884340339 0.19 0  0.5402535821032429 0.19 0  0.5327852798661811 0.19 0  0.5253169776290537 0.19 0  0.5178486753919799 0.19 0  0.5103803731549078 0.19 0  0.502912070917822 0.19 0  0.4954437686807294 0.19 0  0.4879754664436223 0.19 0  0.4805071642065402 0.19 0  0.4730388619694271 0.19 0  0.4655705597323621 0.19 0  0.4581022574952563 0.19 0  0.4506339552581777 0.19 0  0.4431656530210671 0.19 0  0.4356973507839815 0.19 0  0.4282290485468779 0.19 0  0.4207607463097617 0.19 0  0.4132924440726327 0.19 0  0.4058241418354857 0.19 0  0.3983558395983636 0.19 0  0.3908875373612097 0.19 0  0.3834192351240934 0.19 0  0.3759509328869369 0.19 0  0.3684826306498175 0.19 0  0.361014328412667 0.19 0  0.3535460261755617 0.19 0  0.3460777239384295 0.19 0  0.3386094217012945 0.19 0  0.3311411194641595 0.19 0  0.3236728172270245 0.19 0  0.3162045149898895 0.19 0  0.3087362127527544 0.19 0  0.3012679105156187 0.19 0  0.2937996082784807 0.19 0  0.2863313060413428 0.19 0  0.2788630038042048 0.19 0  0.2713947015670686 0.19 0  0.2639263993299336 0.19 0  0.2564580970927985 0.19 0  0.2607803159922026 0.2000727136295815 0  0.5887803774232762 0.2001272386983733 0  0.5745072403740523 0.2002044435018727 0  0.5511891430099709 0.2001122610077113 0  0.2751288526855082 0.20000000000002 0  0.5365194309847112 0.1999999999999436 0  0.2894621222999649 0.1998691686390484 0  0.5215828265105155 0.1999999999999228 0  0.3127789816668748 0.1998657885438805 0  0.3274069683451451 0.2000000000000796 0  0.5066462220363641 0.199999999999908 0  0.3650630746574081 0.199866017807523 0  0.476773013087985 0.1999999999998713 0  0.3417402379596385 0.1998691686391011 0  0.3796850840047755 0.200000000000134 0  0.4618364086138087 0.1999999999998546 0  0.4917096175621762 0.1999999999998808 0  0.3946216884789568 0.2000000000001512 0  0.446899804139621 0.1999999999998389 0  0.4089549580935208 0.1998691686391595 0  0.4322718174608562 0.200127451265745 0  0.4201487168029707 0.1999966199048527 0  0.3528922713220932 0.2000185703532356 0  0.5633122436674589 0.1999814296467508 0  0.3006558810093873 0.1999966199048318 0  0.5815926498168407 0.1966545283159175 0  0.2677053789419034 0.1964246479135325 0  0.5290511287476175 0.1970915826863981 0  0.5439877332217911 0.197091582686394 0  0.2825131256993216 0.2035478995978015 0  0.3199386661080599 0.202908417313604 0  0.4842413153250809 0.1970915826863873 0  0.5141145242734466 0.1970915826863843 0  0.3722167817676917 0.2029084173136195 0  0.4693047108508938 0.1970915826863783 0  0.3348752705822316 0.202908417313609 0  0.3871533862418661 0.2029084173136212 0  0.4543681063767183 0.1970915826863795 0  0.4991779197992749 0.1970915826863902 0  0.4020059614928624 0.203547899597858 0  0.4394315019025246 0.1970915826863714 0  0.2550657455369551 0.2034088125358657 0  0.2548908499171161 0.1966940311614271 0  0.5946539510196798 0.2024302972968126 0  0.267698176732111 0.2039977513680092 0  0.4261685417851465 0.196409292431739 0  0.3590076176283495 0.196411355804271 0  0.5571672426447437 0.2036011176410121 0  0.3066757059912147 0.1964092924317024 0  0.594380730180568 0.1966558399668133 0  0.4842413153245942 0.2040749161535287 0  0.4693047108503577 0.2040749161535231 0  0.3871533862424271 0.1959250838464788 0  0.372246743208829 0.1959123236376545 0  0.5141145242731028 0.2040749161535395 0  0.4543681063761134 0.2040749161535186 0  0.4019979587101454 0.1959834479682427 0  0.4394608940728603 0.2040870543693135 0  0.5439623148931173 0.2040856076781014 0  0.5290511287473298 0.2040749161535501 0  0.4991779197988497 0.2040749161535382 0  0.3347912413592433 0.1959225448935183 0  0.3199680582793816 0.1959123018030061 0  0.2825051229162361 0.1959834479681729 0  0.3590471196690275 0.2036304442587945 0  0.5571594006495384 0.1963685282145804 0  0.3067669986803285 0.203627750582736 0  0.4262598344738712 0.2036568242185335 0  0.5814408164431408 0.2041285596160068 0  0.5688286748170428 0.1961819304477386 0  0.4145905603063645 0.2038180695522843 0  0.3473758401724931 0.2038180695522752 0  0.2950977245128307 0.2038180695522663 0  0.5688286748170693 0.203818069552238 0  0.2950977245127906 0.1961819304477774 0  0.3473758401723931 0.1961819304478349 0  0.4145905603061963 0.1961819304479011 0  0.2601812407614425 0.2056861609747042
[...]
<PointData  Vectors="f_40-0"> 
<DataArray  type="Float64"  Name="f_40-0"  NumberOfComponents="3" format="ascii">0.0000000000000000e+00 0.0000000000000000e+00 0.0000000000000000e+00  0.0000000000000000e+00 0.0000000000000000e+00 0.0000000000000000e+00  0.0000000000000000e+00 0.0000000000000000e+00 0.0000000000000000e+00  0.0000000000000000e+00 0.0000000000000000e+00 0.0000000000000000e+00  -6.9987311132890255e-06 -5.0588118228217993e-04 0.0000000000000000e+00  3.3212245260922926e-05 -5.1132853920205705e-04 0.0000000000000000e+00  0.0000000000000000e+00 0.0000000000000000e+00 0.0000000000000000e+00  0.0000000000000000e+00 0.0000000000000000e+00 0.0000000000000000e+00  0.0000000000000000e+00 0.0000000000000000e+00 0.0000000000000000e+00  0.0000000000000000e+00 0.0000000000000000e+00 0.0000000000000000e+00  1.2502463045926814e-05 -5.0860170777274906e-04 0.0000000000000000e+00  7.5197014436641729e-02 0.0000000000000000e+00 0.0000000000000000e+00  1.3882525742150162e-01 0.0000000000000000e+00 0.0000000000000000e+00  1.9088472895456479e-01 0.0000000000000000e+00 0.0000000000000000e+00  2.3137542903589139e-01 0.0000000000000000e+00 0.0000000000000000e+00  2.6029735766547635e-01 0.0000000000000000e+00 0.0000000000000000e+00  2.7765051484331776e-01 0.0000000000000000e+00 0.0000000000000000e+00  2.8343490056939841e-01 0.0000000000000000e+00 0.0000000000000000e+00  2.7765051484366865e-01 0.0000000000000000e+00 0.0000000000000000e+00  2.6029735766607898e-01 0.0000000000000000e+00 0.0000000000000000e+00  2.3137542903663777e-01 0.0000000000000000e+00 0.0000000000000000e+00  1.9088472895527375e-01 0.0000000000000000e+00 0.0000000000000000e+00  1.3882525742210663e-01 0.0000000000000000e+00 0.0000000000000000e+00  7.5197014436982623e-02 0.0000000000000000e+00 0.0000000000000000e+00  0.0000000000000000e+00 0.0000000000000000e+00 0.0000000000000000e+00  0.0000000000000000e+00 0.0000000000000000e+00 0.0000000000000000e+00  0.0000000000000000e+00 0.0000000000000000e+00 0.0000000000000000e+00  0.0000000000000000e+00 0.0000000000000000e+00 0.0000000000000000e+00  0.0000000000000000e+00 0.0000000000000000e+00 0.0000000000000000e+00  0.0000000000000000e+00 0.0000000000000000e+00 0.0000000000000000e+00  0.0000000000000000e+00 0.0000000000000000e+00 0.0000000000000000e+00  0.0000000000000000e+00 0.0000000000000000e+00 0.0000000000000000e+00  0.0000000000000000e+00 0.0000000000000000e+00 0.0000000000000000e+00  0.0000000000000000e+00 0.0000000000000000e+00 0.0000000000000000e+00  0.0000000000000000e+00 0.0000000000000000e+00 0.0000000000000000e+00  0.0000000000000000e+00 0.0000000000000000e+00 0.0000000000000000e+00  0.0000000000000000e+00 0.0000000000000000e+00 0.0000000000000000e+00  0.0000000000000000e+00 0.0000000000000000e+00 0.0000000000000000e+00  0.0000000000000000e+00 0.0000000000000000e+00 0.0000000000000000e+00  0.0000000000000000e+00 0.0000000000000000e+00 0.0000000000000000e+00  0.0000000000000000e+00 0.0000000000000000e+00 0.0000000000000000e+00  0.0000000000000000e+00 0.0000000000000000e+00 0.0000000000000000e+00  0.0000000000000000e+00 0.0000000000000000e+00 0.0000000000000000e+00  0.0000000000000000e+00 0.0000000000000000e+00 0.0000000000000000e+00  0.0000000000000000e+00 0.0000000000000000e+00 0.0000000000000000e+00  0.0000000000000000e+00 0.0000000000000000e+00 0.0000000000000000e+00  0.0000000000000000e+00 0.0000000000000000e+00 0.0000000000000000e+00  0.0000000000000000e+00 0.0000000000000000e+00 0.0000000000000000e+00  0.0000000000000000e+00 0.0000000000000000e+00 0.0000000000000000e+00  0.0000000000000000e+00 0.0000000000000000e+00 0.0000000000000000e+00  0.0000000000000000e+00 0.0000000000000000e+00 0.0000000000000000e+00  0.0000000000000000e+00 0.0000000000000000e+00 0.0000000000000000e+00  0.0000000000000000e+00 0.0000000000000000e+00 0.0000000000000000e+00  0.0000000000000000e+00 0.0000000000000000e+00 0.0000000000000000e+00  0.0000000000000000e+00 0.0000000000000000e+00 0.0000000000000000e+00  0.0000000000000000e+00 0.0000000000000000e+00 0.0000000000000000e+00  0.0000000000000000e+00 0.0000000000000000e+00 0.0000000000000000e+00  0.0000000000000000e+00 0.0000000000000000e+00 0.0000000000000000e+00  0.0000000000000000e+00 0.0000000000000000e+00 0.0000000000000000e+00  0.0000000000000000e+00 0.0000000000000000e+00 0.0000000000000000e+00  0.0000000000000000e+00 0.0000000000000000e+00 0.0000000000000000e+00  0.0000000000000000e+00 0.0000000000000000e+00 0.0000000000000000e+00  2.7099883755306869e-01 1.0372053542464222e-02 0.0000000000000000e+00  1.9083329583719666e-01 -2.2129397206849537e-03 0.0000000000000000e+00  2.7285095078065741e-01 -9.1010641639070779e-03 0.0000000000000000e+00  0.0000000000000000e+00 0.0000000000000000e+00 0.0000000000000000e+00  0.0000000000000000e+00 0.0000000000000000e+00 0.0000000000000000e+00  0.0000000000000000e+00 0.0000000000000000e+00 0.0000000000000000e+00  0.0000000000000000e+00 0.0000000000000000e+00 0.0000000000000000e+00  0.0000000000000000e+00 0.0000000000000000e+00 0.0000000000000000e+00  0.0000000000000000e+00 0.0000000000000000e+00 0.0000000000000000e+00  0.0000000000000000e+00 0.0000000000000000e+00 0.0000000000000000e+00  0.0000000000000000e+00 0.0000000000000000e+00 0.0000000000000000e+00  0.0000000000000000e+00 0.0000000000000000e+00 0.0000000000000000e+00  0.0000000000000000e+00 0.0000000000000000e+00 0.0000000000000000e+00  0.0000000000000000e+00 0.0000000000000000e+00 0.0000000000000000e+00  0.0000000000000000e+00 0.0000000000000000e+00 0.0000000000000000e+00  0.0000000000000000e+00 0.0000000000000000e+00 0.0000000000000000e+00  0.0000000000000000e+00 0.0000000000000000e+00 0.0000000000000000e+00  0.0000000000000000e+00 0.0000000000000000e+00 0.0000000000000000e+00  0.0000000000000000e+00 0.0000000000000000e+00 0.0000000000000000e+00  0.0000000000000000e+00 0.0000000000000000e+00 0.0000000000000000e+00  0.0000000000000000e+00 0.0000000000000000e+00 0.0000000000000000e+00  0.0000000000000000e+00 0.0000000000000000e+00 0.0000000000000000e+00  0.0000000000000000e+00 0.0000000000000000e+00 0.0000000000000000e+00  0.0000000000000000e+00 0.0000000000000000e+00 0.0000000000000000e+00  0.0000000000000000e+00 0.0000000000000000e+00 0.0000000000000000e+00  0.0000000000000000e+00 0.0000000000000000e+00 0.0000000000000000e+00  0.0000000000000000e+00 0.0000000000000000e+00 0.0000000000000000e+00  0.0000000000000000e+00 0.0000000000000000e+00 0.0000000000000000e+00  0.0000000000000000e+00 0.0000000000000000e+00 0.0000000000000000e+00  0.0000000000000000e+00 0.0000000000000000e+00 0.0000000000000000e+00  0.0000000000000000e+00 0.0000000000000000e+00 0.0000000000000000e+00  0.0000000000000000e+00 0.0000000000000000e+00 0.0000000000000000e+00  0.0000000000000000e+00 0.0000000000000000e+00 0.0000000000000000e+00  0.0000000000000000e+00 0.0000000000000000e+00 0.0000000000000000e+00  0.0000000000000000e+00 0.0000000000000000e+00 0.0000000000000000e+00  0.0000000000000000e+00 0.0000000000000000e+00 0.0000000000000000e+00  0.0000000000000000e+00 0.0000000000000000e+00 0.0000000000000000e+00  0.0000000000000000e+00 0.0000000000000000e+00 0.0000000000000000e+00  0.0000000000000000e+00 0.0000000000000000e+00 0.0000000000000000e+00  0.0000000000000000e+00 0.0000000000000000e+00 0.0000000000000000e+00  0.0000000000000000e+00 0.0000000000000000e+00 0.0000000000000000e+00  0.0000000000000000e+00 0.0000000000000000e+00 0.0000000000000000e+00  0.0000000000000000e+00 0.0000000000000000e+00 0.0000000000000000e+00  0.0000000000000000e+00 0.0000000000000000e+00 0.0000000000000000e+00  0.0000000000000000e+00 0.0000000000000000e+00 0.0000000000000000e+00  0.0000000000000000e+00 0.0000000000000000e+00 0.0000000000000000e+00  0.0000000000000000e+00 0.0000000000000000e+00 0.0000000000000000e+00  0.0000000000000000e+00 0.0000000000000000e+00 0.0000000000000000e+00  0.0000000000000000e+00 0.0000000000000000e+00 0.0000000000000000e+00  0.0000000000000000e+00 0.0000000000000000e+00 0.0000000000000000e+00  0.0000000000000000e+00 0.0000000000000000e+00 0.0000000000000000e+00  0.0000000000000000e+00 0.0000000000000000e+00 0.0000000000000000e+00  0.0000000000000000e+00 0.0000000000000000e+00 0.0000000000000000e+00  0.0000000000000000e+00 0.0000000000000000e+00 0.0000000000000000e+00  0.0000000000000000e+00 0.0000000000000000e+00 0.0000000000000000e+00  0.0000000000000000e+00 0.0000000000000000e+00 0.0000000000000000e+00  0.0000000000000000e+00 0.0000000000000000e+00 0.0000000000000000e+00  0.0000000000000000e+00 0.0000000000000000e+00 0.0000000000000000e+00  0.0000000000000000e+00 0.0000000000000000e+00 0.0000000000000000e+00  0.0000000000000000e+00 0.0000000000000000e+00 0.0000000000000000e+00  0.0000000000000000e+00 0.0000000000000000e+00 0.0000000000000000e+00  0.0000000000000000e+00 0.0000000000000000e+00 0.0000000000000000e+00  0.0000000000000000e+00 0.0000000000000000e+00 0.0000000000000000e+00  0.0000000000000000e+00 0.0000000000000000e+00 0.0000000000000000e+00  0.0000000000000000e+00 0.0000000000000000e+00 0.0000000000000000e+00  0.0000000000000000e+00 0.0000000000000000e+00 0.0000000000000000e+00  0.0000000000000000e+00 0.0000000000000000e+00 0.0000000000000000e+00  0.0000000000000000e+00 0.0000000000000000e+00 0.0000000000000000e+00  0.0000000000000000e+00 0.0000000000000000e+00 0.0000000000000000e+00  0.0000000000000000e+00 0.0000000000000000e+00 0.0000000000000000e+00  0.0000000000000000e+00 0.0000000000000000e+00 0.0000000000000000e+00  0.0000000000000000e+00 0.0000000000000000e+00 0.0000000000000000e+00  0.0000000000000000e+00 0.0000000000000000e+00 0.0000000000000000e+00  0.0000000000000000e+00 0.0000000000000000e+00 0.0000000000000000e+00  0.0000000000000000e+00 0.0000000000000000e+00 0.0000000000000000e+00  0.0000000000000000e+00 0.0000000000000000e+00 0.0000000000000000e+00  0.0000000000000000e+00 0.0000000000000000e+00 0.0000000000000000e+00  0.0000000000000000e+00 0.0000000000000000e+00 0.0000000000000000e+00  0.0000000000000000e+00 0.0000000000000000e+00 0.0000000000000000e+00  0.0000000000000000e+00 0.0000000000000000e+00 0.0000000000000000e+00  0.0000000000000000e+00 0.0000000000000000e+00 0.0000000000000000e+00  1.8415341156440032e-06 -6.2387762141867638e-06 0.0000000000000000e+00  4.0389883396917895e-06 -7.7933082728311747e-06 0.0000000000000000e+00  6.4391177471556110e-06 -9.7943613829647397e-06 0.0000000000000000e+00  9.0743347216356793e-06 -1.2408652548825556e-05 0.0000000000000000e+00  1.1566354163320591e-05 -1.5697007099653302e-05 0.0000000000000000e+00  1.4147919331276391e-05 -1.9780052935344290e-05 0.0000000000000000e+00  1.6485838067303115e-05 -2.4412062804954104e-05 0.0000000000000000e+00  1.8733439870876572e-05 -2.9790435693906959e-05 0.0000000000000000e+00  2.1067268858758177e-05 -3.5746163715261555e-05 0.0000000000000000e+00  2.3092489998780871e-05 -4.2280883705118347e-05 0.0000000000000000e+00  2.5224869671258376e-05 -4.9447371655899357e-05 0.0000000000000000e+00  2.7055551123819705e-05 -5.7127256381304821e-05 0.0000000000000000e+00  2.8936400797965114e-05 -6.5366555579489651e-05 0.0000000000000000e+00  3.0591626878301865e-05 -7.4048230921492343e-05 0.0000000000000000e+00  3.2144188437768762e-05 -8.3261068196363122e-05 0.0000000000000000e+00  3.3729330883743231e-05 -9.2905898311763604e-05 0.0000000000000000e+00  3.5058427075637654e-05 -1.0294027369589294e-04 0.0000000000000000e+00  3.6425969943694594e-05 -1.1344090571370778e-04 0.0000000000000000e+00  3.7554606085021180e-05 -1.2426362287029953e-04 0.0000000000000000e+00  3.8705406539706294e-05 -1.3548964043614637e-04 0.0000000000000000e+00  3.9662917733440329e-05 -1.4701114956224031e-04 0.0000000000000000e+00  4.0587877773769336e-05 -1.5889586063944620e-04 0.0000000000000000e+00  4.1359417088994915e-05 -1.7103090929651622e-04 0.0000000000000000e+00  4.2033359847393598e-05 -1.8347596277724416e-04 0.0000000000000000e+00  4.2691199419684408e-05 -1.9616576701756092e-04 0.0000000000000000e+00  4.3193491801063074e-05 -2.0908068095205537e-04 0.0000000000000000e+00  4.3619820373552412e-05 -2.2227963469908182e-04 0.0000000000000000e+00  4.3936655238317273e-05 -2.3562771023730037e-04 0.0000000000000000e+00  4.4174881263464751e-05 -2.4922558150452964e-04 0.0000000000000000e+00  4.4306696498881694e-05 -2.6295013684504416e-04 0.0000000000000000e+00  4.4361057606341637e-05 -2.7688633648344598e-04 0.0000000000000000e+00  4.4308524448019555e-05 -2.9091703094505080e-04 0.0000000000000000e+00  4.4182329511184375e-05 -3.0513128389540002e-04 0.0000000000000000e+00  4.3948158289668150e-05 -3.1940637383282223e-04 0.0000000000000000e+00  4.3629881300835327e-05 -3.3384857763727930e-04 0.0000000000000000e+00  4.3216502239599113e-05 -3.4832666720964136e-04 0.0000000000000000e+00  4.2722265981493722e-05 -3.6293494965904046e-04 0.0000000000000000e+00  4.2133001858668992e-05 -3.7755986922881124e-04 0.0000000000000000e+00  4.1459717144655513e-05 -3.9229193128514559e-04 0.0000000000000000e+00  4.0689122388822611e-05 -4.0702400462166771e-04 0.0000000000000000e+00  3.9827851305759939e-05 -4.2182762473670573e-04 0.0000000000000000e+00  3.8886081870080837e-05 -4.3663707605230451e-04 0.0000000000000000e+00  3.7845424690418847e-05 -4.5148612963576709e-04 0.0000000000000000e+00  3.6753705051999821e-05 -4.6634203366293725e-04 0.0000000000000000e+00  3.5555658828944207e-05 -4.8117698341998871e-04 0.0000000000000000e+00  3.4324194311952391e-05 -4.9608812484274118e-04 0.0000000000000000e+00  2.2650645872827987e-05 -5.0994605467808037e-04 0.0000000000000000e+00  2.5786954974478149e-06 -5.0726039069067560e-04 0.0000000000000000e+00  -5.8348519149624951e-06 -4.9110775181347678e-04 0.0000000000000000e+00  -4.5604951332121765e-06 -4.7602669963161046e-04 0.0000000000000000e+00  -3.3157710880583464e-06 -4.6091216058296317e-04 0.0000000000000000e+00  -2.1599133850767963e-06 -4.4585227637850645e-04 0.0000000000000000e+00  -1.0542409551683730e-06 -4.3081336003856921e-04 0.0000000000000000e+00  -3.7943430546872399e-08 -4.1580690831836400e-04 0.0000000000000000e+00  9.3291300690930284e-07 -4.0084013347829977e-04 0.0000000000000000e+00  1.8129147801546471e-06 -3.8589291911460602e-04 0.0000000000000000e+00  2.6480385062267296e-06 -3.7103423525315123e-04 0.0000000000000000e+00  3.3986791697565545e-06 -3.5619226969169272e-04 0.0000000000000000e+00  4.1144289464533478e-06 -3.4145854863812874e-04 0.0000000000000000e+00  4.7416293360684684e-06 -3.2676382254761139e-04 0.0000000000000000e+00  5.3439934269580210e-06 -3.1220310209888468e-04 0.0000000000000000e+00  5.8549757028837866e-06 -2.9770938434927886e-04 0.0000000000000000e+00  6.3527343065355560e-06 -2.8337567111186540e-04 0.0000000000000000e+00  6.7510811606364977e-06 -2.6913602578496385e-04 0.0000000000000000e+00  7.1493452399853075e-06 -2.5507973773766508e-04 0.0000000000000000e+00  7.4377547999434899e-06 -2.4114461103221459e-04 0.0000000000000000e+00  7.7362214198789360e-06 -2.2742865506497956e-04 0.0000000000000000e+00  7.9186387282408959e-06 -2.1387033764532997e-04 0.0000000000000000e+00  8.1277147675977622e-06 -2.0056220201968716e-04 0.0000000000000000e+00  8.2087785708045204e-06 -1.8744624855952441e-04 0.0000000000000000e+00  8.3126885576423279e-06 -1.7460044137181075e-04 0.0000000000000000e+00  8.3127162708162721e-06 -1.6198487194467645e-04 0.0000000000000000e+00  8.2478995238206770e-06 -1.4969332616343719e-04 0.0000000000000000e+00  8.2272385266259488e-06 -1.3765263036317866e-04 0.0000000000000000e+00  8.0942675739436885e-06 -1.2593754869253605e-04 0.0000000000000000e+00  7.9582186201849273e-06 -1.1458787512102612e-04 0.0000000000000000e+00  7.7388559258088443e-06 -1.0355946968636789e-04 0.0000000000000000e+00  7.5129084552664227e-06 -9.2948530990307854e-05 0.0000000000000000e+00  7.2044513266942816e-06 -8.2687192934905793e-05 0.0000000000000000e+00  6.9310047816116125e-06 -7.2934792087420600e-05 0.0000000000000000e+00  6.5282384411564263e-06 -6.3540333169267204e-05 0.0000000000000000e+00  6.0691799684815217e-06 -5.4714239529738842e-05 0.0000000000000000e+00  5.7034830230661165e-06 -4.6284535597270961e-05 0.0000000000000000e+00  5.2097971953554800e-06 -3.8431288325152462e-05 0.0000000000000000e+00  4.7326759874141515e-06 -3.1148035051675552e-05 0.0000000000000000e+00  4.1607821081135616e-06 -2.4405034489826818e-05 0.0000000000000000e+00  3.6612958972219428e-06 -1.8352769895428774e-05 0.0000000000000000e+00  2.9985992706034810e-06 -1.2825511311924807e-05 0.0000000000000000e+00  2.2850582705739122e-06 -8.0688037789290889e-06 0.0000000000000000e+00  1.7252715230185932e-06 -3.8784824532602585e-06 0.0000000000000000e+00  1.0204089031570975e-06 -4.1427072193972015e-07 0.0000000000000000e+00  5.0500218771720940e-07 2.2875819142757788e-06 0.0000000000000000e+00  -4.9945237120009594e-09 4.0526228654821212e-06 0.0000000000000000e+00  -6.0242558915915788e-08 4.7361414972271255e-06 0.0000000000000000e+00  4.8287078891078455e-07 -7.9662285934952681e-07 0.0000000000000000e+00  1.4914980272490044e-05 -4.8608413358272590e-04 0.0000000000000000e+00  1.7524255491087234e-05 -4.5747886172251196e-04 0.0000000000000000e+00  2.0542217649956364e-05 -4.1084621042892627e-04 0.0000000000000000e+00  4.1882655411118630e-06 -4.5081986192292000e-06 0.0000000000000000e+00  2.1931111645322826e-05 -3.8165097459850182e-04 0.0000000000000000e+00  7.2084818250859062e-06 -1.0886856148726021e-05 0.0000000000000000e+00  2.3282702546017162e-05 -3.5216835232666083e-04 0.0000000000000000e+00  1.1793581419066132e-05 -2.6759716360748193e-05 0.0000000000000000e+00  1.4494358319802756e-05 -3.9890625315791978e-05 0.0000000000000000e+00  2.4335948383490528e-05 -3.2297894642284843e-04 0.0000000000000000e+00  1.9801781742352857e-05 -8.2940370330472318e-05 0.0000000000000000e+00  2.5562879482789052e-05 -2.6589133956962110e-04 0.0000000000000000e+00  1.6655464842909894e-05 -5.4712892688832184e-05 0.0000000000000000e+00  2.1609475963217924e-05 -1.0291848193585219e-04 0.0000000000000000e+00  2.5742852542832902e-05 -2.3821248442044450e-04 0.0000000000000000e+00  2.5095017599692174e-05 -2.9418379027277224e-04 0.0000000000000000e+00  2.3006729608192628e-05 -1.2479496823996090e-04 0.0000000000000000e+00  2.5634309355110927e-05 -2.1127933415251711e-04 0.0000000000000000e+00  2.3877438140633514e-05 -1.4703456079795448e-04 0.0000000000000000e+00  2.5479171719606770e-05 -1.8580531679776571e-04 0.0000000000000000e+00  2.4702809989756181e-05 -1.6535703480577248e-04 0.0000000000000000e+00  1.8396891240700711e-05 -6.7786663205710243e-05 0.0000000000000000e+00  1.8680882269575025e-05 -4.3501372692087868e-04 0.0000000000000000e+00  9.5348287216509991e-06 -1.7889599083586627e-05 0.0000000000000000e+00  9.2450190294266877e-06 -4.7076131129929178e-04 0.0000000000000000e+00  1.5200879990007181e-06 -5.7899782187986250e-08 0.0000000000000000e+00  1.6916488901304666e-05 -3.6592050199726574e-04 0.0000000000000000e+00  1.5373041011370169e-05 -3.9556495204718468e-04 0.0000000000000000e+00  7.3664326705219921e-06 -9.6925234552490845e-06 0.0000000000000000e+00  1.5772487205678786e-05 -3.4625397673509717e-05 0.0000000000000000e+00  1.9873214048735284e-05 -2.7886982282748567e-04 0.0000000000000000e+00  1.8178136822081552e-05 -3.3652498237891627e-04 0.0000000000000000e+00  2.4742693824526022e-05 -9.4055719046196533e-05 0.0000000000000000e+00  2.0319219143563129e-05 -2.5082283324390616e-04 0.0000000000000000e+00  1.8718024946119382e-05 -4.9041431511789788e-05 0.0000000000000000e+00  2.6576504210409553e-05 -1.1513092161493941e-04 0.0000000000000000e+00  2.0499613675066287e-05 -2.2345473033679120e-04 0.0000000000000000e+00  1.9161180771529793e-05 -3.0747166447667184e-04 0.0000000000000000e+00  2.9087537034314379e-05 -1.3785091270446516e-04 0.0000000000000000e+00  2.0417812174815626e-05 -1.9690017909260575e-04 0.0000000000000000e+00  -2.5729641821781292e-07 -1.4854876044155130e-06 0.0000000000000000e+00  -5.7850657864131277e-07 1.0718947194438309e-06 0.0000000000000000e+00  1.8425623424570082e-05 -4.9845374151731743e-04 0.0000000000000000e+00  3.4493409504779784e-06 -4.8168777072324260e-06 0.0000000000000000e+0