<?xml version="1.0"?>
<VTKFile type="UnstructuredGrid"  version="0.1"  >
<UnstructuredGrid>
<Piece  NumberOfPoints="1419" NumberOfCells="2698">
<Points>
<DataArray  type="Float64"  NumberOfComponents="3"  format="ascii">0 0 0  0 0.41 0  2.5 0 0  2.5 0.41 0  0.6 0.19 0  0.6 0.21 0  0.25 0.2 0  0.15 0.2 0  0.2489897948556636 0.21 0  0.2489897948556636 0.19 0  0.6 0.2 0  0 0.3807142857143437 0  0 0.3514285714286952 0  0 0.3221428571430699 0  0 0.29285714285744 0  0 0.2635714285718054 0  0 0.2342857142861561 0  0 0.2050000000005308 0  0 0.175714285714732 0  0 0.1464285714289574 0  0 0.1171428571431897 0  0 0.08785714285737878 0  0 0.05857142857161107 0  0 0.02928571428580012 0  0.03015443760436003 0 0  0.06140001986583606 0 0  0.09377624077125973 0 0  0.1273239957535082 0 0  0.1620856860351972 0 0  0.1981052433264291 0 0  0.235428184091502 0 0  0.2741016576309132 0 0  0.3141745521465447 0 0  0.3556974926295285 0 0  0.3987229542472677 0 0  0.4433053055141081 0 0  0.4895008759286886 0 0  0.5373680609405097 0 0  0.5869673343216626 0 0  0.6383613676634521 0 0  0.6916151138468254 0 0  0.7467958595648856 0 0  0.8039733463919316 0 0  0.8632198139502143 0 0  0.9246101326867038 0 0  0.9882218810934433 0 0  1.054135445558498 0 0  1.122434100542598 0 0  1.193204177141305 0 0  1.266535089879536 0 0  1.342519516046404 0 0  1.421253448503939 0 0  1.502836389106271 0 0  1.587371439758838 0 0  1.674965418777374 0 0  1.765729001825544 0 0  1.859776908880082 0 0  1.957227977487062 0 0  2.058205329869943 0 0  2.162836591189951 0 0  2.271253957290865 0 0  2.383594446803425 0 0  2.5 0.1024999999997612 0  2.5 0.2049999999994743 0  2.5 0.3074999999997183 0  2.383594446803656 0.41 0  2.271253957291315 0.41 0  2.162836591190598 0.41 0  2.058205329870775 0.41 0  1.957227977488067 0.41 0  1.859776908881246 0.41 0  1.765729001826854 0.41 0  1.674965418778818 0.41 0  1.58737143976041 0.41 0  1.502836389107956 0.41 0  1.421253448505726 0.41 0  1.342519516048286 0.41 0  1.266535089881505 0.41 0  1.193204177143353 0.41 0  1.122434100544716 0.41 0  1.05413544556068 0.41 0  0.9882218810956305 0.41 0  0.9246101326886647 0.41 0  0.8632198139519631 0.41 0  0.8039733463934788 0.41 0  0.7467958595662458 0.41 0  0.6916151138480078 0.41 0  0.6383613676644679 0.41 0  0.5869673343225223 0.41 0  0.5373680609412221 0.41 0  0.4895008759292634 0.41 0  0.4433053055145528 0.41 0  0.3987229542475914 0.41 0  0.3556974926297398 0.41 0  0.3141745521466497 0.41 0  0.2741016576310038 0.41 0  0.2354281840915826 0.41 0  0.1981052433265003 0.41 0  0.1620856860352591 0.41 0  0.1273239957535623 0.41 0  0.09377624077128965 0.41 0  0.06140001986584975 0.41 0  0.03015443760436654 0.41 0  0.2497468076502589 0.2050254481002335 0  0.2497468076502614 0.1949745518997913 0  0.2469965252529372 0.1829317073451959 0  0.2439893735792749 0.1762316384219906 0  0.2400332147834255 0.1700443375285386 0  0.2352133972704371 0.1645032867342007 0  0.2296339016332438 0.1597280261969788 0  0.2234150974217223 0.1558215752574715 0  0.2166911463437691 0.1528682099456123 0  0.2096071079204251 0.1509316448471593 0  0.2023158100364996 0.1500536585536553 0  0.194974551899914 0.1502531923497262 0  0.1877417105387872 0.1515259415822739 0  0.1807733240461124 0.153844448527136 0  0.1742197252835808 0.15715869474974 0  0.1682222986673531 0.1613971801805478 0  0.162910430003803 0.1664684656256651 0  0.1583987151779087 0.1722631454351573 0  0.1547844879126891 0.178656207771761 0  0.1521457199348551 0.1855097315605723 0  0.1505393388476355 0.1926758619366523 0  0.1505393388476328 0.2073241380633295 0  0.1521457199348437 0.2144902684393899 0  0.1547844879126531 0.221343792228163 0  0.1583987151778488 0.2277368545647528 0  0.1629104300036858 0.2335315343742052 0  0.1682222986671726 0.2386028198193036 0  0.1742197252833576 0.2428413052501257 0  0.1807733240458683 0.2461555514727623 0  0.1877417105384929 0.2484740584176516 0  0.1949745518995776 0.2497468076502398 0  0.202315810036185 0.2499463414463592 0  0.2096071079201568 0.2490683551528932 0  0.2166911463435495 0.2471317900544655 0  0.2234150974215506 0.2441784247426195 0  0.2296339016331197 0.2402719738031125 0  0.2352133972703547 0.2354967132658811 0  0.2400332147833751 0.2299556624715287 0  0.2439893735792577 0.2237683615780412 0  0.246996525252926 0.2170682926548348 0  0.25645809709277 0.21 0  0.2639263993298655 0.21 0  0.271394701566961 0.21 0  0.2788630038040554 0.21 0  0.2863313060411479 0.21 0  0.2937996082782405 0.21 0  0.301267910515333 0.21 0  0.3087362127524279 0.21 0  0.3162045149895234 0.21 0  0.3236728172265972 0.21 0  0.3311411194636928 0.21 0  0.3386094217007701 0.21 0  0.3460777239378666 0.21 0  0.3535460261749672 0.21 0  0.3610143284120516 0.21 0  0.3684826306491596 0.21 0  0.3759509328862226 0.21 0  0.383419235123329 0.21 0  0.3908875373604028 0.21 0  0.3983558395975142 0.21 0  0.4058241418345938 0.21 0  0.4132924440716992 0.21 0  0.4207607463087888 0.21 0  0.4282290485459029 0.21 0  0.4356973507830418 0.21 0  0.4431656530201649 0.21 0  0.4506339552573136 0.21 0  0.4581022574944306 0.21 0  0.4655705597315852 0.21 0  0.4730388619686996 0.21 0  0.480507164205851 0.21 0  0.4879754664429498 0.21 0  0.4954437686800938 0.21 0  0.502912070917267 0.21 0  0.5103803731544119 0.21 0  0.5178486753915261 0.21 0  0.5253169776286404 0.21 0  0.5327852798657868 0.21 0  0.5402535821029386 0.21 0  0.54772188434007 0.21 0  0.5551901865771842 0.21 0  0.5626584888143201 0.21 0  0.5701267910514778 0.21 0  0.5775950932886138 0.21 0  0.5850633955257281 0.21 0  0.5925316977628483 0.21 0  0.6 0.2050000000000054 0  0.6 0.1950000000000217 0  0.5925316977628897 0.19 0  0.5850633955257988 0.19 0  0.5775950932887378 0.19 0  0.5701267910515998 0.19 0  0.5626584888145268 0.19 0  0.5551901865773963 0.19 0  0.547721884340339 0.19 0  0.5402535821032429 0.19 0  0.5327852798661811 0.19 0  0.5253169776290537 0.19 0  0.5178486753919799 0.19 0  0.5103803731549078 0.19 0  0.502912070917822 0.19 0  0.4954437686807294 0.19 0  0.4879754664436223 0.19 0  0.4805071642065402 0.19 0  0.4730388619694271 0.19 0  0.4655705597323621 0.19 0  0.4581022574952563 0.19 0  0.4506339552581777 0.19 0  0.4431656530210671 0.19 0  0.4356973507839815 0.19 0  0.4282290485468779 0.19 0  0.4207607463097617 0.19 0  0.4132924440726327 0.19 0  0.4058241418354857 0.19 0  0.3983558395983636 0.19 0  0.3908875373612097 0.19 0  0.3834192351240934 0.19 0  0.3759509328869369 0.19 0  0.3684826306498175 0.19 0  0.361014328412667 0.19 0  0.3535460261755617 0.19 0  0.3460777239384295 0.19 0  0.3386094217012945 0.19 0  0.3311411194641595 0.19 0  0.3236728172270245 0.19 0  0.3162045149898895 0.19 0  0.3087362127527544 0.19 0  0.3012679105156187 0.19 0  0.2937996082784807 0.19 0  0.2863313060413428 0.19 0  0.2788630038042048 0.19 0  0.2713947015670686 0.19 0  0.2639263993299336 0.19 0  0.2564580970927985 0.19 0  0.2607803159922026 0.2000727136295815 0  0.5887803774232762 0.2001272386983733 0  0.5745072403740523 0.2002044435018727 0  0.5511891430099709 0.2001122610077113 0  0.2751288526855082 0.20000000000002 0  0.5365194309847112 0.1999999999999436 0  0.2894621222999649 0.1998691686390484 0  0.5215828265105155 0.1999999999999228 0  0.3127789816668748 0.1998657885438805 0  0.3274069683451451 0.2000000000000796 0  0.5066462220363641 0.199999999999908 0  0.3650630746574081 0.199866017807523 0  0.476773013087985 0.1999999999998713 0  0.3417402379596385 0.1998691686391011 0  0.3796850840047755 0.200000000000134 0  0.4618364086138087 0.1999999999998546 0  0.4917096175621762 0.1999999999998808 0  0.3946216884789568 0.2000000000001512 0  0.446899804139621 0.1999999999998389 0  0.4089549580935208 0.1998691686391595 0  0.4322718174608562 0.200127451265745 0  0.4201487168029707 0.1999966199048527 0  0.3528922713220932 0.2000185703532356 0  0.5633122436674589 0.1999814296467508 0  0.3006558810093873 0.1999966199048318 0  0.5815926498168407 0.1966545283159175 0  0.2677053789419034 0.1964246479135325 0  0.5290511287476175 0.1970915826863981 0  0.5439877332217911 0.197091582686394 0  0.2825131256993216 0.2035478995978015 0  0.3199386661080599 0.202908417313604 0  0.4842413153250809 0.1970915826863873 0  0.5141145242734466 0.1970915826863843 0  0.3722167817676917 0.2029084173136195 0  0.4693047108508938 0.1970915826863783 0  0.3348752705822316 0.202908417313609 0  0.3871533862418661 0.2029084173136212 0  0.4543681063767183 0.1970915826863795 0  0.4991779197992749 0.1970915826863902 0  0.4020059614928624 0.203547899597858 0  0.4394315019025246 0.1970915826863714 0  0.2550657455369551 0.2034088125358657 0  0.2548908499171161 0.1966940311614271 0  0.5946539510196798 0.2024302972968126 0  0.267698176732111 0.2039977513680092 0  0.4261685417851465 0.196409292431739 0  0.3590076176283495 0.196411355804271 0  0.5571672426447437 0.2036011176410121 0  0.3066757059912147 0.1964092924317024 0  0.594380730180568 0.1966558399668133 0  0.4842413153245942 0.2040749161535287 0  0.4693047108503577 0.2040749161535231 0  0.3871533862424271 0.1959250838464788 0  0.372246743208829 0.1959123236376545 0  0.5141145242731028 0.2040749161535395 0  0.4543681063761134 0.2040749161535186 0  0.4019979587101454 0.1959834479682427 0  0.4394608940728603 0.2040870543693135 0  0.5439623148931173 0.2040856076781014 0  0.5290511287473298 0.2040749161535501 0  0.4991779197988497 0.2040749161535382 0  0.3347912413592433 0.1959225448935183 0  0.3199680582793816 0.1959123018030061 0  0.2825051229162361 0.1959834479681729 0  0.3590471196690275 0.2036304442587945 0  0.5571594006495384 0.1963685282145804 0  0.3067669986803285 0.203627750582736 0  0.4262598344738712 0.2036568242185335 0  0.5814408164431408 0.2041285596160068 0  0.5688286748170428 0.1961819304477386 0  0.4145905603063645 0.2038180695522843 0  0.3473758401724931 0.2038180695522752 0  0.2950977245128307 0.2038180695522663 0  0.5688286748170693 0.203818069552238 0  0.2950977245127906 0.1961819304477774 0  0.3473758401723931 0.1961819304478349 0  0.4145905603061963 0.1961819304479011 0  0.2601812407614425 0.2056861609747042
[...]
<PointData  Vectors="f_40-0"> 
<DataArray  type="Float64"  Name="f_40-0"  NumberOfComponents="3" format="ascii">0.0000000000000000e+00 0.0000000000000000e+00 0.0000000000000000e+00  0.0000000000000000e+00 0.0000000000000000e+00 0.0000000000000000e+00  0.0000000000000000e+00 0.0000000000000000e+00 0.0000000000000000e+00  0.0000000000000000e+00 0.0000000000000000e+00 0.0000000000000000e+00  -1.6993266043437427e-05 -1.6702944866237577e-04 0.0000000000000000e+00  -3.9261053411652953e-06 -1.7316034031957065e-04 0.0000000000000000e+00  0.0000000000000000e+00 0.0000000000000000e+00 0.0000000000000000e+00  0.0000000000000000e+00 0.0000000000000000e+00 0.0000000000000000e+00  0.0000000000000000e+00 0.0000000000000000e+00 0.0000000000000000e+00  0.0000000000000000e+00 0.0000000000000000e+00 0.0000000000000000e+00  -1.0982091963156919e-05 -1.7009978204810263e-04 0.0000000000000000e+00  2.5889878224850737e-02 0.0000000000000000e+00 0.0000000000000000e+00  4.7796698261266070e-02 0.0000000000000000e+00 0.0000000000000000e+00  6.5720460109240861e-02 0.0000000000000000e+00 0.0000000000000000e+00  7.9661163768795853e-02 0.0000000000000000e+00 0.0000000000000000e+00  8.9618809239929237e-02 0.0000000000000000e+00 0.0000000000000000e+00  9.5593396522640428e-02 0.0000000000000000e+00 0.0000000000000000e+00  9.7584925616923446e-02 0.0000000000000000e+00 0.0000000000000000e+00  9.5593396522761234e-02 0.0000000000000000e+00 0.0000000000000000e+00  8.9618809240136724e-02 0.0000000000000000e+00 0.0000000000000000e+00  7.9661163769052801e-02 0.0000000000000000e+00 0.0000000000000000e+00  6.5720460109484971e-02 0.0000000000000000e+00 0.0000000000000000e+00  4.7796698261474369e-02 0.0000000000000000e+00 0.0000000000000000e+00  2.5889878224968105e-02 0.0000000000000000e+00 0.0000000000000000e+00  0.0000000000000000e+00 0.0000000000000000e+00 0.0000000000000000e+00  0.0000000000000000e+00 0.0000000000000000e+00 0.0000000000000000e+00  0.0000000000000000e+00 0.0000000000000000e+00 0.0000000000000000e+00  0.0000000000000000e+00 0.0000000000000000e+00 0.0000000000000000e+00  0.0000000000000000e+00 0.0000000000000000e+00 0.0000000000000000e+00  0.0000000000000000e+00 0.0000000000000000e+00 0.0000000000000000e+00  0.0000000000000000e+00 0.0000000000000000e+00 0.0000000000000000e+00  0.0000000000000000e+00 0.0000000000000000e+00 0.0000000000000000e+00  0.0000000000000000e+00 0.0000000000000000e+00 0.0000000000000000e+00  0.0000000000000000e+00 0.0000000000000000e+00 0.0000000000000000e+00  0.0000000000000000e+00 0.0000000000000000e+00 0.0000000000000000e+00  0.0000000000000000e+00 0.0000000000000000e+00 0.0000000000000000e+00  0.0000000000000000e+00 0.0000000000000000e+00 0.0000000000000000e+00  0.0000000000000000e+00 0.0000000000000000e+00 0.0000000000000000e+00  0.0000000000000000e+00 0.0000000000000000e+00 0.0000000000000000e+00  0.0000000000000000e+00 0.0000000000000000e+00 0.0000000000000000e+00  0.0000000000000000e+00 0.0000000000000000e+00 0.0000000000000000e+00  0.0000000000000000e+00 0.0000000000000000e+00 0.0000000000000000e+00  0.0000000000000000e+00 0.0000000000000000e+00 0.0000000000000000e+00  0.0000000000000000e+00 0.0000000000000000e+00 0.0000000000000000e+00  0.0000000000000000e+00 0.0000000000000000e+00 0.0000000000000000e+00  0.0000000000000000e+00 0.0000000000000000e+00 0.0000000000000000e+00  0.0000000000000000e+00 0.0000000000000000e+00 0.0000000000000000e+00  0.0000000000000000e+00 0.0000000000000000e+00 0.0000000000000000e+00  0.0000000000000000e+00 0.0000000000000000e+00 0.0000000000000000e+00  0.0000000000000000e+00 0.0000000000000000e+00 0.0000000000000000e+00  0.0000000000000000e+00 0.0000000000000000e+00 0.0000000000000000e+00  0.0000000000000000e+00 0.0000000000000000e+00 0.0000000000000000e+00  0.0000000000000000e+00 0.0000000000000000e+00 0.0000000000000000e+00  0.0000000000000000e+00 0.0000000000000000e+00 0.0000000000000000e+00  0.0000000000000000e+00 0.0000000000000000e+00 0.0000000000000000e+00  0.0000000000000000e+00 0.0000000000000000e+00 0.0000000000000000e+00  0.0000000000000000e+00 0.0000000000000000e+00 0.0000000000000000e+00  0.0000000000000000e+00 0.0000000000000000e+00 0.0000000000000000e+00  0.0000000000000000e+00 0.0000000000000000e+00 0.0000000000000000e+00  0.0000000000000000e+00 0.0000000000000000e+00 0.0000000000000000e+00  0.0000000000000000e+00 0.0000000000000000e+00 0.0000000000000000e+00  0.0000000000000000e+00 0.0000000000000000e+00 0.0000000000000000e+00  9.3090049967676655e-02 4.0461387243923728e-03 0.0000000000000000e+00  6.5906500361954279e-02 -7.9751404038493404e-04 0.0000000000000000e+00  9.3926102876835518e-02 -4.5389306228173941e-03 0.0000000000000000e+00  0.0000000000000000e+00 0.0000000000000000e+00 0.0000000000000000e+00  0.0000000000000000e+00 0.0000000000000000e+00 0.0000000000000000e+00  0.0000000000000000e+00 0.0000000000000000e+00 0.0000000000000000e+00  0.0000000000000000e+00 0.0000000000000000e+00 0.0000000000000000e+00  0.0000000000000000e+00 0.0000000000000000e+00 0.0000000000000000e+00  0.0000000000000000e+00 0.0000000000000000e+00 0.0000000000000000e+00  0.0000000000000000e+00 0.0000000000000000e+00 0.0000000000000000e+00  0.0000000000000000e+00 0.0000000000000000e+00 0.0000000000000000e+00  0.0000000000000000e+00 0.0000000000000000e+00 0.0000000000000000e+00  0.0000000000000000e+00 0.0000000000000000e+00 0.0000000000000000e+00  0.0000000000000000e+00 0.0000000000000000e+00 0.0000000000000000e+00  0.0000000000000000e+00 0.0000000000000000e+00 0.0000000000000000e+00  0.0000000000000000e+00 0.0000000000000000e+00 0.0000000000000000e+00  0.0000000000000000e+00 0.0000000000000000e+00 0.0000000000000000e+00  0.0000000000000000e+00 0.0000000000000000e+00 0.0000000000000000e+00  0.0000000000000000e+00 0.0000000000000000e+00 0.0000000000000000e+00  0.0000000000000000e+00 0.0000000000000000e+00 0.0000000000000000e+00  0.0000000000000000e+00 0.0000000000000000e+00 0.0000000000000000e+00  0.0000000000000000e+00 0.0000000000000000e+00 0.0000000000000000e+00  0.0000000000000000e+00 0.0000000000000000e+00 0.0000000000000000e+00  0.0000000000000000e+00 0.0000000000000000e+00 0.0000000000000000e+00  0.0000000000000000e+00 0.0000000000000000e+00 0.0000000000000000e+00  0.0000000000000000e+00 0.0000000000000000e+00 0.0000000000000000e+00  0.0000000000000000e+00 0.0000000000000000e+00 0.0000000000000000e+00  0.0000000000000000e+00 0.0000000000000000e+00 0.0000000000000000e+00  0.0000000000000000e+00 0.0000000000000000e+00 0.0000000000000000e+00  0.0000000000000000e+00 0.0000000000000000e+00 0.0000000000000000e+00  0.0000000000000000e+00 0.0000000000000000e+00 0.0000000000000000e+00  0.0000000000000000e+00 0.0000000000000000e+00 0.0000000000000000e+00  0.0000000000000000e+00 0.0000000000000000e+00 0.0000000000000000e+00  0.0000000000000000e+00 0.0000000000000000e+00 0.0000000000000000e+00  0.0000000000000000e+00 0.0000000000000000e+00 0.0000000000000000e+00  0.0000000000000000e+00 0.0000000000000000e+00 0.0000000000000000e+00  0.0000000000000000e+00 0.0000000000000000e+00 0.0000000000000000e+00  0.0000000000000000e+00 0.0000000000000000e+00 0.0000000000000000e+00  0.0000000000000000e+00 0.0000000000000000e+00 0.0000000000000000e+00  0.0000000000000000e+00 0.0000000000000000e+00 0.0000000000000000e+00  0.0000000000000000e+00 0.0000000000000000e+00 0.0000000000000000e+00  0.0000000000000000e+00 0.0000000000000000e+00 0.0000000000000000e+00  0.0000000000000000e+00 0.0000000000000000e+00 0.0000000000000000e+00  0.0000000000000000e+00 0.0000000000000000e+00 0.0000000000000000e+00  0.0000000000000000e+00 0.0000000000000000e+00 0.0000000000000000e+00  0.0000000000000000e+00 0.0000000000000000e+00 0.0000000000000000e+00  0.0000000000000000e+00 0.0000000000000000e+00 0.0000000000000000e+00  0.0000000000000000e+00 0.0000000000000000e+00 0.0000000000000000e+00  0.0000000000000000e+00 0.0000000000000000e+00 0.0000000000000000e+00  0.0000000000000000e+00 0.0000000000000000e+00 0.0000000000000000e+00  0.0000000000000000e+00 0.0000000000000000e+00 0.0000000000000000e+00  0.0000000000000000e+00 0.0000000000000000e+00 0.0000000000000000e+00  0.0000000000000000e+00 0.0000000000000000e+00 0.0000000000000000e+00  0.0000000000000000e+00 0.0000000000000000e+00 0.0000000000000000e+00  0.0000000000000000e+00 0.0000000000000000e+00 0.0000000000000000e+00  0.0000000000000000e+00 0.0000000000000000e+00 0.0000000000000000e+00  0.0000000000000000e+00 0.0000000000000000e+00 0.0000000000000000e+00  0.0000000000000000e+00 0.0000000000000000e+00 0.0000000000000000e+00  0.0000000000000000e+00 0.0000000000000000e+00 0.0000000000000000e+00  0.0000000000000000e+00 0.0000000000000000e+00 0.0000000000000000e+00  0.0000000000000000e+00 0.0000000000000000e+00 0.0000000000000000e+00  0.0000000000000000e+00 0.0000000000000000e+00 0.0000000000000000e+00  0.0000000000000000e+00 0.0000000000000000e+00 0.0000000000000000e+00  0.0000000000000000e+00 0.0000000000000000e+00 0.0000000000000000e+00  0.0000000000000000e+00 0.0000000000000000e+00 0.0000000000000000e+00  0.0000000000000000e+00 0.0000000000000000e+00 0.0000000000000000e+00  0.0000000000000000e+00 0.0000000000000000e+00 0.0000000000000000e+00  0.0000000000000000e+00 0.0000000000000000e+00 0.0000000000000000e+00  0.0000000000000000e+00 0.0000000000000000e+00 0.0000000000000000e+00  0.0000000000000000e+00 0.0000000000000000e+00 0.0000000000000000e+00  0.0000000000000000e+00 0.0000000000000000e+00 0.0000000000000000e+00  0.0000000000000000e+00 0.0000000000000000e+00 0.0000000000000000e+00  0.0000000000000000e+00 0.0000000000000000e+00 0.0000000000000000e+00  0.0000000000000000e+00 0.0000000000000000e+00 0.0000000000000000e+00  0.0000000000000000e+00 0.0000000000000000e+00 0.0000000000000000e+00  0.0000000000000000e+00 0.0000000000000000e+00 0.0000000000000000e+00  0.0000000000000000e+00 0.0000000000000000e+00 0.0000000000000000e+00  0.0000000000000000e+00 0.0000000000000000e+00 0.0000000000000000e+00  0.0000000000000000e+00 0.0000000000000000e+00 0.0000000000000000e+00  0.0000000000000000e+00 0.0000000000000000e+00 0.0000000000000000e+00  0.0000000000000000e+00 0.0000000000000000e+00 0.0000000000000000e+00  6.6247145142036127e-07 -5.7388205204710951e-06 0.0000000000000000e+00  1.5538647343209800e-06 -6.5846151424963949e-06 0.0000000000000000e+00  2.6780371794262481e-06 -7.3929443189443571e-06 0.0000000000000000e+00  3.9496515453481207e-06 -8.3240362467381789e-06 0.0000000000000000e+00  5.1756018307258438e-06 -9.4928392951790966e-06 0.0000000000000000e+00  6.3866803343690389e-06 -1.0983594572803440e-05 0.0000000000000000e+00  7.4835876712566972e-06 -1.2665419295847115e-05 0.0000000000000000e+00  8.5053723394715945e-06 -1.4609645201362935e-05 0.0000000000000000e+00  9.5280471089932396e-06 -1.6755137313032121e-05 0.0000000000000000e+00  1.0404762504522581e-05 -1.9086791005056889e-05 0.0000000000000000e+00  1.1281294625662322e-05 -2.1645666344534726e-05 0.0000000000000000e+00  1.2020658653330212e-05 -2.4353971960702473e-05 0.0000000000000000e+00  1.2733530360116405e-05 -2.7250884553710188e-05 0.0000000000000000e+00  1.3344142880434560e-05 -3.0290202479757383e-05 0.0000000000000000e+00  1.3876650807383134e-05 -3.3487500206776485e-05 0.0000000000000000e+00  1.4389047369666394e-05 -3.6827985591146773e-05 0.0000000000000000e+00  1.4778148814575757e-05 -4.0264682953846240e-05 0.0000000000000000e+00  1.5138018707838824e-05 -4.3865319229281817e-05 0.0000000000000000e+00  1.5387094682584571e-05 -4.7530261411930243e-05 0.0000000000000000e+00  1.5603793561304382e-05 -5.1337721232586423e-05 0.0000000000000000e+00  1.5722744138819360e-05 -5.5199579545767453e-05 0.0000000000000000e+00  1.5784138991832099e-05 -5.9175749937946956e-05 0.0000000000000000e+00  1.5773826735019632e-05 -6.3220927086971978e-05 0.0000000000000000e+00  1.5688480418114619e-05 -6.7338209074236302e-05 0.0000000000000000e+00  1.5566431527895424e-05 -7.1535872758665074e-05 0.0000000000000000e+00  1.5355210771401276e-05 -7.5765419351230936e-05 0.0000000000000000e+00  1.5077590536591146e-05 -8.0100195438821779e-05 0.0000000000000000e+00  1.4733007563651241e-05 -8.4440960434402620e-05 0.0000000000000000e+00  1.4322543586655920e-05 -8.8870495012327496e-05 0.0000000000000000e+00  1.3845484833388220e-05 -9.3307861227208939e-05 0.0000000000000000e+00  1.3306177900028612e-05 -9.7819387238008999e-05 0.0000000000000000e+00  1.2696150100385643e-05 -1.0233040600585225e-04 0.0000000000000000e+00  1.2029317912209263e-05 -1.0691246636940664e-04 0.0000000000000000e+00  1.1289836852606245e-05 -1.1147971363659759e-04 0.0000000000000000e+00  1.0483717081647394e-05 -1.1612034613104556e-04 0.0000000000000000e+00  9.6141884106573792e-06 -1.2074421630562880e-04 0.0000000000000000e+00  8.6828058762707319e-06 -1.2542735042558593e-04 0.0000000000000000e+00  7.6853140248658862e-06 -1.3009270238058157e-04 0.0000000000000000e+00  6.6224105100573540e-06 -1.3481159852122562e-04 0.0000000000000000e+00  5.4892192184711967e-06 -1.3951126119723933e-04 0.0000000000000000e+00  4.2857344252949048e-06 -1.4424660719612178e-04 0.0000000000000000e+00  3.0258409659462529e-06 -1.4897754854435087e-04 0.0000000000000000e+00  1.6893656097082482e-06 -1.5372858923777088e-04 0.0000000000000000e+00  3.1485883283340969e-07 -1.5847991002196417e-04 0.0000000000000000e+00  -1.1357904234332128e-06 -1.6321626845201365e-04 0.0000000000000000e+00  -2.5949798250012232e-06 -1.6802838139239531e-04 0.0000000000000000e+00  -7.6347654079804031e-06 -1.7161466464014083e-04 0.0000000000000000e+00  -1.4137364068127151e-05 -1.6858582273905818e-04 0.0000000000000000e+00  -1.5622594979642395e-05 -1.6243547300064120e-04 0.0000000000000000e+00  -1.4133549269403938e-05 -1.5751385428512389e-04 0.0000000000000000e+00  -1.2653814869842515e-05 -1.5255801638521430e-04 0.0000000000000000e+00  -1.1246149937638100e-05 -1.4763672067023590e-04 0.0000000000000000e+00  -9.8797050717880328e-06 -1.4272669208683072e-04 0.0000000000000000e+00  -8.5918027250203467e-06 -1.3783072071745327e-04 0.0000000000000000e+00  -7.3500246478608414e-06 -1.3295322438517117e-04 0.0000000000000000e+00  -6.1830921432855138e-06 -1.2807277669806149e-04 0.0000000000000000e+00  -5.0695450962870548e-06 -1.2323907353241397e-04 0.0000000000000000e+00  -4.0233068533544683e-06 -1.1838824895737226e-04 0.0000000000000000e+00  -3.0298666539871509e-06 -1.1359118262208033e-04 0.0000000000000000e+00  -2.1035385243419703e-06 -1.0878284556729727e-04 0.0000000000000000e+00  -1.2268476851145601e-06 -1.0403311404920611e-04 0.0000000000000000e+00  -4.1664441281164266e-07 -9.9277238015373610e-05 0.0000000000000000e+00  3.4677636948407276e-07 -9.4585913745673272e-05 0.0000000000000000e+00  1.0423943368563649e-06 -8.9894209154918418e-05 0.0000000000000000e+00  1.6944355857004563e-06 -8.5270438979110022e-05 0.0000000000000000e+00  2.2760703501494419e-06 -8.0652885650005251e-05 0.0000000000000000e+00  2.8176560362808532e-06 -7.6114087084239542e-05 0.0000000000000000e+00  3.2890155147279176e-06 -7.1591426563788048e-05 0.0000000000000000e+00  3.7255827229518869e-06 -6.7154788117932313e-05 0.0000000000000000e+00  4.0886573722124870e-06 -6.2745066789627211e-05 0.0000000000000000e+00  4.4114006060180313e-06 -5.8418181160803971e-05 0.0000000000000000e+00  4.6761089953915483e-06 -5.4148906916681887e-05 0.0000000000000000e+00  4.8757702155902346e-06 -4.9963987227415061e-05 0.0000000000000000e+00  5.0618158654499048e-06 -4.5854271442331020e-05 0.0000000000000000e+00  5.1717701892768421e-06 -4.1817676004918380e-05 0.0000000000000000e+00  5.2443764939189243e-06 -3.7908677562658138e-05 0.0000000000000000e+00  5.2558601309504421e-06 -3.4062788320310804e-05 0.0000000000000000e+00  5.2291433854563295e-06 -3.0364709981934198e-05 0.0000000000000000e+00  5.1428177595087770e-06 -2.6743256011187040e-05 0.0000000000000000e+00  5.0283775841590626e-06 -2.3293693422505060e-05 0.0000000000000000e+00  4.8514279136433213e-06 -1.9943478764730614e-05 0.0000000000000000e+00  4.6182333169799572e-06 -1.6776377705876260e-05 0.0000000000000000e+00  4.3921411040043756e-06 -1.3733401461649450e-05 0.0000000000000000e+00  4.0893401715191932e-06 -1.0871082977696149e-05 0.0000000000000000e+00  3.7614353337052293e-06 -8.2108951387629424e-06 0.0000000000000000e+00  3.3731434248070432e-06 -5.7154231807066264e-06 0.0000000000000000e+00  2.9778081285579469e-06 -3.4624900549331927e-06 0.0000000000000000e+00  2.5068964603179177e-06 -1.3877510113233232e-06 0.0000000000000000e+00  1.9842520983812913e-06 4.1913081659406562e-07 0.0000000000000000e+00  1.4987202953179795e-06 2.0221163766356874e-06 0.0000000000000000e+00  9.2394448704389788e-07 3.3977846023628949e-06 0.0000000000000000e+00  4.3841845026751155e-07 4.4816013373297674e-06 0.0000000000000000e+00  1.6311891709739014e-08 5.1108799192440363e-06 0.0000000000000000e+00  -7.8092586303259239e-08 5.1237585493572423e-06 0.0000000000000000e+00  -4.7475171966326664e-07 -3.4719391062743179e-07 0.0000000000000000e+00  -8.4646122588660772e-06 -1.6281284524476798e-04 0.0000000000000000e+00  -5.5062527924858056e-06 -1.5356934157714178e-04 0.0000000000000000e+00  -1.4685187482562741e-06 -1.3848933201412582e-04 0.0000000000000000e+00  1.9357782048745639e-06 -1.7492273132553031e-06 0.0000000000000000e+00  7.0864922810963480e-07 -1.2904020864564072e-04 0.0000000000000000e+00  3.6454627913340574e-06 -4.1076060044873747e-06 0.0000000000000000e+00  2.7575154614683270e-06 -1.1952101483655733e-04 0.0000000000000000e+00  6.0465826399311214e-06 -9.9863169875311154e-06 0.0000000000000000e+00  7.3355374914901696e-06 -1.4808997709167226e-05 0.0000000000000000e+00  4.5573678302211545e-06 -1.1008482584657878e-04 0.0000000000000000e+00  9.5209691670406106e-06 -3.0058245129597436e-05 0.0000000000000000e+00  7.4190080611959678e-06 -9.1542585453700614e-05 0.0000000000000000e+00  8.3160831732574994e-06 -2.0085479372392914e-05 0.0000000000000000e+00  1.0049076459949217e-05 -3.7050589276792814e-05 0.0000000000000000e+00  8.4847322920847508e-06 -8.2484216856081694e-05 0.0000000000000000e+00  6.1107486748619178e-06 -1.0075076177720185e-04 0.0000000000000000e+00  1.0302449582764243e-05 -4.4570243246227050e-05 0.0000000000000000e+00  9.3083292454887130e-06 -7.3610648046785147e-05 0.0000000000000000e+00  1.0258049802698763e-05 -5.2091771552902487e-05 0.0000000000000000e+00  9.9613870673709426e-06 -6.5189467475943591e-05 0.0000000000000000e+00  1.0165303931141619e-05 -5.8306216659756508e-05 0.0000000000000000e+00  9.0037887218222540e-06 -2.4776111544791143e-05 0.0000000000000000e+00  -3.6289701699012155e-06 -1.4626335113249853e-04 0.0000000000000000e+00  4.8695126183710067e-06 -6.7614713639189858e-06 0.0000000000000000e+00  -9.2096532372646425e-06 -1.5714729841166932e-04 0.0000000000000000e+00  5.0716448005983546e-07 1.3106475255682872e-06 0.0000000000000000e+00  -8.6583390222606400e-08 -1.2326329636187011e-04 0.0000000000000000e+00  -2.2728571675542925e-06 -1.3285965784756636e-04 0.0000000000000000e+00  3.4383551813957629e-06 -4.9695499108693849e-06 0.0000000000000000e+00  7.6545114363733235e-06 -1.3899387221161047e-05 0.0000000000000000e+00  5.0059350104295791e-06 -9.4993830811820331e-05 0.0000000000000000e+00  1.8539256565847823e-06 -1.1374015969501129e-04 0.0000000000000000e+00  1.1203833201036824e-05 -3.4918257030440910e-05 0.0000000000000000e+00  6.2233594685791896e-06 -8.5814450988803745e-05 0.0000000000000000e+00  8.9693113278384465e-06 -1.9086357539699656e-05 0.0000000000000000e+00  1.1658727967675965e-05 -4.2181453362813885e-05 0.0000000000000000e+00  7.2037080173652465e-06 -7.6802384290588257e-05 0.0000000000000000e+00  3.5502212337804953e-06 -1.0430927176240925e-04 0.0000000000000000e+00  1.2209979541108486e-05 -5.0121723431721757e-05 0.0000000000000000e+00  7.9509114818164288e-06 -6.7994167297128828e-05 0.0000000000000000e+00  -8.0961410831153891e-07 -1.3818502066485626e-06 0.0000000000000000e+00  -9.2018456034297782e-07 1.1258703583904781e-06 0.0000000000000000e+00  -8.2350799985626194e-06 -1.6728817274058426e-04 0.0000000000000000e+00  1.2507077885173974e-06 -3.3762320150637339e-06 0.0