<?xml version="1.0"?>
<VTKFile type="UnstructuredGrid"  version="0.1"  >
<UnstructuredGrid>
<Piece  NumberOfPoints="1419" NumberOfCells="2698">
<Points>
<DataArray  type="Float64"  NumberOfComponents="3"  format="ascii">0 0 0  0 0.41 0  2.5 0 0  2.5 0.41 0  0.6 0.19 0  0.6 0.21 0  0.25 0.2 0  0.15 0.2 0  0.2489897948556636 0.21 0  0.2489897948556636 0.19 0  0.6 0.2 0  0 0.3807142857143437 0  0 0.3514285714286952 0  0 0.3221428571430699 0  0 0.29285714285744 0  0 0.2635714285718054 0  0 0.2342857142861561 0  0 0.2050000000005308 0  0 0.175714285714732 0  0 0.1464285714289574 0  0 0.1171428571431897 0  0 0.08785714285737878 0  0 0.05857142857161107 0  0 0.02928571428580012 0  0.03015443760436003 0 0  0.06140001986583606 0 0  0.09377624077125973 0 0  0.1273239957535082 0 0  0.1620856860351972 0 0  0.1981052433264291 0 0  0.235428184091502 0 0  0.2741016576309132 0 0  0.3141745521465447 0 0  0.3556974926295285 0 0  0.3987229542472677 0 0  0.4433053055141081 0 0  0.4895008759286886 0 0  0.5373680609405097 0 0  0.5869673343216626 0 0  0.6383613676634521 0 0  0.6916151138468254 0 0  0.7467958595648856 0 0  0.8039733463919316 0 0  0.8632198139502143 0 0  0.9246101326867038 0 0  0.9882218810934433 0 0  1.054135445558498 0 0  1.122434100542598 0 0  1.193204177141305 0 0  1.266535089879536 0 0  1.342519516046404 0 0  1.421253448503939 0 0  1.502836389106271 0 0  1.587371439758838 0 0  1.674965418777374 0 0  1.765729001825544 0 0  1.859776908880082 0 0  1.957227977487062 0 0  2.058205329869943 0 0  2.162836591189951 0 0  2.271253957290865 0 0  2.383594446803425 0 0  2.5 0.1024999999997612 0  2.5 0.2049999999994743 0  2.5 0.3074999999997183 0  2.383594446803656 0.41 0  2.271253957291315 0.41 0  2.162836591190598 0.41 0  2.058205329870775 0.41 0  1.957227977488067 0.41 0  1.859776908881246 0.41 0  1.765729001826854 0.41 0  1.674965418778818 0.41 0  1.58737143976041 0.41 0  1.502836389107956 0.41 0  1.421253448505726 0.41 0  1.342519516048286 0.41 0  1.266535089881505 0.41 0  1.193204177143353 0.41 0  1.122434100544716 0.41 0  1.05413544556068 0.41 0  0.9882218810956305 0.41 0  0.9246101326886647 0.41 0  0.8632198139519631 0.41 0  0.8039733463934788 0.41 0  0.7467958595662458 0.41 0  0.6916151138480078 0.41 0  0.6383613676644679 0.41 0  0.5869673343225223 0.41 0  0.5373680609412221 0.41 0  0.4895008759292634 0.41 0  0.4433053055145528 0.41 0  0.3987229542475914 0.41 0  0.3556974926297398 0.41 0  0.3141745521466497 0.41 0  0.2741016576310038 0.41 0  0.2354281840915826 0.41 0  0.1981052433265003 0.41 0  0.1620856860352591 0.41 0  0.1273239957535623 0.41 0  0.09377624077128965 0.41 0  0.06140001986584975 0.41 0  0.03015443760436654 0.41 0  0.2497468076502589 0.2050254481002335 0  0.2497468076502614 0.1949745518997913 0  0.2469965252529372 0.1829317073451959 0  0.2439893735792749 0.1762316384219906 0  0.2400332147834255 0.1700443375285386 0  0.2352133972704371 0.1645032867342007 0  0.2296339016332438 0.1597280261969788 0  0.2234150974217223 0.1558215752574715 0  0.2166911463437691 0.1528682099456123 0  0.2096071079204251 0.1509316448471593 0  0.2023158100364996 0.1500536585536553 0  0.194974551899914 0.1502531923497262 0  0.1877417105387872 0.1515259415822739 0  0.1807733240461124 0.153844448527136 0  0.1742197252835808 0.15715869474974 0  0.1682222986673531 0.1613971801805478 0  0.162910430003803 0.1664684656256651 0  0.1583987151779087 0.1722631454351573 0  0.1547844879126891 0.178656207771761 0  0.1521457199348551 0.1855097315605723 0  0.1505393388476355 0.1926758619366523 0  0.1505393388476328 0.2073241380633295 0  0.1521457199348437 0.2144902684393899 0  0.1547844879126531 0.221343792228163 0  0.1583987151778488 0.2277368545647528 0  0.1629104300036858 0.2335315343742052 0  0.1682222986671726 0.2386028198193036 0  0.1742197252833576 0.2428413052501257 0  0.1807733240458683 0.2461555514727623 0  0.1877417105384929 0.2484740584176516 0  0.1949745518995776 0.2497468076502398 0  0.202315810036185 0.2499463414463592 0  0.2096071079201568 0.2490683551528932 0  0.2166911463435495 0.2471317900544655 0  0.2234150974215506 0.2441784247426195 0  0.2296339016331197 0.2402719738031125 0  0.2352133972703547 0.2354967132658811 0  0.2400332147833751 0.2299556624715287 0  0.2439893735792577 0.2237683615780412 0  0.246996525252926 0.2170682926548348 0  0.25645809709277 0.21 0  0.2639263993298655 0.21 0  0.271394701566961 0.21 0  0.2788630038040554 0.21 0  0.2863313060411479 0.21 0  0.2937996082782405 0.21 0  0.301267910515333 0.21 0  0.3087362127524279 0.21 0  0.3162045149895234 0.21 0  0.3236728172265972 0.21 0  0.3311411194636928 0.21 0  0.3386094217007701 0.21 0  0.3460777239378666 0.21 0  0.3535460261749672 0.21 0  0.3610143284120516 0.21 0  0.3684826306491596 0.21 0  0.3759509328862226 0.21 0  0.383419235123329 0.21 0  0.3908875373604028 0.21 0  0.3983558395975142 0.21 0  0.4058241418345938 0.21 0  0.4132924440716992 0.21 0  0.4207607463087888 0.21 0  0.4282290485459029 0.21 0  0.4356973507830418 0.21 0  0.4431656530201649 0.21 0  0.4506339552573136 0.21 0  0.4581022574944306 0.21 0  0.4655705597315852 0.21 0  0.4730388619686996 0.21 0  0.480507164205851 0.21 0  0.4879754664429498 0.21 0  0.4954437686800938 0.21 0  0.502912070917267 0.21 0  0.5103803731544119 0.21 0  0.5178486753915261 0.21 0  0.5253169776286404 0.21 0  0.5327852798657868 0.21 0  0.5402535821029386 0.21 0  0.54772188434007 0.21 0  0.5551901865771842 0.21 0  0.5626584888143201 0.21 0  0.5701267910514778 0.21 0  0.5775950932886138 0.21 0  0.5850633955257281 0.21 0  0.5925316977628483 0.21 0  0.6 0.2050000000000054 0  0.6 0.1950000000000217 0  0.5925316977628897 0.19 0  0.5850633955257988 0.19 0  0.5775950932887378 0.19 0  0.5701267910515998 0.19 0  0.5626584888145268 0.19 0  0.5551901865773963 0.19 0  0.547721884340339 0.19 0  0.5402535821032429 0.19 0  0.5327852798661811 0.19 0  0.5253169776290537 0.19 0  0.5178486753919799 0.19 0  0.5103803731549078 0.19 0  0.502912070917822 0.19 0  0.4954437686807294 0.19 0  0.4879754664436223 0.19 0  0.4805071642065402 0.19 0  0.4730388619694271 0.19 0  0.4655705597323621 0.19 0  0.4581022574952563 0.19 0  0.4506339552581777 0.19 0  0.4431656530210671 0.19 0  0.4356973507839815 0.19 0  0.4282290485468779 0.19 0  0.4207607463097617 0.19 0  0.4132924440726327 0.19 0  0.4058241418354857 0.19 0  0.3983558395983636 0.19 0  0.3908875373612097 0.19 0  0.3834192351240934 0.19 0  0.3759509328869369 0.19 0  0.3684826306498175 0.19 0  0.361014328412667 0.19 0  0.3535460261755617 0.19 0  0.3460777239384295 0.19 0  0.3386094217012945 0.19 0  0.3311411194641595 0.19 0  0.3236728172270245 0.19 0  0.3162045149898895 0.19 0  0.3087362127527544 0.19 0  0.3012679105156187 0.19 0  0.2937996082784807 0.19 0  0.2863313060413428 0.19 0  0.2788630038042048 0.19 0  0.2713947015670686 0.19 0  0.2639263993299336 0.19 0  0.2564580970927985 0.19 0  0.2607803159922026 0.2000727136295815 0  0.5887803774232762 0.2001272386983733 0  0.5745072403740523 0.2002044435018727 0  0.5511891430099709 0.2001122610077113 0  0.2751288526855082 0.20000000000002 0  0.5365194309847112 0.1999999999999436 0  0.2894621222999649 0.1998691686390484 0  0.5215828265105155 0.1999999999999228 0  0.3127789816668748 0.1998657885438805 0  0.3274069683451451 0.2000000000000796 0  0.5066462220363641 0.199999999999908 0  0.3650630746574081 0.199866017807523 0  0.476773013087985 0.1999999999998713 0  0.3417402379596385 0.1998691686391011 0  0.3796850840047755 0.200000000000134 0  0.4618364086138087 0.1999999999998546 0  0.4917096175621762 0.1999999999998808 0  0.3946216884789568 0.2000000000001512 0  0.446899804139621 0.1999999999998389 0  0.4089549580935208 0.1998691686391595 0  0.4322718174608562 0.200127451265745 0  0.4201487168029707 0.1999966199048527 0  0.3528922713220932 0.2000185703532356 0  0.5633122436674589 0.1999814296467508 0  0.3006558810093873 0.1999966199048318 0  0.5815926498168407 0.1966545283159175 0  0.2677053789419034 0.1964246479135325 0  0.5290511287476175 0.1970915826863981 0  0.5439877332217911 0.197091582686394 0  0.2825131256993216 0.2035478995978015 0  0.3199386661080599 0.202908417313604 0  0.4842413153250809 0.1970915826863873 0  0.5141145242734466 0.1970915826863843 0  0.3722167817676917 0.2029084173136195 0  0.4693047108508938 0.1970915826863783 0  0.3348752705822316 0.202908417313609 0  0.3871533862418661 0.2029084173136212 0  0.4543681063767183 0.1970915826863795 0  0.4991779197992749 0.1970915826863902 0  0.4020059614928624 0.203547899597858 0  0.4394315019025246 0.1970915826863714 0  0.2550657455369551 0.2034088125358657 0  0.2548908499171161 0.1966940311614271 0  0.5946539510196798 0.2024302972968126 0  0.267698176732111 0.2039977513680092 0  0.4261685417851465 0.196409292431739 0  0.3590076176283495 0.196411355804271 0  0.5571672426447437 0.2036011176410121 0  0.3066757059912147 0.1964092924317024 0  0.594380730180568 0.1966558399668133 0  0.4842413153245942 0.2040749161535287 0  0.4693047108503577 0.2040749161535231 0  0.3871533862424271 0.1959250838464788 0  0.372246743208829 0.1959123236376545 0  0.5141145242731028 0.2040749161535395 0  0.4543681063761134 0.2040749161535186 0  0.4019979587101454 0.1959834479682427 0  0.4394608940728603 0.2040870543693135 0  0.5439623148931173 0.2040856076781014 0  0.5290511287473298 0.2040749161535501 0  0.4991779197988497 0.2040749161535382 0  0.3347912413592433 0.1959225448935183 0  0.3199680582793816 0.1959123018030061 0  0.2825051229162361 0.1959834479681729 0  0.3590471196690275 0.2036304442587945 0  0.5571594006495384 0.1963685282145804 0  0.3067669986803285 0.203627750582736 0  0.4262598344738712 0.2036568242185335 0  0.5814408164431408 0.2041285596160068 0  0.5688286748170428 0.1961819304477386 0  0.4145905603063645 0.2038180695522843 0  0.3473758401724931 0.2038180695522752 0  0.2950977245128307 0.2038180695522663 0  0.5688286748170693 0.203818069552238 0  0.2950977245127906 0.1961819304477774 0  0.3473758401723931 0.1961819304478349 0  0.4145905603061963 0.1961819304479011 0  0.2601812407614425 0.2056861609747042
[...]
<PointData  Vectors="f_40-0"> 
<DataArray  type="Float64"  Name="f_40-0"  NumberOfComponents="3" format="ascii">0.0000000000000000e+00 0.0000000000000000e+00 0.0000000000000000e+00  0.0000000000000000e+00 0.0000000000000000e+00 0.0000000000000000e+00  0.0000000000000000e+00 0.0000000000000000e+00 0.0000000000000000e+00  0.0000000000000000e+00 0.0000000000000000e+00 0.0000000000000000e+00  -1.1457792292327635e-05 -3.1940960468803737e-04 0.0000000000000000e+00  1.4349469070947894e-05 -3.2529991536103353e-04 0.0000000000000000e+00  0.0000000000000000e+00 0.0000000000000000e+00 0.0000000000000000e+00  0.0000000000000000e+00 0.0000000000000000e+00 0.0000000000000000e+00  0.0000000000000000e+00 0.0000000000000000e+00 0.0000000000000000e+00  0.0000000000000000e+00 0.0000000000000000e+00 0.0000000000000000e+00  8.6334018656567723e-07 -3.2235730625917427e-04 0.0000000000000000e+00  4.7078959058485727e-02 0.0000000000000000e+00 0.0000000000000000e+00  8.6915001338748646e-02 0.0000000000000000e+00 0.0000000000000000e+00  1.1950812684077940e-01 0.0000000000000000e+00 0.0000000000000000e+00  1.4485833556461575e-01 0.0000000000000000e+00 0.0000000000000000e+00  1.6296562751025437e-01 0.0000000000000000e+00 0.0000000000000000e+00  1.7383000267769422e-01 0.0000000000000000e+00 0.0000000000000000e+00  1.7745146106692442e-01 0.0000000000000000e+00 0.0000000000000000e+00  1.7383000267791385e-01 0.0000000000000000e+00 0.0000000000000000e+00  1.6296562751063168e-01 0.0000000000000000e+00 0.0000000000000000e+00  1.4485833556508299e-01 0.0000000000000000e+00 0.0000000000000000e+00  1.1950812684122331e-01 0.0000000000000000e+00 0.0000000000000000e+00  8.6915001339127426e-02 0.0000000000000000e+00 0.0000000000000000e+00  4.7078959058699160e-02 0.0000000000000000e+00 0.0000000000000000e+00  0.0000000000000000e+00 0.0000000000000000e+00 0.0000000000000000e+00  0.0000000000000000e+00 0.0000000000000000e+00 0.0000000000000000e+00  0.0000000000000000e+00 0.0000000000000000e+00 0.0000000000000000e+00  0.0000000000000000e+00 0.0000000000000000e+00 0.0000000000000000e+00  0.0000000000000000e+00 0.0000000000000000e+00 0.0000000000000000e+00  0.0000000000000000e+00 0.0000000000000000e+00 0.0000000000000000e+00  0.0000000000000000e+00 0.0000000000000000e+00 0.0000000000000000e+00  0.0000000000000000e+00 0.0000000000000000e+00 0.0000000000000000e+00  0.0000000000000000e+00 0.0000000000000000e+00 0.0000000000000000e+00  0.0000000000000000e+00 0.0000000000000000e+00 0.0000000000000000e+00  0.0000000000000000e+00 0.0000000000000000e+00 0.0000000000000000e+00  0.0000000000000000e+00 0.0000000000000000e+00 0.0000000000000000e+00  0.0000000000000000e+00 0.0000000000000000e+00 0.0000000000000000e+00  0.0000000000000000e+00 0.0000000000000000e+00 0.0000000000000000e+00  0.0000000000000000e+00 0.0000000000000000e+00 0.0000000000000000e+00  0.0000000000000000e+00 0.0000000000000000e+00 0.0000000000000000e+00  0.0000000000000000e+00 0.0000000000000000e+00 0.0000000000000000e+00  0.0000000000000000e+00 0.0000000000000000e+00 0.0000000000000000e+00  0.0000000000000000e+00 0.0000000000000000e+00 0.0000000000000000e+00  0.0000000000000000e+00 0.0000000000000000e+00 0.0000000000000000e+00  0.0000000000000000e+00 0.0000000000000000e+00 0.0000000000000000e+00  0.0000000000000000e+00 0.0000000000000000e+00 0.0000000000000000e+00  0.0000000000000000e+00 0.0000000000000000e+00 0.0000000000000000e+00  0.0000000000000000e+00 0.0000000000000000e+00 0.0000000000000000e+00  0.0000000000000000e+00 0.0000000000000000e+00 0.0000000000000000e+00  0.0000000000000000e+00 0.0000000000000000e+00 0.0000000000000000e+00  0.0000000000000000e+00 0.0000000000000000e+00 0.0000000000000000e+00  0.0000000000000000e+00 0.0000000000000000e+00 0.0000000000000000e+00  0.0000000000000000e+00 0.0000000000000000e+00 0.0000000000000000e+00  0.0000000000000000e+00 0.0000000000000000e+00 0.0000000000000000e+00  0.0000000000000000e+00 0.0000000000000000e+00 0.0000000000000000e+00  0.0000000000000000e+00 0.0000000000000000e+00 0.0000000000000000e+00  0.0000000000000000e+00 0.0000000000000000e+00 0.0000000000000000e+00  0.0000000000000000e+00 0.0000000000000000e+00 0.0000000000000000e+00  0.0000000000000000e+00 0.0000000000000000e+00 0.0000000000000000e+00  0.0000000000000000e+00 0.0000000000000000e+00 0.0000000000000000e+00  0.0000000000000000e+00 0.0000000000000000e+00 0.0000000000000000e+00  0.0000000000000000e+00 0.0000000000000000e+00 0.0000000000000000e+00  1.6929759548966047e-01 7.1027577440094412e-03 0.0000000000000000e+00  1.1980140286360043e-01 -1.4888070980167581e-03 0.0000000000000000e+00  1.7089354142831903e-01 -7.0897513349292025e-03 0.0000000000000000e+00  0.0000000000000000e+00 0.0000000000000000e+00 0.0000000000000000e+00  0.0000000000000000e+00 0.0000000000000000e+00 0.0000000000000000e+00  0.0000000000000000e+00 0.0000000000000000e+00 0.0000000000000000e+00  0.0000000000000000e+00 0.0000000000000000e+00 0.0000000000000000e+00  0.0000000000000000e+00 0.0000000000000000e+00 0.0000000000000000e+00  0.0000000000000000e+00 0.0000000000000000e+00 0.0000000000000000e+00  0.0000000000000000e+00 0.0000000000000000e+00 0.0000000000000000e+00  0.0000000000000000e+00 0.0000000000000000e+00 0.0000000000000000e+00  0.0000000000000000e+00 0.0000000000000000e+00 0.0000000000000000e+00  0.0000000000000000e+00 0.0000000000000000e+00 0.0000000000000000e+00  0.0000000000000000e+00 0.0000000000000000e+00 0.0000000000000000e+00  0.0000000000000000e+00 0.0000000000000000e+00 0.0000000000000000e+00  0.0000000000000000e+00 0.0000000000000000e+00 0.0000000000000000e+00  0.0000000000000000e+00 0.0000000000000000e+00 0.0000000000000000e+00  0.0000000000000000e+00 0.0000000000000000e+00 0.0000000000000000e+00  0.0000000000000000e+00 0.0000000000000000e+00 0.0000000000000000e+00  0.0000000000000000e+00 0.0000000000000000e+00 0.0000000000000000e+00  0.0000000000000000e+00 0.0000000000000000e+00 0.0000000000000000e+00  0.0000000000000000e+00 0.0000000000000000e+00 0.0000000000000000e+00  0.0000000000000000e+00 0.0000000000000000e+00 0.0000000000000000e+00  0.0000000000000000e+00 0.0000000000000000e+00 0.0000000000000000e+00  0.0000000000000000e+00 0.0000000000000000e+00 0.0000000000000000e+00  0.0000000000000000e+00 0.0000000000000000e+00 0.0000000000000000e+00  0.0000000000000000e+00 0.0000000000000000e+00 0.0000000000000000e+00  0.0000000000000000e+00 0.0000000000000000e+00 0.0000000000000000e+00  0.0000000000000000e+00 0.0000000000000000e+00 0.0000000000000000e+00  0.0000000000000000e+00 0.0000000000000000e+00 0.0000000000000000e+00  0.0000000000000000e+00 0.0000000000000000e+00 0.0000000000000000e+00  0.0000000000000000e+00 0.0000000000000000e+00 0.0000000000000000e+00  0.0000000000000000e+00 0.0000000000000000e+00 0.0000000000000000e+00  0.0000000000000000e+00 0.0000000000000000e+00 0.0000000000000000e+00  0.0000000000000000e+00 0.0000000000000000e+00 0.0000000000000000e+00  0.0000000000000000e+00 0.0000000000000000e+00 0.0000000000000000e+00  0.0000000000000000e+00 0.0000000000000000e+00 0.0000000000000000e+00  0.0000000000000000e+00 0.0000000000000000e+00 0.0000000000000000e+00  0.0000000000000000e+00 0.0000000000000000e+00 0.0000000000000000e+00  0.0000000000000000e+00 0.0000000000000000e+00 0.0000000000000000e+00  0.0000000000000000e+00 0.0000000000000000e+00 0.0000000000000000e+00  0.0000000000000000e+00 0.0000000000000000e+00 0.0000000000000000e+00  0.0000000000000000e+00 0.0000000000000000e+00 0.0000000000000000e+00  0.0000000000000000e+00 0.0000000000000000e+00 0.0000000000000000e+00  0.0000000000000000e+00 0.0000000000000000e+00 0.0000000000000000e+00  0.0000000000000000e+00 0.0000000000000000e+00 0.0000000000000000e+00  0.0000000000000000e+00 0.0000000000000000e+00 0.0000000000000000e+00  0.0000000000000000e+00 0.0000000000000000e+00 0.0000000000000000e+00  0.0000000000000000e+00 0.0000000000000000e+00 0.0000000000000000e+00  0.0000000000000000e+00 0.0000000000000000e+00 0.0000000000000000e+00  0.0000000000000000e+00 0.0000000000000000e+00 0.0000000000000000e+00  0.0000000000000000e+00 0.0000000000000000e+00 0.0000000000000000e+00  0.0000000000000000e+00 0.0000000000000000e+00 0.0000000000000000e+00  0.0000000000000000e+00 0.0000000000000000e+00 0.0000000000000000e+00  0.0000000000000000e+00 0.0000000000000000e+00 0.0000000000000000e+00  0.0000000000000000e+00 0.0000000000000000e+00 0.0000000000000000e+00  0.0000000000000000e+00 0.0000000000000000e+00 0.0000000000000000e+00  0.0000000000000000e+00 0.0000000000000000e+00 0.0000000000000000e+00  0.0000000000000000e+00 0.0000000000000000e+00 0.0000000000000000e+00  0.0000000000000000e+00 0.0000000000000000e+00 0.0000000000000000e+00  0.0000000000000000e+00 0.0000000000000000e+00 0.0000000000000000e+00  0.0000000000000000e+00 0.0000000000000000e+00 0.0000000000000000e+00  0.0000000000000000e+00 0.0000000000000000e+00 0.0000000000000000e+00  0.0000000000000000e+00 0.0000000000000000e+00 0.0000000000000000e+00  0.0000000000000000e+00 0.0000000000000000e+00 0.0000000000000000e+00  0.0000000000000000e+00 0.0000000000000000e+00 0.0000000000000000e+00  0.0000000000000000e+00 0.0000000000000000e+00 0.0000000000000000e+00  0.0000000000000000e+00 0.0000000000000000e+00 0.0000000000000000e+00  0.0000000000000000e+00 0.0000000000000000e+00 0.0000000000000000e+00  0.0000000000000000e+00 0.0000000000000000e+00 0.0000000000000000e+00  0.0000000000000000e+00 0.0000000000000000e+00 0.0000000000000000e+00  0.0000000000000000e+00 0.0000000000000000e+00 0.0000000000000000e+00  0.0000000000000000e+00 0.0000000000000000e+00 0.0000000000000000e+00  0.0000000000000000e+00 0.0000000000000000e+00 0.0000000000000000e+00  0.0000000000000000e+00 0.0000000000000000e+00 0.0000000000000000e+00  0.0000000000000000e+00 0.0000000000000000e+00 0.0000000000000000e+00  0.0000000000000000e+00 0.0000000000000000e+00 0.0000000000000000e+00  0.0000000000000000e+00 0.0000000000000000e+00 0.0000000000000000e+00  0.0000000000000000e+00 0.0000000000000000e+00 0.0000000000000000e+00  0.0000000000000000e+00 0.0000000000000000e+00 0.0000000000000000e+00  0.0000000000000000e+00 0.0000000000000000e+00 0.0000000000000000e+00  1.2052718723438566e-06 -6.0104573637591024e-06 0.0000000000000000e+00  2.7001723555372571e-06 -7.1203107613778883e-06 0.0000000000000000e+00  4.4256635032217152e-06 -8.3713208598120710e-06 0.0000000000000000e+00  6.3365799497403242e-06 -9.9337015523283659e-06 0.0000000000000000e+00  8.1633320421056227e-06 -1.1907120650577084e-05 0.0000000000000000e+00  1.0017067393376923e-05 -1.4396873702687839e-05 0.0000000000000000e+00  1.1703452171665964e-05 -1.7227105064416205e-05 0.0000000000000000e+00  1.3308514458657543e-05 -2.0524610926811481e-05 0.0000000000000000e+00  1.4952622271398394e-05 -2.4185720936222104e-05 0.0000000000000000e+00  1.6382389413197123e-05 -2.8205240935094543e-05 0.0000000000000000e+00  1.7862057092479649e-05 -3.2632366612103578e-05 0.0000000000000000e+00  1.9133210562445841e-05 -3.7374363076773418e-05 0.0000000000000000e+00  2.0416327830820506e-05 -4.2476402432622726e-05 0.0000000000000000e+00  2.1542401501368056e-05 -4.7862003188263635e-05 0.0000000000000000e+00  2.2581438008140702e-05 -5.3584023309190584e-05 0.0000000000000000e+00  2.3628991998978616e-05 -5.9590093320327259e-05 0.0000000000000000e+00  2.4490886831781968e-05 -6.5837983947664530e-05 0.0000000000000000e+00  2.5360369405494818e-05 -7.2401823689337779e-05 0.0000000000000000e+00  2.6056433006164333e-05 -7.9163041495423729e-05 0.0000000000000000e+00  2.6750967079799402e-05 -8.6202140311284725e-05 0.0000000000000000e+00  2.7299958704492313e-05 -9.3423954317953156e-05 0.0000000000000000e+00  2.7807233954717331e-05 -1.0089335220342419e-04 0.0000000000000000e+00  2.8200271007672688e-05 -1.0853084869801975e-04 0.0000000000000000e+00  2.8507618060749095e-05 -1.1637135239476148e-04 0.0000000000000000e+00  2.8791165009318254e-05 -1.2438404085728431e-04 0.0000000000000000e+00  2.8950397053088734e-05 -1.3253739126024971e-04 0.0000000000000000e+00  2.9038894922743508e-05 -1.4089693992386167e-04 0.0000000000000000e+00  2.9037404281249960e-05 -1.4934490376367413e-04 0.0000000000000000e+00  2.8963639561143618e-05 -1.5797364990819378e-04 0.0000000000000000e+00  2.8801258055102129e-05 -1.6667951523684444e-04 0.0000000000000000e+00  2.8568608955166249e-05 -1.7553879059444707e-04 0.0000000000000000e+00  2.8244746108543267e-05 -1.8445347105147195e-04 0.0000000000000000e+00  2.7854861888838177e-05 -1.9350472588917540e-04 0.0000000000000000e+00  2.7372346828958024e-05 -2.0258564697447096e-04 0.0000000000000000e+00  2.6813407547887174e-05 -2.1179420163187546e-04 0.0000000000000000e+00  2.6173079214027961e-05 -2.2101720656057941e-04 0.0000000000000000e+00  2.5460318622440284e-05 -2.3034057872411935e-04 0.0000000000000000e+00  2.4665068497523959e-05 -2.3966659206093110e-04 0.0000000000000000e+00  2.3793863704561766e-05 -2.4907686855358847e-04 0.0000000000000000e+00  2.2837163314570419e-05 -2.5847916926775242e-04 0.0000000000000000e+00  2.1798799720986380e-05 -2.6793739114064531e-04 0.0000000000000000e+00  2.0690826742987611e-05 -2.7739689133321092e-04 0.0000000000000000e+00  1.9494281825688973e-05 -2.8688673144282154e-04 0.0000000000000000e+00  1.8252876690684753e-05 -2.9637985621635583e-04 0.0000000000000000e+00  1.6919897799089502e-05 -3.0585472669164457e-04 0.0000000000000000e+00  1.5568843540888057e-05 -3.1540850218964814e-04 0.0000000000000000e+00  7.4068059364762234e-06 -3.2381081237688061e-04 0.0000000000000000e+00  -5.4642361412658708e-06 -3.2090560624618912e-04 0.0000000000000000e+00  -1.0193746789507140e-05 -3.1005591418830795e-04 0.0000000000000000e+00  -8.8063447047714440e-06 -3.0036593421895277e-04 0.0000000000000000e+00  -7.4355741709072330e-06 -2.9064035970319377e-04 0.0000000000000000e+00  -6.1450116033139734e-06 -2.8095919814710929e-04 0.0000000000000000e+00  -4.8998563464280287e-06 -2.7129414694566250e-04 0.0000000000000000e+00  -3.7384711826640054e-06 -2.6165287641013524e-04 0.0000000000000000e+00  -2.6221178964451865e-06 -2.5204151171937477e-04 0.0000000000000000e+00  -1.5887648095961391e-06 -2.4243985178447333e-04 0.0000000000000000e+00  -6.0321656936310393e-07 -2.3290824461543838e-04 0.0000000000000000e+00  3.0590707498177502e-07 -2.2337954734874825e-04 0.0000000000000000e+00  1.1731766995159921e-06 -2.1393604382072100e-04 0.0000000000000000e+00  1.9617712106309095e-06 -2.0451118629945294e-04 0.0000000000000000e+00  2.7158669251453084e-06 -1.9518814087740526e-04 0.0000000000000000e+00  3.3893246518124152e-06 -1.8590198210941426e-04 0.0000000000000000e+00  4.0359807506924848e-06 -1.7673564642671147e-04 0.0000000000000000e+00  4.5967032533349653e-06 -1.6762444260423915e-04 0.0000000000000000e+00  5.1391508744782036e-06 -1.5864821872867802e-04 0.0000000000000000e+00  5.5884866939912283e-06 -1.4974543508280153e-04 0.0000000000000000e+00  6.0265908737373662e-06 -1.4100219664563989e-04 0.0000000000000000e+00  6.3677597100697616e-06 -1.3235647165717136e-04 0.0000000000000000e+00  6.7083970428841254e-06 -1.2389058348254582e-04 0.0000000000000000e+00  6.9440597587362021e-06 -1.1554556720319264e-04 0.0000000000000000e+00  7.1736407652791861e-06 -1.0738888859498746e-04 0.0000000000000000e+00  7.3186050732054535e-06 -9.9386192164375978e-05 0.0000000000000000e+00  7.3970916078508179e-06 -9.1599624816427345e-05 0.0000000000000000e+00  7.4916287659078487e-06 -8.3984242313500293e-05 0.0000000000000000e+00  7.4880457832977955e-06 -7.6577207846852856e-05 0.0000000000000000e+00  7.4626502885574322e-06 -6.9424735317870847e-05 0.0000000000000000e+00  7.3616002953239095e-06 -6.2468976938131533e-05 0.0000000000000000e+00  7.2353093654206340e-06 -5.5800905840018698e-05 0.0000000000000000e+00  7.0343673533177699e-06 -4.9345993504896911e-05 0.0000000000000000e+00  6.8318701903728955e-06 -4.3230876082336516e-05 0.0000000000000000e+00  6.5309167291173679e-06 -3.7340774223320889e-05 0.0000000000000000e+00  6.1696528152170742e-06 -3.1818185953938960e-05 0.0000000000000000e+00  5.8523353487860760e-06 -2.6548222735231813e-05 0.0000000000000000e+00  5.4289113604862794e-06 -2.1640541395037914e-05 0.0000000000000000e+00  4.9941722862433788e-06 -1.7103549160328464e-05 0.0000000000000000e+00  4.4778660996346766e-06 -1.2895892656848451e-05 0.0000000000000000e+00  3.9823073115413937e-06 -9.1273237307168374e-06 0.0000000000000000e+00  3.3676349400631665e-06 -5.6841265989485054e-06 0.0000000000000000e+00  2.6939260924505567e-06 -2.7197399796639619e-06 0.0000000000000000e+00  2.0987122262128509e-06 -1.0904021330483558e-07 0.0000000000000000e+00  1.3806554170292448e-06 2.0742154048483064e-06 0.0000000000000000e+00  7.8303075163527282e-07 3.7737544246224253e-06 0.0000000000000000e+00  2.2021046726564768e-07 4.8291145130997598e-06 0.0000000000000000e+00  3.2911614872778990e-08 5.0787632843843952e-06 0.0000000000000000e+00  3.0479343011679524e-08 -5.0137555155055608e-07 0.0000000000000000e+00  3.3364725452473569e-06 -3.0792153425625090e-04 0.0000000000000000e+00  6.1371341247402668e-06 -2.8958981846673258e-04 0.0000000000000000e+00  9.6948948676759563e-06 -2.5970077807942356e-04 0.0000000000000000e+00  3.1622664479155991e-06 -2.7603642643887786e-06 0.0000000000000000e+00  1.1497144099493988e-05 -2.4099192503649261e-04 0.0000000000000000e+00  5.5752881441172522e-06 -6.6528320190135808e-06 0.0000000000000000e+00  1.3210402826450982e-05 -2.2212669493920772e-04 0.0000000000000000e+00  9.1059035056910940e-06 -1.6456556025076658e-05 0.0000000000000000e+00  1.1105988056699329e-05 -2.4620080207062710e-05 0.0000000000000000e+00  1.4648267165935506e-05 -2.0346716881378525e-04 0.0000000000000000e+00  1.4882849017361033e-05 -5.1400617256476484e-05 0.0000000000000000e+00  1.6709389265375286e-05 -1.6703945482240352e-04 0.0000000000000000e+00  1.2694199830383409e-05 -3.3799686747821458e-05 0.0000000000000000e+00  1.6048235283816487e-05 -6.3929632291279438e-05 0.0000000000000000e+00  1.7337571623200106e-05 -1.4941866096057898e-04 0.0000000000000000e+00  1.5813942829162876e-05 -1.8508025272256177e-04 0.0000000000000000e+00  1.6878382965659747e-05 -7.7660739423975999e-05 0.0000000000000000e+00  1.7698322272133227e-05 -1.3230630130145932e-04 0.0000000000000000e+00  1.7302692682963869e-05 -9.1637376985374467e-05 0.0000000000000000e+00  1.7941346984590562e-05 -1.1617840752988137e-04 0.0000000000000000e+00  1.7662212852379437e-05 -1.0322572309086453e-04 0.0000000000000000e+00  1.3905674697754292e-05 -4.1973071581594011e-05 0.0000000000000000e+00  7.6760839217185420e-06 -2.7516785696672175e-04 0.0000000000000000e+00  7.3656446971374015e-06 -1.1002686364964487e-05 0.0000000000000000e+00  2.8406494269620819e-07 -2.9771526153193634e-04 0.0000000000000000e+00  1.1482643619298083e-06 8.5561284001248559e-07 0.0000000000000000e+00  8.7235751666151930e-06 -2.3054451022012202e-04 0.0000000000000000e+00  6.8426016160471394e-06 -2.4953568615578779e-04 0.0000000000000000e+00  5.4155191085235277e-06 -6.7580778258988511e-06 0.0000000000000000e+00  1.1741161018534565e-05 -2.1971594493327562e-05 0.0000000000000000e+00  1.2793507059680432e-05 -1.7488488413586471e-04 0.0000000000000000e+00  1.0340246147514166e-05 -2.1172872897099864e-04 0.0000000000000000e+00  1.8001798967561655e-05 -5.8933955209048991e-05 0.0000000000000000e+00  1.3638810616449237e-05 -1.5699943137597097e-04 0.0000000000000000e+00  1.3867565076716171e-05 -3.0900843775881717e-05 0.0000000000000000e+00  1.9153186653018949e-05 -7.2128828776504169e-05 0.0000000000000000e+00  1.4231612951285956e-05 -1.3957793380840321e-04 0.0000000000000000e+00  1.1695137405353353e-05 -1.9315105070930616e-04 0.0000000000000000e+00  2.0652745523248294e-05 -8.6511740022524988e-05 0.0000000000000000e+00  1.4574888407617574e-05 -1.2271002615120113e-04 0.0000000000000000e+00  -5.4338459635965663e-07 -1.4374005124524350e-06 0.0000000000000000e+00  -7.3544725526442948e-07 1.1334807894318482e-06 0.0000000000000000e+00  5.1030033665036219e-06 -3.1610815590485890e-04 0.0000000000000000e+00  2.3420435414059647e-06 -3.9357793171627895e-06 0.0000000000000000e+0