<?xml version="1.0"?>
<VTKFile type="UnstructuredGrid"  version="0.1"  >
<UnstructuredGrid>
<Piece  NumberOfPoints="1419" NumberOfCells="2698">
<Points>
<DataArray  type="Float64"  NumberOfComponents="3"  format="ascii">0 0 0  0 0.41 0  2.5 0 0  2.5 0.41 0  0.6 0.19 0  0.6 0.21 0  0.25 0.2 0  0.15 0.2 0  0.2489897948556636 0.21 0  0.2489897948556636 0.19 0  0.6 0.2 0  0 0.3807142857143437 0  0 0.3514285714286952 0  0 0.3221428571430699 0  0 0.29285714285744 0  0 0.2635714285718054 0  0 0.2342857142861561 0  0 0.2050000000005308 0  0 0.175714285714732 0  0 0.1464285714289574 0  0 0.1171428571431897 0  0 0.08785714285737878 0  0 0.05857142857161107 0  0 0.02928571428580012 0  0.03015443760436003 0 0  0.06140001986583606 0 0  0.09377624077125973 0 0  0.1273239957535082 0 0  0.1620856860351972 0 0  0.1981052433264291 0 0  0.235428184091502 0 0  0.2741016576309132 0 0  0.3141745521465447 0 0  0.3556974926295285 0 0  0.3987229542472677 0 0  0.4433053055141081 0 0  0.4895008759286886 0 0  0.5373680609405097 0 0  0.5869673343216626 0 0  0.6383613676634521 0 0  0.6916151138468254 0 0  0.7467958595648856 0 0  0.8039733463919316 0 0  0.8632198139502143 0 0  0.9246101326867038 0 0  0.9882218810934433 0 0  1.054135445558498 0 0  1.122434100542598 0 0  1.193204177141305 0 0  1.266535089879536 0 0  1.342519516046404 0 0  1.421253448503939 0 0  1.502836389106271 0 0  1.587371439758838 0 0  1.674965418777374 0 0  1.765729001825544 0 0  1.859776908880082 0 0  1.957227977487062 0 0  2.058205329869943 0 0  2.162836591189951 0 0  2.271253957290865 0 0  2.383594446803425 0 0  2.5 0.1024999999997612 0  2.5 0.2049999999994743 0  2.5 0.3074999999997183 0  2.383594446803656 0.41 0  2.271253957291315 0.41 0  2.162836591190598 0.41 0  2.058205329870775 0.41 0  1.957227977488067 0.41 0  1.859776908881246 0.41 0  1.765729001826854 0.41 0  1.674965418778818 0.41 0  1.58737143976041 0.41 0  1.502836389107956 0.41 0  1.421253448505726 0.41 0  1.342519516048286 0.41 0  1.266535089881505 0.41 0  1.193204177143353 0.41 0  1.122434100544716 0.41 0  1.05413544556068 0.41 0  0.9882218810956305 0.41 0  0.9246101326886647 0.41 0  0.8632198139519631 0.41 0  0.8039733463934788 0.41 0  0.7467958595662458 0.41 0  0.6916151138480078 0.41 0  0.6383613676644679 0.41 0  0.5869673343225223 0.41 0  0.5373680609412221 0.41 0  0.4895008759292634 0.41 0  0.4433053055145528 0.41 0  0.3987229542475914 0.41 0  0.3556974926297398 0.41 0  0.3141745521466497 0.41 0  0.2741016576310038 0.41 0  0.2354281840915826 0.41 0  0.1981052433265003 0.41 0  0.1620856860352591 0.41 0  0.1273239957535623 0.41 0  0.09377624077128965 0.41 0  0.06140001986584975 0.41 0  0.03015443760436654 0.41 0  0.2497468076502589 0.2050254481002335 0  0.2497468076502614 0.1949745518997913 0  0.2469965252529372 0.1829317073451959 0  0.2439893735792749 0.1762316384219906 0  0.2400332147834255 0.1700443375285386 0  0.2352133972704371 0.1645032867342007 0  0.2296339016332438 0.1597280261969788 0  0.2234150974217223 0.1558215752574715 0  0.2166911463437691 0.1528682099456123 0  0.2096071079204251 0.1509316448471593 0  0.2023158100364996 0.1500536585536553 0  0.194974551899914 0.1502531923497262 0  0.1877417105387872 0.1515259415822739 0  0.1807733240461124 0.153844448527136 0  0.1742197252835808 0.15715869474974 0  0.1682222986673531 0.1613971801805478 0  0.162910430003803 0.1664684656256651 0  0.1583987151779087 0.1722631454351573 0  0.1547844879126891 0.178656207771761 0  0.1521457199348551 0.1855097315605723 0  0.1505393388476355 0.1926758619366523 0  0.1505393388476328 0.2073241380633295 0  0.1521457199348437 0.2144902684393899 0  0.1547844879126531 0.221343792228163 0  0.1583987151778488 0.2277368545647528 0  0.1629104300036858 0.2335315343742052 0  0.1682222986671726 0.2386028198193036 0  0.1742197252833576 0.2428413052501257 0  0.1807733240458683 0.2461555514727623 0  0.1877417105384929 0.2484740584176516 0  0.1949745518995776 0.2497468076502398 0  0.202315810036185 0.2499463414463592 0  0.2096071079201568 0.2490683551528932 0  0.2166911463435495 0.2471317900544655 0  0.2234150974215506 0.2441784247426195 0  0.2296339016331197 0.2402719738031125 0  0.2352133972703547 0.2354967132658811 0  0.2400332147833751 0.2299556624715287 0  0.2439893735792577 0.2237683615780412 0  0.246996525252926 0.2170682926548348 0  0.25645809709277 0.21 0  0.2639263993298655 0.21 0  0.271394701566961 0.21 0  0.2788630038040554 0.21 0  0.2863313060411479 0.21 0  0.2937996082782405 0.21 0  0.301267910515333 0.21 0  0.3087362127524279 0.21 0  0.3162045149895234 0.21 0  0.3236728172265972 0.21 0  0.3311411194636928 0.21 0  0.3386094217007701 0.21 0  0.3460777239378666 0.21 0  0.3535460261749672 0.21 0  0.3610143284120516 0.21 0  0.3684826306491596 0.21 0  0.3759509328862226 0.21 0  0.383419235123329 0.21 0  0.3908875373604028 0.21 0  0.3983558395975142 0.21 0  0.4058241418345938 0.21 0  0.4132924440716992 0.21 0  0.4207607463087888 0.21 0  0.4282290485459029 0.21 0  0.4356973507830418 0.21 0  0.4431656530201649 0.21 0  0.4506339552573136 0.21 0  0.4581022574944306 0.21 0  0.4655705597315852 0.21 0  0.4730388619686996 0.21 0  0.480507164205851 0.21 0  0.4879754664429498 0.21 0  0.4954437686800938 0.21 0  0.502912070917267 0.21 0  0.5103803731544119 0.21 0  0.5178486753915261 0.21 0  0.5253169776286404 0.21 0  0.5327852798657868 0.21 0  0.5402535821029386 0.21 0  0.54772188434007 0.21 0  0.5551901865771842 0.21 0  0.5626584888143201 0.21 0  0.5701267910514778 0.21 0  0.5775950932886138 0.21 0  0.5850633955257281 0.21 0  0.5925316977628483 0.21 0  0.6 0.2050000000000054 0  0.6 0.1950000000000217 0  0.5925316977628897 0.19 0  0.5850633955257988 0.19 0  0.5775950932887378 0.19 0  0.5701267910515998 0.19 0  0.5626584888145268 0.19 0  0.5551901865773963 0.19 0  0.547721884340339 0.19 0  0.5402535821032429 0.19 0  0.5327852798661811 0.19 0  0.5253169776290537 0.19 0  0.5178486753919799 0.19 0  0.5103803731549078 0.19 0  0.502912070917822 0.19 0  0.4954437686807294 0.19 0  0.4879754664436223 0.19 0  0.4805071642065402 0.19 0  0.4730388619694271 0.19 0  0.4655705597323621 0.19 0  0.4581022574952563 0.19 0  0.4506339552581777 0.19 0  0.4431656530210671 0.19 0  0.4356973507839815 0.19 0  0.4282290485468779 0.19 0  0.4207607463097617 0.19 0  0.4132924440726327 0.19 0  0.4058241418354857 0.19 0  0.3983558395983636 0.19 0  0.3908875373612097 0.19 0  0.3834192351240934 0.19 0  0.3759509328869369 0.19 0  0.3684826306498175 0.19 0  0.361014328412667 0.19 0  0.3535460261755617 0.19 0  0.3460777239384295 0.19 0  0.3386094217012945 0.19 0  0.3311411194641595 0.19 0  0.3236728172270245 0.19 0  0.3162045149898895 0.19 0  0.3087362127527544 0.19 0  0.3012679105156187 0.19 0  0.2937996082784807 0.19 0  0.2863313060413428 0.19 0  0.2788630038042048 0.19 0  0.2713947015670686 0.19 0  0.2639263993299336 0.19 0  0.2564580970927985 0.19 0  0.2607803159922026 0.2000727136295815 0  0.5887803774232762 0.2001272386983733 0  0.5745072403740523 0.2002044435018727 0  0.5511891430099709 0.2001122610077113 0  0.2751288526855082 0.20000000000002 0  0.5365194309847112 0.1999999999999436 0  0.2894621222999649 0.1998691686390484 0  0.5215828265105155 0.1999999999999228 0  0.3127789816668748 0.1998657885438805 0  0.3274069683451451 0.2000000000000796 0  0.5066462220363641 0.199999999999908 0  0.3650630746574081 0.199866017807523 0  0.476773013087985 0.1999999999998713 0  0.3417402379596385 0.1998691686391011 0  0.3796850840047755 0.200000000000134 0  0.4618364086138087 0.1999999999998546 0  0.4917096175621762 0.1999999999998808 0  0.3946216884789568 0.2000000000001512 0  0.446899804139621 0.1999999999998389 0  0.4089549580935208 0.1998691686391595 0  0.4322718174608562 0.200127451265745 0  0.4201487168029707 0.1999966199048527 0  0.3528922713220932 0.2000185703532356 0  0.5633122436674589 0.1999814296467508 0  0.3006558810093873 0.1999966199048318 0  0.5815926498168407 0.1966545283159175 0  0.2677053789419034 0.1964246479135325 0  0.5290511287476175 0.1970915826863981 0  0.5439877332217911 0.197091582686394 0  0.2825131256993216 0.2035478995978015 0  0.3199386661080599 0.202908417313604 0  0.4842413153250809 0.1970915826863873 0  0.5141145242734466 0.1970915826863843 0  0.3722167817676917 0.2029084173136195 0  0.4693047108508938 0.1970915826863783 0  0.3348752705822316 0.202908417313609 0  0.3871533862418661 0.2029084173136212 0  0.4543681063767183 0.1970915826863795 0  0.4991779197992749 0.1970915826863902 0  0.4020059614928624 0.203547899597858 0  0.4394315019025246 0.1970915826863714 0  0.2550657455369551 0.2034088125358657 0  0.2548908499171161 0.1966940311614271 0  0.5946539510196798 0.2024302972968126 0  0.267698176732111 0.2039977513680092 0  0.4261685417851465 0.196409292431739 0  0.3590076176283495 0.196411355804271 0  0.5571672426447437 0.2036011176410121 0  0.3066757059912147 0.1964092924317024 0  0.594380730180568 0.1966558399668133 0  0.4842413153245942 0.2040749161535287 0  0.4693047108503577 0.2040749161535231 0  0.3871533862424271 0.1959250838464788 0  0.372246743208829 0.1959123236376545 0  0.5141145242731028 0.2040749161535395 0  0.4543681063761134 0.2040749161535186 0  0.4019979587101454 0.1959834479682427 0  0.4394608940728603 0.2040870543693135 0  0.5439623148931173 0.2040856076781014 0  0.5290511287473298 0.2040749161535501 0  0.4991779197988497 0.2040749161535382 0  0.3347912413592433 0.1959225448935183 0  0.3199680582793816 0.1959123018030061 0  0.2825051229162361 0.1959834479681729 0  0.3590471196690275 0.2036304442587945 0  0.5571594006495384 0.1963685282145804 0  0.3067669986803285 0.203627750582736 0  0.4262598344738712 0.2036568242185335 0  0.5814408164431408 0.2041285596160068 0  0.5688286748170428 0.1961819304477386 0  0.4145905603063645 0.2038180695522843 0  0.3473758401724931 0.2038180695522752 0  0.2950977245128307 0.2038180695522663 0  0.5688286748170693 0.203818069552238 0  0.2950977245127906 0.1961819304477774 0  0.3473758401723931 0.1961819304478349 0  0.4145905603061963 0.1961819304479011 0  0.2601812407614425 0.2056861609747042
[...]
<PointData  Vectors="f_40-0"> 
<DataArray  type="Float64"  Name="f_40-0"  NumberOfComponents="3" format="ascii">0.0000000000000000e+00 0.0000000000000000e+00 0.0000000000000000e+00  0.0000000000000000e+00 0.0000000000000000e+00 0.0000000000000000e+00  0.0000000000000000e+00 0.0000000000000000e+00 0.0000000000000000e+00  0.0000000000000000e+00 0.0000000000000000e+00 0.0000000000000000e+00  -5.6617769255904219e-05 4.0598214451226083e-06 0.0000000000000000e+00  -5.6378359125591422e-05 -5.0758060987424935e-06 0.0000000000000000e+00  0.0000000000000000e+00 0.0000000000000000e+00 0.0000000000000000e+00  0.0000000000000000e+00 0.0000000000000000e+00 0.0000000000000000e+00  0.0000000000000000e+00 0.0000000000000000e+00 0.0000000000000000e+00  0.0000000000000000e+00 0.0000000000000000e+00 0.0000000000000000e+00  -5.6565139167021241e-05 -4.9804462721421498e-07 0.0000000000000000e+00  1.3791055954629495e-05 0.0000000000000000e+00 0.0000000000000000e+00  2.5460410993163832e-05 0.0000000000000000e+00 0.0000000000000000e+00  3.5008065115600270e-05 0.0000000000000000e+00 0.0000000000000000e+00  4.2434018321949874e-05 0.0000000000000000e+00 0.0000000000000000e+00  4.7738270612211672e-05 0.0000000000000000e+00 0.0000000000000000e+00  5.0920821986385350e-05 0.0000000000000000e+00 0.0000000000000000e+00  5.1981672444467726e-05 0.0000000000000000e+00 0.0000000000000000e+00  5.0920821986449691e-05 0.0000000000000000e+00 0.0000000000000000e+00  4.7738270612322192e-05 0.0000000000000000e+00 0.0000000000000000e+00  4.2434018322086755e-05 0.0000000000000000e+00 0.0000000000000000e+00  3.5008065115730307e-05 0.0000000000000000e+00 0.0000000000000000e+00  2.5460410993274793e-05 0.0000000000000000e+00 0.0000000000000000e+00  1.3791055954692015e-05 0.0000000000000000e+00 0.0000000000000000e+00  0.0000000000000000e+00 0.0000000000000000e+00 0.0000000000000000e+00  0.0000000000000000e+00 0.0000000000000000e+00 0.0000000000000000e+00  0.0000000000000000e+00 0.0000000000000000e+00 0.0000000000000000e+00  0.0000000000000000e+00 0.0000000000000000e+00 0.0000000000000000e+00  0.0000000000000000e+00 0.0000000000000000e+00 0.0000000000000000e+00  0.0000000000000000e+00 0.0000000000000000e+00 0.0000000000000000e+00  0.0000000000000000e+00 0.0000000000000000e+00 0.0000000000000000e+00  0.0000000000000000e+00 0.0000000000000000e+00 0.0000000000000000e+00  0.0000000000000000e+00 0.0000000000000000e+00 0.0000000000000000e+00  0.0000000000000000e+00 0.0000000000000000e+00 0.0000000000000000e+00  0.0000000000000000e+00 0.0000000000000000e+00 0.0000000000000000e+00  0.0000000000000000e+00 0.0000000000000000e+00 0.0000000000000000e+00  0.0000000000000000e+00 0.0000000000000000e+00 0.0000000000000000e+00  0.0000000000000000e+00 0.0000000000000000e+00 0.0000000000000000e+00  0.0000000000000000e+00 0.0000000000000000e+00 0.0000000000000000e+00  0.0000000000000000e+00 0.0000000000000000e+00 0.0000000000000000e+00  0.0000000000000000e+00 0.0000000000000000e+00 0.0000000000000000e+00  0.0000000000000000e+00 0.0000000000000000e+00 0.0000000000000000e+00  0.0000000000000000e+00 0.0000000000000000e+00 0.0000000000000000e+00  0.0000000000000000e+00 0.0000000000000000e+00 0.0000000000000000e+00  0.0000000000000000e+00 0.0000000000000000e+00 0.0000000000000000e+00  0.0000000000000000e+00 0.0000000000000000e+00 0.0000000000000000e+00  0.0000000000000000e+00 0.0000000000000000e+00 0.0000000000000000e+00  0.0000000000000000e+00 0.0000000000000000e+00 0.0000000000000000e+00  0.0000000000000000e+00 0.0000000000000000e+00 0.0000000000000000e+00  0.0000000000000000e+00 0.0000000000000000e+00 0.0000000000000000e+00  0.0000000000000000e+00 0.0000000000000000e+00 0.0000000000000000e+00  0.0000000000000000e+00 0.0000000000000000e+00 0.0000000000000000e+00  0.0000000000000000e+00 0.0000000000000000e+00 0.0000000000000000e+00  0.0000000000000000e+00 0.0000000000000000e+00 0.0000000000000000e+00  0.0000000000000000e+00 0.0000000000000000e+00 0.0000000000000000e+00  0.0000000000000000e+00 0.0000000000000000e+00 0.0000000000000000e+00  0.0000000000000000e+00 0.0000000000000000e+00 0.0000000000000000e+00  0.0000000000000000e+00 0.0000000000000000e+00 0.0000000000000000e+00  0.0000000000000000e+00 0.0000000000000000e+00 0.0000000000000000e+00  0.0000000000000000e+00 0.0000000000000000e+00 0.0000000000000000e+00  0.0000000000000000e+00 0.0000000000000000e+00 0.0000000000000000e+00  0.0000000000000000e+00 0.0000000000000000e+00 0.0000000000000000e+00  2.2181449974083056e-05 5.6684293205528754e-07 0.0000000000000000e+00  1.8575902223575693e-05 -7.0994414099359810e-08 0.0000000000000000e+00  2.1727087230529512e-05 -6.3944004298865120e-07 0.0000000000000000e+00  0.0000000000000000e+00 0.0000000000000000e+00 0.0000000000000000e+00  0.0000000000000000e+00 0.0000000000000000e+00 0.0000000000000000e+00  0.0000000000000000e+00 0.0000000000000000e+00 0.0000000000000000e+00  0.0000000000000000e+00 0.0000000000000000e+00 0.0000000000000000e+00  0.0000000000000000e+00 0.0000000000000000e+00 0.0000000000000000e+00  0.0000000000000000e+00 0.0000000000000000e+00 0.0000000000000000e+00  0.0000000000000000e+00 0.0000000000000000e+00 0.0000000000000000e+00  0.0000000000000000e+00 0.0000000000000000e+00 0.0000000000000000e+00  0.0000000000000000e+00 0.0000000000000000e+00 0.0000000000000000e+00  0.0000000000000000e+00 0.0000000000000000e+00 0.0000000000000000e+00  0.0000000000000000e+00 0.0000000000000000e+00 0.0000000000000000e+00  0.0000000000000000e+00 0.0000000000000000e+00 0.0000000000000000e+00  0.0000000000000000e+00 0.0000000000000000e+00 0.0000000000000000e+00  0.0000000000000000e+00 0.0000000000000000e+00 0.0000000000000000e+00  0.0000000000000000e+00 0.0000000000000000e+00 0.0000000000000000e+00  0.0000000000000000e+00 0.0000000000000000e+00 0.0000000000000000e+00  0.0000000000000000e+00 0.0000000000000000e+00 0.0000000000000000e+00  0.0000000000000000e+00 0.0000000000000000e+00 0.0000000000000000e+00  0.0000000000000000e+00 0.0000000000000000e+00 0.0000000000000000e+00  0.0000000000000000e+00 0.0000000000000000e+00 0.0000000000000000e+00  0.0000000000000000e+00 0.0000000000000000e+00 0.0000000000000000e+00  0.0000000000000000e+00 0.0000000000000000e+00 0.0000000000000000e+00  0.0000000000000000e+00 0.0000000000000000e+00 0.0000000000000000e+00  0.0000000000000000e+00 0.0000000000000000e+00 0.0000000000000000e+00  0.0000000000000000e+00 0.0000000000000000e+00 0.0000000000000000e+00  0.0000000000000000e+00 0.0000000000000000e+00 0.0000000000000000e+00  0.0000000000000000e+00 0.0000000000000000e+00 0.0000000000000000e+00  0.0000000000000000e+00 0.0000000000000000e+00 0.0000000000000000e+00  0.0000000000000000e+00 0.0000000000000000e+00 0.0000000000000000e+00  0.0000000000000000e+00 0.0000000000000000e+00 0.0000000000000000e+00  0.0000000000000000e+00 0.0000000000000000e+00 0.0000000000000000e+00  0.0000000000000000e+00 0.0000000000000000e+00 0.0000000000000000e+00  0.0000000000000000e+00 0.0000000000000000e+00 0.0000000000000000e+00  0.0000000000000000e+00 0.0000000000000000e+00 0.0000000000000000e+00  0.0000000000000000e+00 0.0000000000000000e+00 0.0000000000000000e+00  0.0000000000000000e+00 0.0000000000000000e+00 0.0000000000000000e+00  0.0000000000000000e+00 0.0000000000000000e+00 0.0000000000000000e+00  0.0000000000000000e+00 0.0000000000000000e+00 0.0000000000000000e+00  0.0000000000000000e+00 0.0000000000000000e+00 0.0000000000000000e+00  0.0000000000000000e+00 0.0000000000000000e+00 0.0000000000000000e+00  0.0000000000000000e+00 0.0000000000000000e+00 0.0000000000000000e+00  0.0000000000000000e+00 0.0000000000000000e+00 0.0000000000000000e+00  0.0000000000000000e+00 0.0000000000000000e+00 0.0000000000000000e+00  0.0000000000000000e+00 0.0000000000000000e+00 0.0000000000000000e+00  0.0000000000000000e+00 0.0000000000000000e+00 0.0000000000000000e+00  0.0000000000000000e+00 0.0000000000000000e+00 0.0000000000000000e+00  0.0000000000000000e+00 0.0000000000000000e+00 0.0000000000000000e+00  0.0000000000000000e+00 0.0000000000000000e+00 0.0000000000000000e+00  0.0000000000000000e+00 0.0000000000000000e+00 0.0000000000000000e+00  0.0000000000000000e+00 0.0000000000000000e+00 0.0000000000000000e+00  0.0000000000000000e+00 0.0000000000000000e+00 0.0000000000000000e+00  0.0000000000000000e+00 0.0000000000000000e+00 0.0000000000000000e+00  0.0000000000000000e+00 0.0000000000000000e+00 0.0000000000000000e+00  0.0000000000000000e+00 0.0000000000000000e+00 0.0000000000000000e+00  0.0000000000000000e+00 0.0000000000000000e+00 0.0000000000000000e+00  0.0000000000000000e+00 0.0000000000000000e+00 0.0000000000000000e+00  0.0000000000000000e+00 0.0000000000000000e+00 0.0000000000000000e+00  0.0000000000000000e+00 0.0000000000000000e+00 0.0000000000000000e+00  0.0000000000000000e+00 0.0000000000000000e+00 0.0000000000000000e+00  0.0000000000000000e+00 0.0000000000000000e+00 0.0000000000000000e+00  0.0000000000000000e+00 0.0000000000000000e+00 0.0000000000000000e+00  0.0000000000000000e+00 0.0000000000000000e+00 0.0000000000000000e+00  0.0000000000000000e+00 0.0000000000000000e+00 0.0000000000000000e+00  0.0000000000000000e+00 0.0000000000000000e+00 0.0000000000000000e+00  0.0000000000000000e+00 0.0000000000000000e+00 0.0000000000000000e+00  0.0000000000000000e+00 0.0000000000000000e+00 0.0000000000000000e+00  0.0000000000000000e+00 0.0000000000000000e+00 0.0000000000000000e+00  0.0000000000000000e+00 0.0000000000000000e+00 0.0000000000000000e+00  0.0000000000000000e+00 0.0000000000000000e+00 0.0000000000000000e+00  0.0000000000000000e+00 0.0000000000000000e+00 0.0000000000000000e+00  0.0000000000000000e+00 0.0000000000000000e+00 0.0000000000000000e+00  0.0000000000000000e+00 0.0000000000000000e+00 0.0000000000000000e+00  0.0000000000000000e+00 0.0000000000000000e+00 0.0000000000000000e+00  0.0000000000000000e+00 0.0000000000000000e+00 0.0000000000000000e+00  0.0000000000000000e+00 0.0000000000000000e+00 0.0000000000000000e+00  0.0000000000000000e+00 0.0000000000000000e+00 0.0000000000000000e+00  0.0000000000000000e+00 0.0000000000000000e+00 0.0000000000000000e+00  0.0000000000000000e+00 0.0000000000000000e+00 0.0000000000000000e+00  -5.0477692846406666e-07 -8.1433619021475285e-06 0.0000000000000000e+00  -7.9387205291442859e-07 -8.7721806183473287e-06 0.0000000000000000e+00  -6.5885583344377013e-07 -8.9544433043900067e-06 0.0000000000000000e+00  -3.2698725360842772e-07 -8.8676237111425240e-06 0.0000000000000000e+00  7.3614979075893111e-08 -8.7924844641660681e-06 0.0000000000000000e+00  4.1761557131206740e-07 -8.7722991269134736e-06 0.0000000000000000e+00  7.2645344238050058e-07 -8.7395235523485717e-06 0.0000000000000000e+00  9.6328239037200673e-07 -8.6938757976837505e-06 0.0000000000000000e+00  1.1527930891820130e-06 -8.6423342804669981e-06 0.0000000000000000e+00  1.2793349075412408e-06 -8.5674210151211554e-06 0.0000000000000000e+00  1.3404232675412262e-06 -8.4991396872930702e-06 0.0000000000000000e+00  1.3343700638802678e-06 -8.3970588151232897e-06 0.0000000000000000e+00  1.2435248576124680e-06 -8.2924171874942261e-06 0.0000000000000000e+00  1.0937328615568641e-06 -8.1882607364304849e-06 0.0000000000000000e+00  8.3610747010869203e-07 -8.0729385957180135e-06 0.0000000000000000e+00  5.1648629163388418e-07 -7.9743829231110497e-06 0.0000000000000000e+00  1.0261450944338604e-07 -7.8494494722151375e-06 0.0000000000000000e+00  -4.0388390224377048e-07 -7.7650928906493886e-06 0.0000000000000000e+00  -1.0012736767388445e-06 -7.6448879161839392e-06 0.0000000000000000e+00  -1.6922360822476842e-06 -7.5659502075405565e-06 0.0000000000000000e+00  -2.4797111227948600e-06 -7.4473090780204524e-06 0.0000000000000000e+00  -3.3824593383325162e-06 -7.3428241020717740e-06 0.0000000000000000e+00  -4.3556789577405231e-06 -7.2409715643070981e-06 0.0000000000000000e+00  -5.4614561763480225e-06 -7.1225620499536508e-06 0.0000000000000000e+00  -6.6422037292924728e-06 -7.0215462391919454e-06 0.0000000000000000e+00  -7.9389250119878773e-06 -6.8762818701021914e-06 0.0000000000000000e+00  -9.3403633211021469e-06 -6.7848445119313153e-06 0.0000000000000000e+00  -1.0836988703416175e-05 -6.6351980460613586e-06 0.0000000000000000e+00  -1.2442486719730658e-05 -6.5330471026026122e-06 0.0000000000000000e+00  -1.4139918573640422e-05 -6.3892148220139434e-06 0.0000000000000000e+00  -1.5939489328645384e-05 -6.2815211587653771e-06 0.0000000000000000e+00  -1.7839813077883064e-05 -6.1381382786955622e-06 0.0000000000000000e+00  -1.9823287150501876e-05 -6.0346009510929665e-06 0.0000000000000000e+00  -2.1911289395120593e-05 -5.8737608896184165e-06 0.0000000000000000e+00  -2.4103724980834486e-05 -5.7721655023923872e-06 0.0000000000000000e+00  -2.6375277370945684e-05 -5.6412225029233836e-06 0.0000000000000000e+00  -2.8731243587396805e-05 -5.5549882757129554e-06 0.0000000000000000e+00  -3.1166640748384492e-05 -5.4346731523682838e-06 0.0000000000000000e+00  -3.3687970802980313e-05 -5.3487777413204419e-06 0.0000000000000000e+00  -3.6291589760415250e-05 -5.2453244702986101e-06 0.0000000000000000e+00  -3.8972543607184012e-05 -5.1745596356281408e-06 0.0000000000000000e+00  -4.1711285285652267e-05 -5.1024898804308564e-06 0.0000000000000000e+00  -4.4543921549665365e-05 -5.0536348820196464e-06 0.0000000000000000e+00  -4.7416572355594656e-05 -5.0172226063765291e-06 0.0000000000000000e+00  -5.0359657478652309e-05 -4.9827444356295328e-06 0.0000000000000000e+00  -5.3356707590506115e-05 -4.9761658624702735e-06 0.0000000000000000e+00  -5.6510248430722526e-05 -2.7878560479255482e-06 0.0000000000000000e+00  -5.6614533139809112e-05 1.7900834374209000e-06 0.0000000000000000e+00  -5.3564146973344313e-05 4.1427910106435678e-06 0.0000000000000000e+00  -5.0542140984976709e-05 4.2994211602731287e-06 0.0000000000000000e+00  -4.7572423154727944e-05 4.4625724344118503e-06 0.0000000000000000e+00  -4.4667339300886410e-05 4.6086003313629492e-06 0.0000000000000000e+00  -4.1809723980074830e-05 4.7462080754894759e-06 0.0000000000000000e+00  -3.9046303502195976e-05 4.8734382375245246e-06 0.0000000000000000e+00  -3.6339868739113042e-05 4.9909549602241463e-06 0.0000000000000000e+00  -3.3721331580103243e-05 5.1104897144178559e-06 0.0000000000000000e+00  -3.1178611035674544e-05 5.2041467483237449e-06 0.0000000000000000e+00  -2.8723859705419049e-05 5.3282021279016461e-06 0.0000000000000000e+00  -2.6357439152991283e-05 5.4241205461626617e-06 0.0000000000000000e+00  -2.4083580552156499e-05 5.5442449822658770e-06 0.0000000000000000e+00  -2.1900775976665204e-05 5.6280534809395308e-06 0.0000000000000000e+00  -1.9810863021700363e-05 5.7426566545436433e-06 0.0000000000000000e+00  -1.7814334543557857e-05 5.8271820742042102e-06 0.0000000000000000e+00  -1.5915670125442752e-05 5.9511888244451133e-06 0.0000000000000000e+00  -1.4118438122911946e-05 6.0481501310424063e-06 0.0000000000000000e+00  -1.2424785704911487e-05 6.1776725733159734e-06 0.0000000000000000e+00  -1.0832618864362399e-05 6.2700301853266471e-06 0.0000000000000000e+00  -9.3373341167324777e-06 6.3965254284239561e-06 0.0000000000000000e+00  -7.9411371921144099e-06 6.4924259122453751e-06 0.0000000000000000e+00  -6.6463659318824904e-06 6.6254980698268804e-06 0.0000000000000000e+00  -5.4656261152589776e-06 6.7454740089784457e-06 0.0000000000000000e+00  -4.3664434877704926e-06 6.8708993325771431e-06 0.0000000000000000e+00  -3.3986340378144896e-06 6.9951966043462547e-06 0.0000000000000000e+00  -2.4974495317747719e-06 7.1078253242621473e-06 0.0000000000000000e+00  -1.7030959484603245e-06 7.2444098006064345e-06 0.0000000000000000e+00  -9.9897208175489708e-07 7.3400227341112355e-06 0.0000000000000000e+00  -3.9337781518321758e-07 7.4810589719940243e-06 0.0000000000000000e+00  1.1496476939936187e-07 7.5653433485464721e-06 0.0000000000000000e+00  5.3391063953788692e-07 7.6824147244180446e-06 0.0000000000000000e+00  8.5750246454096721e-07 7.7606649804310226e-06 0.0000000000000000e+00  1.1166144841338486e-06 7.8519394305384583e-06 0.0000000000000000e+00  1.2640732053433605e-06 7.9330847036000860e-06 0.0000000000000000e+00  1.3493324797953317e-06 8.0153634392171492e-06 0.0000000000000000e+00  1.3449899748110013e-06 8.1051302221452986e-06 0.0000000000000000e+00  1.2682725211474231e-06 8.1687643274740576e-06 0.0000000000000000e+00  1.1262888520650834e-06 8.2605130111947776e-06 0.0000000000000000e+00  9.1893188176285569e-07 8.3406323589205945e-06 0.0000000000000000e+00  6.7068888421562971e-07 8.4283925775659901e-06 0.0000000000000000e+00  3.5577799189334621e-07 8.5145489315582965e-06 0.0000000000000000e+00  1.2026141340968906e-08 8.5922812334174355e-06 0.0000000000000000e+00  -3.8209244405842481e-07 8.7278517107296463e-06 0.0000000000000000e+00  -6.9026865205549345e-07 8.8497428872361151e-06 0.0000000000000000e+00  -8.2326708085440704e-07 8.6950499746722231e-06 0.0000000000000000e+00  -5.4999733855793288e-07 8.0651378890091452e-06 0.0000000000000000e+00  -2.2300280237526230e-06 -7.9531399947210598e-08 0.0000000000000000e+00  -5.1954706861858127e-05 -4.2948170029561252e-07 0.0000000000000000e+00  -4.6261157431820547e-05 -3.4277234192127476e-07 0.0000000000000000e+00  -3.7524753960888136e-05 -1.8812252240166044e-07 0.0000000000000000e+00  -5.4269970776329411e-07 -6.1352928674564595e-08 0.0000000000000000e+00  -3.2402340168508791e-05 -1.1103081375787728e-07 0.0000000000000000e+00  2.1733768192316275e-07 2.1112021762110836e-09 0.0000000000000000e+00  -2.7506968015181323e-05 -1.0800023507746416e-07 0.0000000000000000e+00  1.0808572187062024e-06 -7.5073395188230299e-08 0.0000000000000000e+00  1.3401531095692514e-06 -2.0238060106584228e-07 0.0000000000000000e+00  -2.2958788779222181e-05 -1.2103235563524418e-07 0.0000000000000000e+00  7.2075765169582492e-07 -4.3984469904431830e-08 0.0000000000000000e+00  -1.4985406278637919e-05 -1.6862136775569298e-07 0.0000000000000000e+00  1.3457483276486536e-06 -8.0982458175916776e-08 0.0000000000000000e+00  -1.0207138713400764e-07 -1.4142239494523785e-07 0.0000000000000000e+00  -1.1588757985334028e-05 -1.8338306150246434e-07 0.0000000000000000e+00  -1.8779211558227233e-05 -1.4750752400440427e-07 0.0000000000000000e+00  -1.3022362147877286e-06 -1.5275962060720637e-07 0.0000000000000000e+00  -8.5944487581675409e-06 -1.9448450342606867e-07 0.0000000000000000e+00  -2.8121824749033646e-06 -7.5959901070002692e-08 0.0000000000000000e+00  -6.0511663815645277e-06 -2.8220567537403309e-07 0.0000000000000000e+00  -4.2612589016823774e-06 -1.8323144602793643e-07 0.0000000000000000e+00  1.1346222201607893e-06 -1.8457433801237905e-07 0.0000000000000000e+00  -4.1994908425896774e-05 -1.6830309260560390e-07 0.0000000000000000e+00  6.8390097854436719e-07 -1.5229744148830932e-07 0.0000000000000000e+00  -4.9090536160029290e-05 1.2582644563281544e-06 0.0000000000000000e+00  -1.1914829379972383e-06 3.2821603785081903e-06 0.0000000000000000e+00  -2.9918849393185352e-05 1.4556660563461207e-06 0.0000000000000000e+00  -3.4986088780937849e-05 1.3865432425556097e-06 0.0000000000000000e+00  -1.2422603093614989e-07 -3.1834810252838138e-06 0.0000000000000000e+00  1.2353740227286072e-06 -2.6459193215148080e-06 0.0000000000000000e+00  -1.6837029992972893e-05 1.5998007550811265e-06 0.0000000000000000e+00  -2.5192348862171588e-05 1.5164916353748380e-06 0.0000000000000000e+00  3.5127458154822999e-07 -2.4022415061677587e-06 0.0000000000000000e+00  -1.3241269422136579e-05 1.6530125504053932e-06 0.0000000000000000e+00  1.3697988601187437e-06 -2.5988023169138303e-06 0.0000000000000000e+00  -6.6384641422116085e-07 -2.3442464909096111e-06 0.0000000000000000e+00  -1.0048466088666134e-05 1.7078986078308507e-06 0.0000000000000000e+00  -2.0827346163816032e-05 1.5588062472494443e-06 0.0000000000000000e+00  -2.0432242894621824e-06 -2.7701064274216611e-06 0.0000000000000000e+00  -7.2557759808360848e-06 1.7689040325066262e-06 0.0000000000000000e+00  -2.0293852753280834e-06 -1.9632715224292714e-06 0.0000000000000000e+00  -1.9926270923545470e-06 1.7511422550930905e-06 0.0000000000000000e+00  -5.4339089187687823e-05 -1.5458378213361693e-06 0.0000000000000000e+00  -1.1474574951792446e-06 -3.734