<?xml version="1.0"?>
<VTKFile type="UnstructuredGrid"  version="0.1"  >
<UnstructuredGrid>
<Piece  NumberOfPoints="1419" NumberOfCells="2698">
<Points>
<DataArray  type="Float64"  NumberOfComponents="3"  format="ascii">0 0 0  0 0.41 0  2.5 0 0  2.5 0.41 0  0.6 0.19 0  0.6 0.21 0  0.25 0.2 0  0.15 0.2 0  0.2489897948556636 0.21 0  0.2489897948556636 0.19 0  0.6 0.2 0  0 0.3807142857143437 0  0 0.3514285714286952 0  0 0.3221428571430699 0  0 0.29285714285744 0  0 0.2635714285718054 0  0 0.2342857142861561 0  0 0.2050000000005308 0  0 0.175714285714732 0  0 0.1464285714289574 0  0 0.1171428571431897 0  0 0.08785714285737878 0  0 0.05857142857161107 0  0 0.02928571428580012 0  0.03015443760436003 0 0  0.06140001986583606 0 0  0.09377624077125973 0 0  0.1273239957535082 0 0  0.1620856860351972 0 0  0.1981052433264291 0 0  0.235428184091502 0 0  0.2741016576309132 0 0  0.3141745521465447 0 0  0.3556974926295285 0 0  0.3987229542472677 0 0  0.4433053055141081 0 0  0.4895008759286886 0 0  0.5373680609405097 0 0  0.5869673343216626 0 0  0.6383613676634521 0 0  0.6916151138468254 0 0  0.7467958595648856 0 0  0.8039733463919316 0 0  0.8632198139502143 0 0  0.9246101326867038 0 0  0.9882218810934433 0 0  1.054135445558498 0 0  1.122434100542598 0 0  1.193204177141305 0 0  1.266535089879536 0 0  1.342519516046404 0 0  1.421253448503939 0 0  1.502836389106271 0 0  1.587371439758838 0 0  1.674965418777374 0 0  1.765729001825544 0 0  1.859776908880082 0 0  1.957227977487062 0 0  2.058205329869943 0 0  2.162836591189951 0 0  2.271253957290865 0 0  2.383594446803425 0 0  2.5 0.1024999999997612 0  2.5 0.2049999999994743 0  2.5 0.3074999999997183 0  2.383594446803656 0.41 0  2.271253957291315 0.41 0  2.162836591190598 0.41 0  2.058205329870775 0.41 0  1.957227977488067 0.41 0  1.859776908881246 0.41 0  1.765729001826854 0.41 0  1.674965418778818 0.41 0  1.58737143976041 0.41 0  1.502836389107956 0.41 0  1.421253448505726 0.41 0  1.342519516048286 0.41 0  1.266535089881505 0.41 0  1.193204177143353 0.41 0  1.122434100544716 0.41 0  1.05413544556068 0.41 0  0.9882218810956305 0.41 0  0.9246101326886647 0.41 0  0.8632198139519631 0.41 0  0.8039733463934788 0.41 0  0.7467958595662458 0.41 0  0.6916151138480078 0.41 0  0.6383613676644679 0.41 0  0.5869673343225223 0.41 0  0.5373680609412221 0.41 0  0.4895008759292634 0.41 0  0.4433053055145528 0.41 0  0.3987229542475914 0.41 0  0.3556974926297398 0.41 0  0.3141745521466497 0.41 0  0.2741016576310038 0.41 0  0.2354281840915826 0.41 0  0.1981052433265003 0.41 0  0.1620856860352591 0.41 0  0.1273239957535623 0.41 0  0.09377624077128965 0.41 0  0.06140001986584975 0.41 0  0.03015443760436654 0.41 0  0.2497468076502589 0.2050254481002335 0  0.2497468076502614 0.1949745518997913 0  0.2469965252529372 0.1829317073451959 0  0.2439893735792749 0.1762316384219906 0  0.2400332147834255 0.1700443375285386 0  0.2352133972704371 0.1645032867342007 0  0.2296339016332438 0.1597280261969788 0  0.2234150974217223 0.1558215752574715 0  0.2166911463437691 0.1528682099456123 0  0.2096071079204251 0.1509316448471593 0  0.2023158100364996 0.1500536585536553 0  0.194974551899914 0.1502531923497262 0  0.1877417105387872 0.1515259415822739 0  0.1807733240461124 0.153844448527136 0  0.1742197252835808 0.15715869474974 0  0.1682222986673531 0.1613971801805478 0  0.162910430003803 0.1664684656256651 0  0.1583987151779087 0.1722631454351573 0  0.1547844879126891 0.178656207771761 0  0.1521457199348551 0.1855097315605723 0  0.1505393388476355 0.1926758619366523 0  0.1505393388476328 0.2073241380633295 0  0.1521457199348437 0.2144902684393899 0  0.1547844879126531 0.221343792228163 0  0.1583987151778488 0.2277368545647528 0  0.1629104300036858 0.2335315343742052 0  0.1682222986671726 0.2386028198193036 0  0.1742197252833576 0.2428413052501257 0  0.1807733240458683 0.2461555514727623 0  0.1877417105384929 0.2484740584176516 0  0.1949745518995776 0.2497468076502398 0  0.202315810036185 0.2499463414463592 0  0.2096071079201568 0.2490683551528932 0  0.2166911463435495 0.2471317900544655 0  0.2234150974215506 0.2441784247426195 0  0.2296339016331197 0.2402719738031125 0  0.2352133972703547 0.2354967132658811 0  0.2400332147833751 0.2299556624715287 0  0.2439893735792577 0.2237683615780412 0  0.246996525252926 0.2170682926548348 0  0.25645809709277 0.21 0  0.2639263993298655 0.21 0  0.271394701566961 0.21 0  0.2788630038040554 0.21 0  0.2863313060411479 0.21 0  0.2937996082782405 0.21 0  0.301267910515333 0.21 0  0.3087362127524279 0.21 0  0.3162045149895234 0.21 0  0.3236728172265972 0.21 0  0.3311411194636928 0.21 0  0.3386094217007701 0.21 0  0.3460777239378666 0.21 0  0.3535460261749672 0.21 0  0.3610143284120516 0.21 0  0.3684826306491596 0.21 0  0.3759509328862226 0.21 0  0.383419235123329 0.21 0  0.3908875373604028 0.21 0  0.3983558395975142 0.21 0  0.4058241418345938 0.21 0  0.4132924440716992 0.21 0  0.4207607463087888 0.21 0  0.4282290485459029 0.21 0  0.4356973507830418 0.21 0  0.4431656530201649 0.21 0  0.4506339552573136 0.21 0  0.4581022574944306 0.21 0  0.4655705597315852 0.21 0  0.4730388619686996 0.21 0  0.480507164205851 0.21 0  0.4879754664429498 0.21 0  0.4954437686800938 0.21 0  0.502912070917267 0.21 0  0.5103803731544119 0.21 0  0.5178486753915261 0.21 0  0.5253169776286404 0.21 0  0.5327852798657868 0.21 0  0.5402535821029386 0.21 0  0.54772188434007 0.21 0  0.5551901865771842 0.21 0  0.5626584888143201 0.21 0  0.5701267910514778 0.21 0  0.5775950932886138 0.21 0  0.5850633955257281 0.21 0  0.5925316977628483 0.21 0  0.6 0.2050000000000054 0  0.6 0.1950000000000217 0  0.5925316977628897 0.19 0  0.5850633955257988 0.19 0  0.5775950932887378 0.19 0  0.5701267910515998 0.19 0  0.5626584888145268 0.19 0  0.5551901865773963 0.19 0  0.547721884340339 0.19 0  0.5402535821032429 0.19 0  0.5327852798661811 0.19 0  0.5253169776290537 0.19 0  0.5178486753919799 0.19 0  0.5103803731549078 0.19 0  0.502912070917822 0.19 0  0.4954437686807294 0.19 0  0.4879754664436223 0.19 0  0.4805071642065402 0.19 0  0.4730388619694271 0.19 0  0.4655705597323621 0.19 0  0.4581022574952563 0.19 0  0.4506339552581777 0.19 0  0.4431656530210671 0.19 0  0.4356973507839815 0.19 0  0.4282290485468779 0.19 0  0.4207607463097617 0.19 0  0.4132924440726327 0.19 0  0.4058241418354857 0.19 0  0.3983558395983636 0.19 0  0.3908875373612097 0.19 0  0.3834192351240934 0.19 0  0.3759509328869369 0.19 0  0.3684826306498175 0.19 0  0.361014328412667 0.19 0  0.3535460261755617 0.19 0  0.3460777239384295 0.19 0  0.3386094217012945 0.19 0  0.3311411194641595 0.19 0  0.3236728172270245 0.19 0  0.3162045149898895 0.19 0  0.3087362127527544 0.19 0  0.3012679105156187 0.19 0  0.2937996082784807 0.19 0  0.2863313060413428 0.19 0  0.2788630038042048 0.19 0  0.2713947015670686 0.19 0  0.2639263993299336 0.19 0  0.2564580970927985 0.19 0  0.2607803159922026 0.2000727136295815 0  0.5887803774232762 0.2001272386983733 0  0.5745072403740523 0.2002044435018727 0  0.5511891430099709 0.2001122610077113 0  0.2751288526855082 0.20000000000002 0  0.5365194309847112 0.1999999999999436 0  0.2894621222999649 0.1998691686390484 0  0.5215828265105155 0.1999999999999228 0  0.3127789816668748 0.1998657885438805 0  0.3274069683451451 0.2000000000000796 0  0.5066462220363641 0.199999999999908 0  0.3650630746574081 0.199866017807523 0  0.476773013087985 0.1999999999998713 0  0.3417402379596385 0.1998691686391011 0  0.3796850840047755 0.200000000000134 0  0.4618364086138087 0.1999999999998546 0  0.4917096175621762 0.1999999999998808 0  0.3946216884789568 0.2000000000001512 0  0.446899804139621 0.1999999999998389 0  0.4089549580935208 0.1998691686391595 0  0.4322718174608562 0.200127451265745 0  0.4201487168029707 0.1999966199048527 0  0.3528922713220932 0.2000185703532356 0  0.5633122436674589 0.1999814296467508 0  0.3006558810093873 0.1999966199048318 0  0.5815926498168407 0.1966545283159175 0  0.2677053789419034 0.1964246479135325 0  0.5290511287476175 0.1970915826863981 0  0.5439877332217911 0.197091582686394 0  0.2825131256993216 0.2035478995978015 0  0.3199386661080599 0.202908417313604 0  0.4842413153250809 0.1970915826863873 0  0.5141145242734466 0.1970915826863843 0  0.3722167817676917 0.2029084173136195 0  0.4693047108508938 0.1970915826863783 0  0.3348752705822316 0.202908417313609 0  0.3871533862418661 0.2029084173136212 0  0.4543681063767183 0.1970915826863795 0  0.4991779197992749 0.1970915826863902 0  0.4020059614928624 0.203547899597858 0  0.4394315019025246 0.1970915826863714 0  0.2550657455369551 0.2034088125358657 0  0.2548908499171161 0.1966940311614271 0  0.5946539510196798 0.2024302972968126 0  0.267698176732111 0.2039977513680092 0  0.4261685417851465 0.196409292431739 0  0.3590076176283495 0.196411355804271 0  0.5571672426447437 0.2036011176410121 0  0.3066757059912147 0.1964092924317024 0  0.594380730180568 0.1966558399668133 0  0.4842413153245942 0.2040749161535287 0  0.4693047108503577 0.2040749161535231 0  0.3871533862424271 0.1959250838464788 0  0.372246743208829 0.1959123236376545 0  0.5141145242731028 0.2040749161535395 0  0.4543681063761134 0.2040749161535186 0  0.4019979587101454 0.1959834479682427 0  0.4394608940728603 0.2040870543693135 0  0.5439623148931173 0.2040856076781014 0  0.5290511287473298 0.2040749161535501 0  0.4991779197988497 0.2040749161535382 0  0.3347912413592433 0.1959225448935183 0  0.3199680582793816 0.1959123018030061 0  0.2825051229162361 0.1959834479681729 0  0.3590471196690275 0.2036304442587945 0  0.5571594006495384 0.1963685282145804 0  0.3067669986803285 0.203627750582736 0  0.4262598344738712 0.2036568242185335 0  0.5814408164431408 0.2041285596160068 0  0.5688286748170428 0.1961819304477386 0  0.4145905603063645 0.2038180695522843 0  0.3473758401724931 0.2038180695522752 0  0.2950977245128307 0.2038180695522663 0  0.5688286748170693 0.203818069552238 0  0.2950977245127906 0.1961819304477774 0  0.3473758401723931 0.1961819304478349 0  0.4145905603061963 0.1961819304479011 0  0.2601812407614425 0.2056861609747042
[...]
<PointData  Vectors="f_40-0"> 
<DataArray  type="Float64"  Name="f_40-0"  NumberOfComponents="3" format="ascii">0.0000000000000000e+00 0.0000000000000000e+00 0.0000000000000000e+00  0.0000000000000000e+00 0.0000000000000000e+00 0.0000000000000000e+00  0.0000000000000000e+00 0.0000000000000000e+00 0.0000000000000000e+00  0.0000000000000000e+00 0.0000000000000000e+00 0.0000000000000000e+00  -2.4826387119440148e-05 -5.3768369412481254e-05 0.0000000000000000e+00  -1.9350928463968478e-05 -5.9846394828725449e-05 0.0000000000000000e+00  0.0000000000000000e+00 0.0000000000000000e+00 0.0000000000000000e+00  0.0000000000000000e+00 0.0000000000000000e+00 0.0000000000000000e+00  0.0000000000000000e+00 0.0000000000000000e+00 0.0000000000000000e+00  0.0000000000000000e+00 0.0000000000000000e+00 0.0000000000000000e+00  -2.2461565799945765e-05 -5.6808547596126459e-05 0.0000000000000000e+00  7.8553863817186938e-03 0.0000000000000000e+00 0.0000000000000000e+00  1.4502251781635472e-02 0.0000000000000000e+00 0.0000000000000000e+00  1.9940596199748778e-02 0.0000000000000000e+00 0.0000000000000000e+00  2.4170419636064908e-02 0.0000000000000000e+00 0.0000000000000000e+00  2.7191722090583310e-02 0.0000000000000000e+00 0.0000000000000000e+00  2.9004503563303804e-02 0.0000000000000000e+00 0.0000000000000000e+00  2.9608764054224579e-02 0.0000000000000000e+00 0.0000000000000000e+00  2.9004503563340452e-02 0.0000000000000000e+00 0.0000000000000000e+00  2.7191722090646266e-02 0.0000000000000000e+00 0.0000000000000000e+00  2.4170419636142873e-02 0.0000000000000000e+00 0.0000000000000000e+00  1.9940596199822844e-02 0.0000000000000000e+00 0.0000000000000000e+00  1.4502251781698675e-02 0.0000000000000000e+00 0.0000000000000000e+00  7.8553863817543059e-03 0.0000000000000000e+00 0.0000000000000000e+00  0.0000000000000000e+00 0.0000000000000000e+00 0.0000000000000000e+00  0.0000000000000000e+00 0.0000000000000000e+00 0.0000000000000000e+00  0.0000000000000000e+00 0.0000000000000000e+00 0.0000000000000000e+00  0.0000000000000000e+00 0.0000000000000000e+00 0.0000000000000000e+00  0.0000000000000000e+00 0.0000000000000000e+00 0.0000000000000000e+00  0.0000000000000000e+00 0.0000000000000000e+00 0.0000000000000000e+00  0.0000000000000000e+00 0.0000000000000000e+00 0.0000000000000000e+00  0.0000000000000000e+00 0.0000000000000000e+00 0.0000000000000000e+00  0.0000000000000000e+00 0.0000000000000000e+00 0.0000000000000000e+00  0.0000000000000000e+00 0.0000000000000000e+00 0.0000000000000000e+00  0.0000000000000000e+00 0.0000000000000000e+00 0.0000000000000000e+00  0.0000000000000000e+00 0.0000000000000000e+00 0.0000000000000000e+00  0.0000000000000000e+00 0.0000000000000000e+00 0.0000000000000000e+00  0.0000000000000000e+00 0.0000000000000000e+00 0.0000000000000000e+00  0.0000000000000000e+00 0.0000000000000000e+00 0.0000000000000000e+00  0.0000000000000000e+00 0.0000000000000000e+00 0.0000000000000000e+00  0.0000000000000000e+00 0.0000000000000000e+00 0.0000000000000000e+00  0.0000000000000000e+00 0.0000000000000000e+00 0.0000000000000000e+00  0.0000000000000000e+00 0.0000000000000000e+00 0.0000000000000000e+00  0.0000000000000000e+00 0.0000000000000000e+00 0.0000000000000000e+00  0.0000000000000000e+00 0.0000000000000000e+00 0.0000000000000000e+00  0.0000000000000000e+00 0.0000000000000000e+00 0.0000000000000000e+00  0.0000000000000000e+00 0.0000000000000000e+00 0.0000000000000000e+00  0.0000000000000000e+00 0.0000000000000000e+00 0.0000000000000000e+00  0.0000000000000000e+00 0.0000000000000000e+00 0.0000000000000000e+00  0.0000000000000000e+00 0.0000000000000000e+00 0.0000000000000000e+00  0.0000000000000000e+00 0.0000000000000000e+00 0.0000000000000000e+00  0.0000000000000000e+00 0.0000000000000000e+00 0.0000000000000000e+00  0.0000000000000000e+00 0.0000000000000000e+00 0.0000000000000000e+00  0.0000000000000000e+00 0.0000000000000000e+00 0.0000000000000000e+00  0.0000000000000000e+00 0.0000000000000000e+00 0.0000000000000000e+00  0.0000000000000000e+00 0.0000000000000000e+00 0.0000000000000000e+00  0.0000000000000000e+00 0.0000000000000000e+00 0.0000000000000000e+00  0.0000000000000000e+00 0.0000000000000000e+00 0.0000000000000000e+00  0.0000000000000000e+00 0.0000000000000000e+00 0.0000000000000000e+00  0.0000000000000000e+00 0.0000000000000000e+00 0.0000000000000000e+00  0.0000000000000000e+00 0.0000000000000000e+00 0.0000000000000000e+00  0.0000000000000000e+00 0.0000000000000000e+00 0.0000000000000000e+00  2.8319075265539614e-02 1.1852349998094050e-03 0.0000000000000000e+00  1.9921580124933579e-02 -1.6906810728622448e-04 0.0000000000000000e+00  2.8355734815991820e-02 -1.6083385389536408e-03 0.0000000000000000e+00  0.0000000000000000e+00 0.0000000000000000e+00 0.0000000000000000e+00  0.0000000000000000e+00 0.0000000000000000e+00 0.0000000000000000e+00  0.0000000000000000e+00 0.0000000000000000e+00 0.0000000000000000e+00  0.0000000000000000e+00 0.0000000000000000e+00 0.0000000000000000e+00  0.0000000000000000e+00 0.0000000000000000e+00 0.0000000000000000e+00  0.0000000000000000e+00 0.0000000000000000e+00 0.0000000000000000e+00  0.0000000000000000e+00 0.0000000000000000e+00 0.0000000000000000e+00  0.0000000000000000e+00 0.0000000000000000e+00 0.0000000000000000e+00  0.0000000000000000e+00 0.0000000000000000e+00 0.0000000000000000e+00  0.0000000000000000e+00 0.0000000000000000e+00 0.0000000000000000e+00  0.0000000000000000e+00 0.0000000000000000e+00 0.0000000000000000e+00  0.0000000000000000e+00 0.0000000000000000e+00 0.0000000000000000e+00  0.0000000000000000e+00 0.0000000000000000e+00 0.0000000000000000e+00  0.0000000000000000e+00 0.0000000000000000e+00 0.0000000000000000e+00  0.0000000000000000e+00 0.0000000000000000e+00 0.0000000000000000e+00  0.0000000000000000e+00 0.0000000000000000e+00 0.0000000000000000e+00  0.0000000000000000e+00 0.0000000000000000e+00 0.0000000000000000e+00  0.0000000000000000e+00 0.0000000000000000e+00 0.0000000000000000e+00  0.0000000000000000e+00 0.0000000000000000e+00 0.0000000000000000e+00  0.0000000000000000e+00 0.0000000000000000e+00 0.0000000000000000e+00  0.0000000000000000e+00 0.0000000000000000e+00 0.0000000000000000e+00  0.0000000000000000e+00 0.0000000000000000e+00 0.0000000000000000e+00  0.0000000000000000e+00 0.0000000000000000e+00 0.0000000000000000e+00  0.0000000000000000e+00 0.0000000000000000e+00 0.0000000000000000e+00  0.0000000000000000e+00 0.0000000000000000e+00 0.0000000000000000e+00  0.0000000000000000e+00 0.0000000000000000e+00 0.0000000000000000e+00  0.0000000000000000e+00 0.0000000000000000e+00 0.0000000000000000e+00  0.0000000000000000e+00 0.0000000000000000e+00 0.0000000000000000e+00  0.0000000000000000e+00 0.0000000000000000e+00 0.0000000000000000e+00  0.0000000000000000e+00 0.0000000000000000e+00 0.0000000000000000e+00  0.0000000000000000e+00 0.0000000000000000e+00 0.0000000000000000e+00  0.0000000000000000e+00 0.0000000000000000e+00 0.0000000000000000e+00  0.0000000000000000e+00 0.0000000000000000e+00 0.0000000000000000e+00  0.0000000000000000e+00 0.0000000000000000e+00 0.0000000000000000e+00  0.0000000000000000e+00 0.0000000000000000e+00 0.0000000000000000e+00  0.0000000000000000e+00 0.0000000000000000e+00 0.0000000000000000e+00  0.0000000000000000e+00 0.0000000000000000e+00 0.0000000000000000e+00  0.0000000000000000e+00 0.0000000000000000e+00 0.0000000000000000e+00  0.0000000000000000e+00 0.0000000000000000e+00 0.0000000000000000e+00  0.0000000000000000e+00 0.0000000000000000e+00 0.0000000000000000e+00  0.0000000000000000e+00 0.0000000000000000e+00 0.0000000000000000e+00  0.0000000000000000e+00 0.0000000000000000e+00 0.0000000000000000e+00  0.0000000000000000e+00 0.0000000000000000e+00 0.0000000000000000e+00  0.0000000000000000e+00 0.0000000000000000e+00 0.0000000000000000e+00  0.0000000000000000e+00 0.0000000000000000e+00 0.0000000000000000e+00  0.0000000000000000e+00 0.0000000000000000e+00 0.0000000000000000e+00  0.0000000000000000e+00 0.0000000000000000e+00 0.0000000000000000e+00  0.0000000000000000e+00 0.0000000000000000e+00 0.0000000000000000e+00  0.0000000000000000e+00 0.0000000000000000e+00 0.0000000000000000e+00  0.0000000000000000e+00 0.0000000000000000e+00 0.0000000000000000e+00  0.0000000000000000e+00 0.0000000000000000e+00 0.0000000000000000e+00  0.0000000000000000e+00 0.0000000000000000e+00 0.0000000000000000e+00  0.0000000000000000e+00 0.0000000000000000e+00 0.0000000000000000e+00  0.0000000000000000e+00 0.0000000000000000e+00 0.0000000000000000e+00  0.0000000000000000e+00 0.0000000000000000e+00 0.0000000000000000e+00  0.0000000000000000e+00 0.0000000000000000e+00 0.0000000000000000e+00  0.0000000000000000e+00 0.0000000000000000e+00 0.0000000000000000e+00  0.0000000000000000e+00 0.0000000000000000e+00 0.0000000000000000e+00  0.0000000000000000e+00 0.0000000000000000e+00 0.0000000000000000e+00  0.0000000000000000e+00 0.0000000000000000e+00 0.0000000000000000e+00  0.0000000000000000e+00 0.0000000000000000e+00 0.0000000000000000e+00  0.0000000000000000e+00 0.0000000000000000e+00 0.0000000000000000e+00  0.0000000000000000e+00 0.0000000000000000e+00 0.0000000000000000e+00  0.0000000000000000e+00 0.0000000000000000e+00 0.0000000000000000e+00  0.0000000000000000e+00 0.0000000000000000e+00 0.0000000000000000e+00  0.0000000000000000e+00 0.0000000000000000e+00 0.0000000000000000e+00  0.0000000000000000e+00 0.0000000000000000e+00 0.0000000000000000e+00  0.0000000000000000e+00 0.0000000000000000e+00 0.0000000000000000e+00  0.0000000000000000e+00 0.0000000000000000e+00 0.0000000000000000e+00  0.0000000000000000e+00 0.0000000000000000e+00 0.0000000000000000e+00  0.0000000000000000e+00 0.0000000000000000e+00 0.0000000000000000e+00  0.0000000000000000e+00 0.0000000000000000e+00 0.0000000000000000e+00  0.0000000000000000e+00 0.0000000000000000e+00 0.0000000000000000e+00  0.0000000000000000e+00 0.0000000000000000e+00 0.0000000000000000e+00  0.0000000000000000e+00 0.0000000000000000e+00 0.0000000000000000e+00  0.0000000000000000e+00 0.0000000000000000e+00 0.0000000000000000e+00  0.0000000000000000e+00 0.0000000000000000e+00 0.0000000000000000e+00  0.0000000000000000e+00 0.0000000000000000e+00 0.0000000000000000e+00  -3.8425034192201534e-09 -5.2506296154533766e-06 0.0000000000000000e+00  1.5855439278356087e-07 -5.6888356787947512e-06 0.0000000000000000e+00  5.8277300957625396e-07 -5.8679761687383039e-06 0.0000000000000000e+00  1.1313257215977911e-06 -5.9265046299404688e-06 0.0000000000000000e+00  1.7013873935459689e-06 -6.0264269162508050e-06 0.0000000000000000e+00  2.2357820118290758e-06 -6.2253691682777621e-06 0.0000000000000000e+00  2.7289437123867188e-06 -6.4599669939578401e-06 0.0000000000000000e+00  3.1712171800932599e-06 -6.7560373364512112e-06 0.0000000000000000e+00  3.5969316873352426e-06 -7.1038643008868862e-06 0.0000000000000000e+00  3.9550399590784666e-06 -7.4961791381937942e-06 0.0000000000000000e+00  4.2919163157129200e-06 -7.9680868371174568e-06 0.0000000000000000e+00  4.5619051976865909e-06 -8.4783028110796752e-06 0.0000000000000000e+00  4.7994023843897727e-06 -9.0607636828409791e-06 0.0000000000000000e+00  4.9831063999048868e-06 -9.7031376828123474e-06 0.0000000000000000e+00  5.1094563295310188e-06 -1.0409107525185482e-05 0.0000000000000000e+00  5.2168488538621947e-06 -1.1189423284366793e-05 0.0000000000000000e+00  5.2460995194832239e-06 -1.2010435098423379e-05 0.0000000000000000e+00  5.2472708141282052e-06 -1.2931973193093944e-05 0.0000000000000000e+00  5.1734375459665997e-06 -1.3885142767127281e-05 0.0000000000000000e+00  5.0711670391197681e-06 -1.4935694057607512e-05 0.0000000000000000e+00  4.8966801004526098e-06 -1.6019754731140306e-05 0.0000000000000000e+00  4.6749820618349866e-06 -1.7186811265301679e-05 0.0000000000000000e+00  4.3981071069822402e-06 -1.8408429385421805e-05 0.0000000000000000e+00  4.0565345455850951e-06 -1.9685312815034647e-05 0.0000000000000000e+00  3.6852543122833211e-06 -2.1030561265520792e-05 0.0000000000000000e+00  3.2392385301062565e-06 -2.2402471535612589e-05 0.0000000000000000e+00  2.7362866386637913e-06 -2.3866198018419263e-05 0.0000000000000000e+00  2.1758494673471403e-06 -2.5338530765355224e-05 0.0000000000000000e+00  1.5578265054349212e-06 -2.6890066545135804e-05 0.0000000000000000e+00  8.8175428996948126e-07 -2.8455201065152403e-05 0.0000000000000000e+00  1.5109833780994217e-07 -3.0088111277458074e-05 0.0000000000000000e+00  -6.4324784882450385e-07 -3.1729203959212543e-05 0.0000000000000000e+00  -1.4864975285130076e-06 -3.3437822198952041e-05 0.0000000000000000e+00  -2.3955303257927237e-06 -3.5139502136023236e-05 0.0000000000000000e+00  -3.3649702189857097e-06 -3.6912303806045176e-05 0.0000000000000000e+00  -4.3914149125199722e-06 -3.8679684022090387e-05 0.0000000000000000e+00  -5.4732415848366107e-06 -4.0505711428959485e-05 0.0000000000000000e+00  -6.6152248111428454e-06 -4.2324634378003317e-05 0.0000000000000000e+00  -7.8167089760557293e-06 -4.4195489513745219e-05 0.0000000000000000e+00  -9.0828017852857141e-06 -4.6057708956752960e-05 0.0000000000000000e+00  -1.0411540472740458e-05 -4.7957215402774260e-05 0.0000000000000000e+00  -1.1792632187812629e-05 -4.9857738098918872e-05 0.0000000000000000e+00  -1.3245925385898055e-05 -5.1781152709129038e-05 0.0000000000000000e+00  -1.4733958878494843e-05 -5.3708653182940212e-05 0.0000000000000000e+00  -1.6290354885550971e-05 -5.5629632392686359e-05 0.0000000000000000e+00  -1.7863297139708222e-05 -5.7612825699093961e-05 0.0000000000000000e+00  -2.1039890177694821e-05 -5.8317353983955250e-05 0.0000000000000000e+00  -2.3751212061887012e-05 -5.5300932314444866e-05 0.0000000000000000e+00  -2.3302462420989993e-05 -5.1935169722305664e-05 0.0000000000000000e+00  -2.1701431279639844e-05 -4.9850721225753889e-05 0.0000000000000000e+00  -2.0115041742979769e-05 -4.7741423626942894e-05 0.0000000000000000e+00  -1.8589255811879672e-05 -4.5660391368799896e-05 0.0000000000000000e+00  -1.7100988635787248e-05 -4.3591693990110059e-05 0.0000000000000000e+00  -1.5683692109233845e-05 -4.1540200361684870e-05 0.0000000000000000e+00  -1.4305608550953298e-05 -3.9507991513144137e-05 0.0000000000000000e+00  -1.2995163522347064e-05 -3.7482233292247253e-05 0.0000000000000000e+00  -1.1730017834778475e-05 -3.5500264111004072e-05 0.0000000000000000e+00  -1.0527486643849183e-05 -3.3512970394280312e-05 0.0000000000000000e+00  -9.3708320579329753e-06 -3.1577112215753202e-05 0.0000000000000000e+00  -8.2772318249326540e-06 -2.9642830015529227e-05 0.0000000000000000e+00  -7.2262967898336742e-06 -2.7764754983066672e-05 0.0000000000000000e+00  -6.2381088149623764e-06 -2.5891201369670599e-05 0.0000000000000000e+00  -5.2905104992091135e-06 -2.4078116981191632e-05 0.0000000000000000e+00  -4.4066069076061428e-06 -2.2273602954471757e-05 0.0000000000000000e+00  -3.5617415470656867e-06 -2.0531816384717722e-05 0.0000000000000000e+00  -2.7828936587651072e-06 -1.8804643973879056e-05 0.0000000000000000e+00  -2.0398681039991696e-06 -1.7148607423110385e-05 0.0000000000000000e+00  -1.3620293946143294e-06 -1.5512523130208467e-05 0.0000000000000000e+00  -7.1680945050137547e-07 -1.3951406832454793e-05 0.0000000000000000e+00  -1.3892027126193155e-07 -1.2417102870661574e-05 0.0000000000000000e+00  3.9929147498734340e-07 -1.0952165663597079e-05 0.0000000000000000e+00  8.8427224343631234e-07 -9.5372874887892819e-06 0.0000000000000000e+00  1.3063458346411952e-06 -8.1884084457681473e-06 0.0000000000000000e+00  1.7100107333634803e-06 -6.8993900698285243e-06 0.0000000000000000e+00  2.0433076460729905e-06 -5.6597039413133844e-06 0.0000000000000000e+00  2.3355690194525999e-06 -4.5157158042314949e-06 0.0000000000000000e+00  2.5687258616971951e-06 -3.4014801252115962e-06 0.0000000000000000e+00  2.7564642117468871e-06 -2.3903379306998194e-06 0.0000000000000000e+00  2.8869931176248744e-06 -1.4089379269923244e-06 0.0000000000000000e+00  2.9719480263114877e-06 -5.2742113508026858e-07 0.0000000000000000e+00  3.0056119329638229e-06 3.1364639427755433e-07 0.0000000000000000e+00  2.9781572437373715e-06 1.0707050735935220e-06 0.0000000000000000e+00  2.9284016740474814e-06 1.7781959072944620e-06 0.0000000000000000e+00  2.8107609293915625e-06 2.4234211830523177e-06 0.0000000000000000e+00  2.6486825200276618e-06 2.9855898895478316e-06 0.0000000000000000e+00  2.4322824254890646e-06 3.5125572397361886e-06 0.0000000000000000e+00  2.1715851631466762e-06 3.9618936292074110e-06 0.0000000000000000e+00  1.8643194955518676e-06 4.3676503457915230e-06 0.0000000000000000e+00  1.5010171002934572e-06 4.7104998615793175e-06 0.0000000000000000e+00  1.1206590756877649e-06 5.0024967164954943e-06 0.0000000000000000e+00  6.7575910662018137e-07 5.2863158566841363e-06 0.0000000000000000e+00  2.7031220173617691e-07 5.5016600567509779e-06 0.0000000000000000e+00  -4.8085560455854276e-08 5.5059657791031796e-06 0.0000000000000000e+00  -1.1445750209335368e-07 5.1509322674133643e-06 0.0000000000000000e+00  -9.9622982841362639e-07 -6.8735400219642878e-08 0.0000000000000000e+00  -1.9875980059379049e-05 -5.3779178984553329e-05 0.0000000000000000e+00  -1.6767997080260435e-05 -4.9946117216497656e-05 0.0000000000000000e+00  -1.2313790905802897e-05 -4.3718227393000755e-05 0.0000000000000000e+00  6.1885675430742982e-07 -2.1685832335057577e-07 0.0000000000000000e+00  -9.8198010500937536e-06 -3.9858401156850675e-05 0.0000000000000000e+00  1.5879471837651113e-06 -5.0050294940927681e-07 0.0000000000000000e+00  -7.4700556174945174e-06 -3.6048780225603341e-05 0.0000000000000000e+00  2.8291291037814459e-06 -1.4969552469369530e-06 0.0000000000000000e+00  3.3977763497348311e-06 -2.4678501175689134e-06 0.0000000000000000e+00  -5.3455626182011829e-06 -3.2342803385083817e-05 0.0000000000000000e+00  4.0107185247016985e-06 -5.8015703945708431e-06 0.0000000000000000e+00  -1.7636031705727542e-06 -2.5306533217978521e-05 0.0000000000000000e+00  3.7746619730793675e-06 -3.5026683685415310e-06 0.0000000000000000e+00  3.9251901758494374e-06 -7.6332831506299311e-06 0.0000000000000000e+00  -3.0152306224599944e-07 -2.2011782491876758e-05 0.0000000000000000e+00  -3.4439709701280662e-06 -2.8756275819743249e-05 0.0000000000000000e+00  3.6282791280867753e-06 -9.6978350532360017e-06 0.0000000000000000e+00  9.4387330884501736e-07 -1.8895279907986669e-05 0.0000000000000000e+00  3.1323982136525381e-06 -1.1864641113727357e-05 0.0000000000000000e+00  1.9850032338973906e-06 -1.6090901884267101e-05 0.0000000000000000e+00  2.6268983853290691e-06 -1.3835015329946684e-05 0.0000000000000000e+00  3.9452249983254311e-06 -4.6094637985945297e-06 0.0000000000000000e+00  -1.4625405938353767e-05 -4.6886498386897125e-05 0.0000000000000000e+00  2.2243126710927378e-06 -9.9293473325021094e-07 0.0000000000000000e+00  -1.9221690452046792e-05 -5.0824623029728245e-05 0.0000000000000000e+00  -1.1100593224401926e-07 2.0179460787580177e-06 0.0000000000000000e+00  -9.3567338548266617e-06 -3.6939579856984897e-05 0.0000000000000000e+00  -1.1835896837517972e-05 -4.0833106050025417e-05 0.0000000000000000e+00  1.2292605406900051e-06 -2.3515446738736395e-06 0.0000000000000000e+00  3.3116559296170077e-06 -3.5195473950128127e-06 0.0000000000000000e+00  -3.2465294738824671e-06 -2.5892326986932057e-05 0.0000000000000000e+00  -7.1001021163657535e-06 -3.3139290729857231e-05 0.0000000000000000e+00  4.3497187212316200e-06 -8.1153067145913650e-06 0.0000000000000000e+00  -1.6447431725643690e-06 -2.2477943964789617e-05 0.0000000000000000e+00  3.8447211697402490e-06 -4.5212265186196316e-06 0.0000000000000000e+00  4.2013288432039372e-06 -1.0013554062158684e-05 0.0000000000000000e+00  -2.5716576235695445e-07 -1.9231059339428241e-05 0.0000000000000000e+00  -5.0644814695044538e-06 -2.9451323436270178e-05 0.0000000000000000e+00  3.9551654089270705e-06 -1.2456362039963585e-05 0.0000000000000000e+00  9.2010449855077703e-07 -1.6174024511916187e-05 0.0000000000000000e+00  -1.0857949730513877e-06 -1.2614663764058996e-06 0.0000000000000000e+00  -1.0840054752936631e-06 1.1271138646716758e-06 0.0000000000000000e+00  -2.0583071367085391e-05 -5.6037842312870941e-05 0.0000000000000000e+00  1.1485430916185031e-08 