<?xml version="1.0"?>
<VTKFile type="UnstructuredGrid"  version="0.1"  >
<UnstructuredGrid>
<Piece  NumberOfPoints="1419" NumberOfCells="2698">
<Points>
<DataArray  type="Float64"  NumberOfComponents="3"  format="ascii">0 0 0  0 0.41 0  2.5 0 0  2.5 0.41 0  0.6 0.19 0  0.6 0.21 0  0.25 0.2 0  0.15 0.2 0  0.2489897948556636 0.21 0  0.2489897948556636 0.19 0  0.6 0.2 0  0 0.3807142857143437 0  0 0.3514285714286952 0  0 0.3221428571430699 0  0 0.29285714285744 0  0 0.2635714285718054 0  0 0.2342857142861561 0  0 0.2050000000005308 0  0 0.175714285714732 0  0 0.1464285714289574 0  0 0.1171428571431897 0  0 0.08785714285737878 0  0 0.05857142857161107 0  0 0.02928571428580012 0  0.03015443760436003 0 0  0.06140001986583606 0 0  0.09377624077125973 0 0  0.1273239957535082 0 0  0.1620856860351972 0 0  0.1981052433264291 0 0  0.235428184091502 0 0  0.2741016576309132 0 0  0.3141745521465447 0 0  0.3556974926295285 0 0  0.3987229542472677 0 0  0.4433053055141081 0 0  0.4895008759286886 0 0  0.5373680609405097 0 0  0.5869673343216626 0 0  0.6383613676634521 0 0  0.6916151138468254 0 0  0.7467958595648856 0 0  0.8039733463919316 0 0  0.8632198139502143 0 0  0.9246101326867038 0 0  0.9882218810934433 0 0  1.054135445558498 0 0  1.122434100542598 0 0  1.193204177141305 0 0  1.266535089879536 0 0  1.342519516046404 0 0  1.421253448503939 0 0  1.502836389106271 0 0  1.587371439758838 0 0  1.674965418777374 0 0  1.765729001825544 0 0  1.859776908880082 0 0  1.957227977487062 0 0  2.058205329869943 0 0  2.162836591189951 0 0  2.271253957290865 0 0  2.383594446803425 0 0  2.5 0.1024999999997612 0  2.5 0.2049999999994743 0  2.5 0.3074999999997183 0  2.383594446803656 0.41 0  2.271253957291315 0.41 0  2.162836591190598 0.41 0  2.058205329870775 0.41 0  1.957227977488067 0.41 0  1.859776908881246 0.41 0  1.765729001826854 0.41 0  1.674965418778818 0.41 0  1.58737143976041 0.41 0  1.502836389107956 0.41 0  1.421253448505726 0.41 0  1.342519516048286 0.41 0  1.266535089881505 0.41 0  1.193204177143353 0.41 0  1.122434100544716 0.41 0  1.05413544556068 0.41 0  0.9882218810956305 0.41 0  0.9246101326886647 0.41 0  0.8632198139519631 0.41 0  0.8039733463934788 0.41 0  0.7467958595662458 0.41 0  0.6916151138480078 0.41 0  0.6383613676644679 0.41 0  0.5869673343225223 0.41 0  0.5373680609412221 0.41 0  0.4895008759292634 0.41 0  0.4433053055145528 0.41 0  0.3987229542475914 0.41 0  0.3556974926297398 0.41 0  0.3141745521466497 0.41 0  0.2741016576310038 0.41 0  0.2354281840915826 0.41 0  0.1981052433265003 0.41 0  0.1620856860352591 0.41 0  0.1273239957535623 0.41 0  0.09377624077128965 0.41 0  0.06140001986584975 0.41 0  0.03015443760436654 0.41 0  0.2497468076502589 0.2050254481002335 0  0.2497468076502614 0.1949745518997913 0  0.2469965252529372 0.1829317073451959 0  0.2439893735792749 0.1762316384219906 0  0.2400332147834255 0.1700443375285386 0  0.2352133972704371 0.1645032867342007 0  0.2296339016332438 0.1597280261969788 0  0.2234150974217223 0.1558215752574715 0  0.2166911463437691 0.1528682099456123 0  0.2096071079204251 0.1509316448471593 0  0.2023158100364996 0.1500536585536553 0  0.194974551899914 0.1502531923497262 0  0.1877417105387872 0.1515259415822739 0  0.1807733240461124 0.153844448527136 0  0.1742197252835808 0.15715869474974 0  0.1682222986673531 0.1613971801805478 0  0.162910430003803 0.1664684656256651 0  0.1583987151779087 0.1722631454351573 0  0.1547844879126891 0.178656207771761 0  0.1521457199348551 0.1855097315605723 0  0.1505393388476355 0.1926758619366523 0  0.1505393388476328 0.2073241380633295 0  0.1521457199348437 0.2144902684393899 0  0.1547844879126531 0.221343792228163 0  0.1583987151778488 0.2277368545647528 0  0.1629104300036858 0.2335315343742052 0  0.1682222986671726 0.2386028198193036 0  0.1742197252833576 0.2428413052501257 0  0.1807733240458683 0.2461555514727623 0  0.1877417105384929 0.2484740584176516 0  0.1949745518995776 0.2497468076502398 0  0.202315810036185 0.2499463414463592 0  0.2096071079201568 0.2490683551528932 0  0.2166911463435495 0.2471317900544655 0  0.2234150974215506 0.2441784247426195 0  0.2296339016331197 0.2402719738031125 0  0.2352133972703547 0.2354967132658811 0  0.2400332147833751 0.2299556624715287 0  0.2439893735792577 0.2237683615780412 0  0.246996525252926 0.2170682926548348 0  0.25645809709277 0.21 0  0.2639263993298655 0.21 0  0.271394701566961 0.21 0  0.2788630038040554 0.21 0  0.2863313060411479 0.21 0  0.2937996082782405 0.21 0  0.301267910515333 0.21 0  0.3087362127524279 0.21 0  0.3162045149895234 0.21 0  0.3236728172265972 0.21 0  0.3311411194636928 0.21 0  0.3386094217007701 0.21 0  0.3460777239378666 0.21 0  0.3535460261749672 0.21 0  0.3610143284120516 0.21 0  0.3684826306491596 0.21 0  0.3759509328862226 0.21 0  0.383419235123329 0.21 0  0.3908875373604028 0.21 0  0.3983558395975142 0.21 0  0.4058241418345938 0.21 0  0.4132924440716992 0.21 0  0.4207607463087888 0.21 0  0.4282290485459029 0.21 0  0.4356973507830418 0.21 0  0.4431656530201649 0.21 0  0.4506339552573136 0.21 0  0.4581022574944306 0.21 0  0.4655705597315852 0.21 0  0.4730388619686996 0.21 0  0.480507164205851 0.21 0  0.4879754664429498 0.21 0  0.4954437686800938 0.21 0  0.502912070917267 0.21 0  0.5103803731544119 0.21 0  0.5178486753915261 0.21 0  0.5253169776286404 0.21 0  0.5327852798657868 0.21 0  0.5402535821029386 0.21 0  0.54772188434007 0.21 0  0.5551901865771842 0.21 0  0.5626584888143201 0.21 0  0.5701267910514778 0.21 0  0.5775950932886138 0.21 0  0.5850633955257281 0.21 0  0.5925316977628483 0.21 0  0.6 0.2050000000000054 0  0.6 0.1950000000000217 0  0.5925316977628897 0.19 0  0.5850633955257988 0.19 0  0.5775950932887378 0.19 0  0.5701267910515998 0.19 0  0.5626584888145268 0.19 0  0.5551901865773963 0.19 0  0.547721884340339 0.19 0  0.5402535821032429 0.19 0  0.5327852798661811 0.19 0  0.5253169776290537 0.19 0  0.5178486753919799 0.19 0  0.5103803731549078 0.19 0  0.502912070917822 0.19 0  0.4954437686807294 0.19 0  0.4879754664436223 0.19 0  0.4805071642065402 0.19 0  0.4730388619694271 0.19 0  0.4655705597323621 0.19 0  0.4581022574952563 0.19 0  0.4506339552581777 0.19 0  0.4431656530210671 0.19 0  0.4356973507839815 0.19 0  0.4282290485468779 0.19 0  0.4207607463097617 0.19 0  0.4132924440726327 0.19 0  0.4058241418354857 0.19 0  0.3983558395983636 0.19 0  0.3908875373612097 0.19 0  0.3834192351240934 0.19 0  0.3759509328869369 0.19 0  0.3684826306498175 0.19 0  0.361014328412667 0.19 0  0.3535460261755617 0.19 0  0.3460777239384295 0.19 0  0.3386094217012945 0.19 0  0.3311411194641595 0.19 0  0.3236728172270245 0.19 0  0.3162045149898895 0.19 0  0.3087362127527544 0.19 0  0.3012679105156187 0.19 0  0.2937996082784807 0.19 0  0.2863313060413428 0.19 0  0.2788630038042048 0.19 0  0.2713947015670686 0.19 0  0.2639263993299336 0.19 0  0.2564580970927985 0.19 0  0.2607803159922026 0.2000727136295815 0  0.5887803774232762 0.2001272386983733 0  0.5745072403740523 0.2002044435018727 0  0.5511891430099709 0.2001122610077113 0  0.2751288526855082 0.20000000000002 0  0.5365194309847112 0.1999999999999436 0  0.2894621222999649 0.1998691686390484 0  0.5215828265105155 0.1999999999999228 0  0.3127789816668748 0.1998657885438805 0  0.3274069683451451 0.2000000000000796 0  0.5066462220363641 0.199999999999908 0  0.3650630746574081 0.199866017807523 0  0.476773013087985 0.1999999999998713 0  0.3417402379596385 0.1998691686391011 0  0.3796850840047755 0.200000000000134 0  0.4618364086138087 0.1999999999998546 0  0.4917096175621762 0.1999999999998808 0  0.3946216884789568 0.2000000000001512 0  0.446899804139621 0.1999999999998389 0  0.4089549580935208 0.1998691686391595 0  0.4322718174608562 0.200127451265745 0  0.4201487168029707 0.1999966199048527 0  0.3528922713220932 0.2000185703532356 0  0.5633122436674589 0.1999814296467508 0  0.3006558810093873 0.1999966199048318 0  0.5815926498168407 0.1966545283159175 0  0.2677053789419034 0.1964246479135325 0  0.5290511287476175 0.1970915826863981 0  0.5439877332217911 0.197091582686394 0  0.2825131256993216 0.2035478995978015 0  0.3199386661080599 0.202908417313604 0  0.4842413153250809 0.1970915826863873 0  0.5141145242734466 0.1970915826863843 0  0.3722167817676917 0.2029084173136195 0  0.4693047108508938 0.1970915826863783 0  0.3348752705822316 0.202908417313609 0  0.3871533862418661 0.2029084173136212 0  0.4543681063767183 0.1970915826863795 0  0.4991779197992749 0.1970915826863902 0  0.4020059614928624 0.203547899597858 0  0.4394315019025246 0.1970915826863714 0  0.2550657455369551 0.2034088125358657 0  0.2548908499171161 0.1966940311614271 0  0.5946539510196798 0.2024302972968126 0  0.267698176732111 0.2039977513680092 0  0.4261685417851465 0.196409292431739 0  0.3590076176283495 0.196411355804271 0  0.5571672426447437 0.2036011176410121 0  0.3066757059912147 0.1964092924317024 0  0.594380730180568 0.1966558399668133 0  0.4842413153245942 0.2040749161535287 0  0.4693047108503577 0.2040749161535231 0  0.3871533862424271 0.1959250838464788 0  0.372246743208829 0.1959123236376545 0  0.5141145242731028 0.2040749161535395 0  0.4543681063761134 0.2040749161535186 0  0.4019979587101454 0.1959834479682427 0  0.4394608940728603 0.2040870543693135 0  0.5439623148931173 0.2040856076781014 0  0.5290511287473298 0.2040749161535501 0  0.4991779197988497 0.2040749161535382 0  0.3347912413592433 0.1959225448935183 0  0.3199680582793816 0.1959123018030061 0  0.2825051229162361 0.1959834479681729 0  0.3590471196690275 0.2036304442587945 0  0.5571594006495384 0.1963685282145804 0  0.3067669986803285 0.203627750582736 0  0.4262598344738712 0.2036568242185335 0  0.5814408164431408 0.2041285596160068 0  0.5688286748170428 0.1961819304477386 0  0.4145905603063645 0.2038180695522843 0  0.3473758401724931 0.2038180695522752 0  0.2950977245128307 0.2038180695522663 0  0.5688286748170693 0.203818069552238 0  0.2950977245127906 0.1961819304477774 0  0.3473758401723931 0.1961819304478349 0  0.4145905603061963 0.1961819304479011 0  0.2601812407614425 0.2056861609747042
[...]
<PointData  Vectors="f_40-0"> 
<DataArray  type="Float64"  Name="f_40-0"  NumberOfComponents="3" format="ascii">0.0000000000000000e+00 0.0000000000000000e+00 0.0000000000000000e+00  0.0000000000000000e+00 0.0000000000000000e+00 0.0000000000000000e+00  0.0000000000000000e+00 0.0000000000000000e+00 0.0000000000000000e+00  0.0000000000000000e+00 0.0000000000000000e+00 0.0000000000000000e+00  -4.6547897302195040e-06 -7.1249269567143789e-04 0.0000000000000000e+00  5.1936690009395946e-05 -7.1744851366325546e-04 0.0000000000000000e+00  0.0000000000000000e+00 0.0000000000000000e+00 0.0000000000000000e+00  0.0000000000000000e+00 0.0000000000000000e+00 0.0000000000000000e+00  0.0000000000000000e+00 0.0000000000000000e+00 0.0000000000000000e+00  0.0000000000000000e+00 0.0000000000000000e+00 0.0000000000000000e+00  2.3031580053304976e-05 -7.1496063204531815e-04 0.0000000000000000e+00  1.0645119431046648e-01 0.0000000000000000e+00 0.0000000000000000e+00  1.9652528180395118e-01 0.0000000000000000e+00 0.0000000000000000e+00  2.7022226248043291e-01 0.0000000000000000e+00 0.0000000000000000e+00  3.2754213633999701e-01 0.0000000000000000e+00 0.0000000000000000e+00  3.6848490338263606e-01 0.0000000000000000e+00 0.0000000000000000e+00  3.9305056360834761e-01 0.0000000000000000e+00 0.0000000000000000e+00  4.0123911701710707e-01 0.0000000000000000e+00 0.0000000000000000e+00  3.9305056360884427e-01 0.0000000000000000e+00 0.0000000000000000e+00  3.6848490338348922e-01 0.0000000000000000e+00 0.0000000000000000e+00  3.2754213634105356e-01 0.0000000000000000e+00 0.0000000000000000e+00  2.7022226248143655e-01 0.0000000000000000e+00 0.0000000000000000e+00  1.9652528180480766e-01 0.0000000000000000e+00 0.0000000000000000e+00  1.0645119431094907e-01 0.0000000000000000e+00 0.0000000000000000e+00  0.0000000000000000e+00 0.0000000000000000e+00 0.0000000000000000e+00  0.0000000000000000e+00 0.0000000000000000e+00 0.0000000000000000e+00  0.0000000000000000e+00 0.0000000000000000e+00 0.0000000000000000e+00  0.0000000000000000e+00 0.0000000000000000e+00 0.0000000000000000e+00  0.0000000000000000e+00 0.0000000000000000e+00 0.0000000000000000e+00  0.0000000000000000e+00 0.0000000000000000e+00 0.0000000000000000e+00  0.0000000000000000e+00 0.0000000000000000e+00 0.0000000000000000e+00  0.0000000000000000e+00 0.0000000000000000e+00 0.0000000000000000e+00  0.0000000000000000e+00 0.0000000000000000e+00 0.0000000000000000e+00  0.0000000000000000e+00 0.0000000000000000e+00 0.0000000000000000e+00  0.0000000000000000e+00 0.0000000000000000e+00 0.0000000000000000e+00  0.0000000000000000e+00 0.0000000000000000e+00 0.0000000000000000e+00  0.0000000000000000e+00 0.0000000000000000e+00 0.0000000000000000e+00  0.0000000000000000e+00 0.0000000000000000e+00 0.0000000000000000e+00  0.0000000000000000e+00 0.0000000000000000e+00 0.0000000000000000e+00  0.0000000000000000e+00 0.0000000000000000e+00 0.0000000000000000e+00  0.0000000000000000e+00 0.0000000000000000e+00 0.0000000000000000e+00  0.0000000000000000e+00 0.0000000000000000e+00 0.0000000000000000e+00  0.0000000000000000e+00 0.0000000000000000e+00 0.0000000000000000e+00  0.0000000000000000e+00 0.0000000000000000e+00 0.0000000000000000e+00  0.0000000000000000e+00 0.0000000000000000e+00 0.0000000000000000e+00  0.0000000000000000e+00 0.0000000000000000e+00 0.0000000000000000e+00  0.0000000000000000e+00 0.0000000000000000e+00 0.0000000000000000e+00  0.0000000000000000e+00 0.0000000000000000e+00 0.0000000000000000e+00  0.0000000000000000e+00 0.0000000000000000e+00 0.0000000000000000e+00  0.0000000000000000e+00 0.0000000000000000e+00 0.0000000000000000e+00  0.0000000000000000e+00 0.0000000000000000e+00 0.0000000000000000e+00  0.0000000000000000e+00 0.0000000000000000e+00 0.0000000000000000e+00  0.0000000000000000e+00 0.0000000000000000e+00 0.0000000000000000e+00  0.0000000000000000e+00 0.0000000000000000e+00 0.0000000000000000e+00  0.0000000000000000e+00 0.0000000000000000e+00 0.0000000000000000e+00  0.0000000000000000e+00 0.0000000000000000e+00 0.0000000000000000e+00  0.0000000000000000e+00 0.0000000000000000e+00 0.0000000000000000e+00  0.0000000000000000e+00 0.0000000000000000e+00 0.0000000000000000e+00  0.0000000000000000e+00 0.0000000000000000e+00 0.0000000000000000e+00  0.0000000000000000e+00 0.0000000000000000e+00 0.0000000000000000e+00  0.0000000000000000e+00 0.0000000000000000e+00 0.0000000000000000e+00  0.0000000000000000e+00 0.0000000000000000e+00 0.0000000000000000e+00  3.8471898149391143e-01 1.2627263144338688e-02 0.0000000000000000e+00  2.6935578632071405e-01 -2.6550298643104402e-03 0.0000000000000000e+00  3.8587032489414702e-01 -9.5062028320383289e-03 0.0000000000000000e+00  0.0000000000000000e+00 0.0000000000000000e+00 0.0000000000000000e+00  0.0000000000000000e+00 0.0000000000000000e+00 0.0000000000000000e+00  0.0000000000000000e+00 0.0000000000000000e+00 0.0000000000000000e+00  0.0000000000000000e+00 0.0000000000000000e+00 0.0000000000000000e+00  0.0000000000000000e+00 0.0000000000000000e+00 0.0000000000000000e+00  0.0000000000000000e+00 0.0000000000000000e+00 0.0000000000000000e+00  0.0000000000000000e+00 0.0000000000000000e+00 0.0000000000000000e+00  0.0000000000000000e+00 0.0000000000000000e+00 0.0000000000000000e+00  0.0000000000000000e+00 0.0000000000000000e+00 0.0000000000000000e+00  0.0000000000000000e+00 0.0000000000000000e+00 0.0000000000000000e+00  0.0000000000000000e+00 0.0000000000000000e+00 0.0000000000000000e+00  0.0000000000000000e+00 0.0000000000000000e+00 0.0000000000000000e+00  0.0000000000000000e+00 0.0000000000000000e+00 0.0000000000000000e+00  0.0000000000000000e+00 0.0000000000000000e+00 0.0000000000000000e+00  0.0000000000000000e+00 0.0000000000000000e+00 0.0000000000000000e+00  0.0000000000000000e+00 0.0000000000000000e+00 0.0000000000000000e+00  0.0000000000000000e+00 0.0000000000000000e+00 0.0000000000000000e+00  0.0000000000000000e+00 0.0000000000000000e+00 0.0000000000000000e+00  0.0000000000000000e+00 0.0000000000000000e+00 0.0000000000000000e+00  0.0000000000000000e+00 0.0000000000000000e+00 0.0000000000000000e+00  0.0000000000000000e+00 0.0000000000000000e+00 0.0000000000000000e+00  0.0000000000000000e+00 0.0000000000000000e+00 0.0000000000000000e+00  0.0000000000000000e+00 0.0000000000000000e+00 0.0000000000000000e+00  0.0000000000000000e+00 0.0000000000000000e+00 0.0000000000000000e+00  0.0000000000000000e+00 0.0000000000000000e+00 0.0000000000000000e+00  0.0000000000000000e+00 0.0000000000000000e+00 0.0000000000000000e+00  0.0000000000000000e+00 0.0000000000000000e+00 0.0000000000000000e+00  0.0000000000000000e+00 0.0000000000000000e+00 0.0000000000000000e+00  0.0000000000000000e+00 0.0000000000000000e+00 0.0000000000000000e+00  0.0000000000000000e+00 0.0000000000000000e+00 0.0000000000000000e+00  0.0000000000000000e+00 0.0000000000000000e+00 0.0000000000000000e+00  0.0000000000000000e+00 0.0000000000000000e+00 0.0000000000000000e+00  0.0000000000000000e+00 0.0000000000000000e+00 0.0000000000000000e+00  0.0000000000000000e+00 0.0000000000000000e+00 0.0000000000000000e+00  0.0000000000000000e+00 0.0000000000000000e+00 0.0000000000000000e+00  0.0000000000000000e+00 0.0000000000000000e+00 0.0000000000000000e+00  0.0000000000000000e+00 0.0000000000000000e+00 0.0000000000000000e+00  0.0000000000000000e+00 0.0000000000000000e+00 0.0000000000000000e+00  0.0000000000000000e+00 0.0000000000000000e+00 0.0000000000000000e+00  0.0000000000000000e+00 0.0000000000000000e+00 0.0000000000000000e+00  0.0000000000000000e+00 0.0000000000000000e+00 0.0000000000000000e+00  0.0000000000000000e+00 0.0000000000000000e+00 0.0000000000000000e+00  0.0000000000000000e+00 0.0000000000000000e+00 0.0000000000000000e+00  0.0000000000000000e+00 0.0000000000000000e+00 0.0000000000000000e+00  0.0000000000000000e+00 0.0000000000000000e+00 0.0000000000000000e+00  0.0000000000000000e+00 0.0000000000000000e+00 0.0000000000000000e+00  0.0000000000000000e+00 0.0000000000000000e+00 0.0000000000000000e+00  0.0000000000000000e+00 0.0000000000000000e+00 0.0000000000000000e+00  0.0000000000000000e+00 0.0000000000000000e+00 0.0000000000000000e+00  0.0000000000000000e+00 0.0000000000000000e+00 0.0000000000000000e+00  0.0000000000000000e+00 0.0000000000000000e+00 0.0000000000000000e+00  0.0000000000000000e+00 0.0000000000000000e+00 0.0000000000000000e+00  0.0000000000000000e+00 0.0000000000000000e+00 0.0000000000000000e+00  0.0000000000000000e+00 0.0000000000000000e+00 0.0000000000000000e+00  0.0000000000000000e+00 0.0000000000000000e+00 0.0000000000000000e+00  0.0000000000000000e+00 0.0000000000000000e+00 0.0000000000000000e+00  0.0000000000000000e+00 0.0000000000000000e+00 0.0000000000000000e+00  0.0000000000000000e+00 0.0000000000000000e+00 0.0000000000000000e+00  0.0000000000000000e+00 0.0000000000000000e+00 0.0000000000000000e+00  0.0000000000000000e+00 0.0000000000000000e+00 0.0000000000000000e+00  0.0000000000000000e+00 0.0000000000000000e+00 0.0000000000000000e+00  0.0000000000000000e+00 0.0000000000000000e+00 0.0000000000000000e+00  0.0000000000000000e+00 0.0000000000000000e+00 0.0000000000000000e+00  0.0000000000000000e+00 0.0000000000000000e+00 0.0000000000000000e+00  0.0000000000000000e+00 0.0000000000000000e+00 0.0000000000000000e+00  0.0000000000000000e+00 0.0000000000000000e+00 0.0000000000000000e+00  0.0000000000000000e+00 0.0000000000000000e+00 0.0000000000000000e+00  0.0000000000000000e+00 0.0000000000000000e+00 0.0000000000000000e+00  0.0000000000000000e+00 0.0000000000000000e+00 0.0000000000000000e+00  0.0000000000000000e+00 0.0000000000000000e+00 0.0000000000000000e+00  0.0000000000000000e+00 0.0000000000000000e+00 0.0000000000000000e+00  0.0000000000000000e+00 0.0000000000000000e+00 0.0000000000000000e+00  0.0000000000000000e+00 0.0000000000000000e+00 0.0000000000000000e+00  0.0000000000000000e+00 0.0000000000000000e+00 0.0000000000000000e+00  0.0000000000000000e+00 0.0000000000000000e+00 0.0000000000000000e+00  0.0000000000000000e+00 0.0000000000000000e+00 0.0000000000000000e+00  0.0000000000000000e+00 0.0000000000000000e+00 0.0000000000000000e+00  0.0000000000000000e+00 0.0000000000000000e+00 0.0000000000000000e+00  2.3599009949510559e-06 -6.2464893252135416e-06 0.0000000000000000e+00  5.1335818302589132e-06 -8.2299262792539268e-06 0.0000000000000000e+00  8.0802105166504652e-06 -1.0995280466955508e-05 0.0000000000000000e+00  1.1323753911511834e-05 -1.4689776740737804e-05 0.0000000000000000e+00  1.4383064980653932e-05 -1.9344491417157306e-05 0.0000000000000000e+00  1.7623977003690241e-05 -2.5079936879811407e-05 0.0000000000000000e+00  2.0558657474247543e-05 -3.1584868656460104e-05 0.0000000000000000e+00  2.3416031430328874e-05 -3.9132925209724654e-05 0.0000000000000000e+00  2.6426730169225193e-05 -4.7485911377919181e-05 0.0000000000000000e+00  2.9038778541929410e-05 -5.6660311361922217e-05 0.0000000000000000e+00  3.1834897660193702e-05 -6.6708593767542877e-05 0.0000000000000000e+00  3.4232263977419303e-05 -7.7496100456857423e-05 0.0000000000000000e+00  3.6732219968883955e-05 -8.9065946190117578e-05 0.0000000000000000e+00  3.8931656637519448e-05 -1.0126024190059599e-04 0.0000000000000000e+00  4.1015397479418661e-05 -1.1421227443239198e-04 0.0000000000000000e+00  4.3163793161126472e-05 -1.2776896440541924e-04 0.0000000000000000e+00  4.4977551431840260e-05 -1.4189191916532014e-04 0.0000000000000000e+00  4.6870519082911966e-05 -1.5665885426811626e-04 0.0000000000000000e+00  4.8449495759721866e-05 -1.7190113784373569e-04 0.0000000000000000e+00  5.0082961111005187e-05 -1.8769732658831202e-04 0.0000000000000000e+00  5.1468375471429524e-05 -2.0393010904817574e-04 0.0000000000000000e+00  5.2836658127377452e-05 -2.2066824824173157e-04 0.0000000000000000e+00  5.4005622269985732e-05 -2.3776029677556815e-04 0.0000000000000000e+00  5.5065316716076192e-05 -2.5529764214986191e-04 0.0000000000000000e+00  5.6121505474806062e-05 -2.7317162477534686e-04 0.0000000000000000e+00  5.6986276018064693e-05 -2.9138061880270194e-04 0.0000000000000000e+00  5.7771526942071384e-05 -3.0997227391182664e-04 0.0000000000000000e+00  5.8425244698063905e-05 -3.2879447542884764e-04 0.0000000000000000e+00  5.8995108984128525e-05 -3.4795458211545668e-04 0.0000000000000000e+00  5.9438417727961877e-05 -3.6730927673784576e-04 0.0000000000000000e+00  5.9797830944850535e-05 -3.8695077595527849e-04 0.0000000000000000e+00  6.0032687293311968e-05 -4.0674186556350023e-04 0.0000000000000000e+00  6.0187011549317571e-05 -4.2677771472925666e-04 0.0000000000000000e+00  6.0216279600074221e-05 -4.4691893673032453e-04 0.0000000000000000e+00  6.0154315369528886e-05 -4.6727858109738696e-04 0.0000000000000000e+00  5.9981966288883232e-05 -4.8770680929022232e-04 0.0000000000000000e+00  5.9720525129664549e-05 -5.0830467518214783e-04 0.0000000000000000e+00  5.9350049884948947e-05 -5.2894168177096336e-04 0.0000000000000000e+00  5.8887253026317991e-05 -5.4971578691024095e-04 0.0000000000000000e+00  5.8314684585338000e-05 -5.7050397260946832e-04 0.0000000000000000e+00  5.7642965431584850e-05 -5.9138397664249768e-04 0.0000000000000000e+00  5.6878936035436437e-05 -6.1227721488093796e-04 0.0000000000000000e+00  5.6006019815518650e-05 -6.3322204068276176e-04 0.0000000000000000e+00  5.5076548944322662e-05 -6.5417890885461553e-04 0.0000000000000000e+00  5.4027272440919864e-05 -6.7511467689805994e-04 0.0000000000000000e+00  5.2929367529095768e-05 -6.9612400334393397e-04 0.0000000000000000e+00  3.7274616087393649e-05 -7.1618454946443210e-04 0.0000000000000000e+00  9.0144611939901400e-06 -7.1374107918459654e-04 0.0000000000000000e+00  -3.6004391255286022e-06 -6.9155630750545281e-04 0.0000000000000000e+00  -2.4523765903793259e-06 -6.7034865231504961e-04 0.0000000000000000e+00  -1.3450552796199912e-06 -6.4911172428230152e-04 0.0000000000000000e+00  -3.3145514902731275e-07 -6.2793910470786260e-04 0.0000000000000000e+00  6.2841942207482766e-07 -6.0679324745566631e-04 0.0000000000000000e+00  1.4959979417315540e-06 -5.8569102047155224e-04 0.0000000000000000e+00  2.3210956540312659e-06 -5.6464059714681403e-04 0.0000000000000000e+00  3.0489862444437970e-06 -5.4362494181712780e-04 0.0000000000000000e+00  3.7399595276541077e-06 -5.2272042732956709e-04 0.0000000000000000e+00  4.3384883955573540e-06 -5.0185475067224250e-04 0.0000000000000000e+00  4.9145160965062776e-06 -4.8112733868625843e-04 0.0000000000000000e+00  5.3913722031796403e-06 -4.6047073814482585e-04 0.0000000000000000e+00  5.8595270029221138e-06 -4.3999021705399063e-04 0.0000000000000000e+00  6.2241988622877497e-06 -4.1962038696420194e-04 0.0000000000000000e+00  6.5967121257579807e-06 -3.9946220533388082e-04 0.0000000000000000e+00  6.8537697532171752e-06 -3.7945283456608075e-04 0.0000000000000000e+00  7.1370415520092322e-06 -3.5968930866731795e-04 0.0000000000000000e+00  7.2902617892433328e-06 -3.4011316076570881e-04 0.0000000000000000e+00  7.4837458153786202e-06 -3.2083258363201723e-04 0.0000000000000000e+00  7.5377275607613520e-06 -3.0179031225152235e-04 0.0000000000000000e+00  7.6553068468786288e-06 -2.8308771678295548e-04 0.0000000000000000e+00  7.6164409685510373e-06 -2.6467137681657953e-04 0.0000000000000000e+00  7.6386309096141406e-06 -2.4662930216918307e-04 0.0000000000000000e+00  7.5334534691329406e-06 -2.2891563994920894e-04 0.0000000000000000e+00  7.3665094807559627e-06 -2.1166184595219599e-04 0.0000000000000000e+00  7.2791603552248008e-06 -1.9475860878930657e-04 0.0000000000000000e+00  7.0626981212646025e-06 -1.7832715060293571e-04 0.0000000000000000e+00  6.8665907350054104e-06 -1.6239642285380271e-04 0.0000000000000000e+00  6.5777850490944004e-06 -1.4693972978936892e-04 0.0000000000000000e+00  6.3047569328983845e-06 -1.3205697319196427e-04 0.0000000000000000e+00  5.9398092047168789e-06 -1.1768841991867263e-04 0.0000000000000000e+00  5.6526543608965832e-06 -1.0402871161106093e-04 0.0000000000000000e+00  5.1991200675596185e-06 -9.0884076638900269e-05 0.0000000000000000e+00  4.6938139015595756e-06 -7.8541637645621423e-05 0.0000000000000000e+00  4.3372075952626567e-06 -6.6763229839129497e-05 0.0000000000000000e+00  3.8300507476319663e-06 -5.5808161670323842e-05 0.0000000000000000e+00  3.3715467085476816e-06 -4.5648067258935516e-05 0.0000000000000000e+00  2.8099452584105565e-06 -3.6269552077388384e-05 0.0000000000000000e+00  2.3823716845520440e-06 -2.7860213308887302e-05 0.0000000000000000e+00  1.7518929626680479e-06 -2.0198296593837830e-05 0.0000000000000000e+00  1.0942020609379273e-06 -1.3624088991708149e-05 0.0000000000000000e+00  6.8075688643331728e-07 -7.8440964847369885e-06 0.0000000000000000e+00  1.1642755787444264e-07 -3.1078846595735924e-06 0.0000000000000000e+00  -1.7394945381918083e-07 5.8678246407634653e-07 0.0000000000000000e+00  -4.8680431718281505e-07 3.0537072758818425e-06 0.0000000000000000e+00  -2.7262556792101613e-07 4.1819660376980893e-06 0.0000000000000000e+00  7.8759656631449732e-07 -1.0815128072037524e-06 0.0000000000000000e+00  2.5367971494368898e-05 -6.8325189713734419e-04 0.0000000000000000e+00  2.7766741063078420e-05 -6.4296295720254364e-04 0.0000000000000000e+00  3.0209439013994559e-05 -5.7729507944603051e-04 0.0000000000000000e+00  4.7726260120558201e-06 -6.2494125137307097e-06 0.0000000000000000e+00  3.1164618358222741e-05 -5.3618908488117681e-04 0.0000000000000000e+00  8.1815384735677285e-06 -1.5153316187811197e-05 0.0000000000000000e+00  3.2148956560759175e-05 -4.9466354093144851e-04 0.0000000000000000e+00  1.3610077882921812e-05 -3.7274161848612165e-05 0.0000000000000000e+00  1.6943822049061445e-05 -5.5590173173956188e-05 0.0000000000000000e+00  3.2815970224302805e-05 -4.5355529944559204e-04 0.0000000000000000e+00  2.3674736832504290e-05 -1.1593811470510372e-04 0.0000000000000000e+00  3.3218358146351104e-05 -3.7317771776615417e-04 0.0000000000000000e+00  1.9627815922624925e-05 -7.6364794998959611e-05 0.0000000000000000e+00  2.6100228106328359e-05 -1.4395577901318547e-04 0.0000000000000000e+00  3.2960838372087589e-05 -3.3421870032680973e-04 0.0000000000000000e+00  3.3171136491156645e-05 -4.1300925679705317e-04 0.0000000000000000e+00  2.8036757008945720e-05 -1.7469130793742080e-04 0.0000000000000000e+00  3.2397147289017105e-05 -2.9631774408483800e-04 0.0000000000000000e+00  2.9321714381484523e-05 -2.0598011762665695e-04 0.0000000000000000e+00  3.1869409650463835e-05 -2.6045525326166743e-04 0.0000000000000000e+00  3.0603990912716388e-05 -2.3171876502803949e-04 0.0000000000000000e+00  2.1875628571768941e-05 -9.4652075191034430e-05 0.0000000000000000e+00  2.8505562638624986e-05 -6.1135281845001892e-04 0.0000000000000000e+00  1.0929647795285744e-05 -2.4872985551810750e-05 0.0000000000000000e+00  1.6723161824468392e-05 -6.6211037701943806e-04 0.0000000000000000e+00  1.5877559650311408e-06 -1.0458730959860543e-06 0.0000000000000000e+00  2.3629579057432070e-05 -5.1447020743885976e-04 0.0000000000000000e+00  2.2426215061175941e-05 -5.5620669672756969e-04 0.0000000000000000e+00  8.7683948557224694e-06 -1.2569403663433865e-05 0.0000000000000000e+00  1.8942129164134191e-05 -4.7563097338586564e-05 0.0000000000000000e+00  2.5501646194859373e-05 -3.9193945491635047e-04 0.0000000000000000e+00  2.4539575224706680e-05 -4.7308716059210929e-04 0.0000000000000000e+00  3.0544954182360224e-05 -1.3089658699836981e-04 0.0000000000000000e+00  2.5569910558030714e-05 -3.5247567715843614e-04 0.0000000000000000e+00  2.2666882069373695e-05 -6.7742444212575811e-05 0.0000000000000000e+00  3.3053017490232024e-05 -1.6051114894253006e-04 0.0000000000000000e+00  2.5364951947121651e-05 -3.1397602079837489e-04 0.0000000000000000e+00  2.5160173115550242e-05 -4.3219231651342438e-04 0.0000000000000000e+00  3.6604076015107488e-05 -1.9232859387017427e-04 0.0000000000000000e+00  2.4889898422576696e-05 -2.7662944385376963e-04 0.0000000000000000e+00  -1.5936379477517189e-08 -1.4757087128793512e-06 0.0000000000000000e+00  -4.6475072817674981e-07 9.6627398021081255e-07 0.0000000000000000e+00  3.0863918307172199e-05 -7.0038090346580446e-04 0.0000000000000000e+00  4.2600029674162728e-06 -5.5947320883619892e-06 0.0000000000000000e+00