<?xml version="1.0"?>
<VTKFile type="UnstructuredGrid"  version="0.1"  >
<UnstructuredGrid>
<Piece  NumberOfPoints="1419" NumberOfCells="2698">
<Points>
<DataArray  type="Float64"  NumberOfComponents="3"  format="ascii">0 0 0  0 0.41 0  2.5 0 0  2.5 0.41 0  0.6 0.19 0  0.6 0.21 0  0.25 0.2 0  0.15 0.2 0  0.2489897948556636 0.21 0  0.2489897948556636 0.19 0  0.6 0.2 0  0 0.3807142857143437 0  0 0.3514285714286952 0  0 0.3221428571430699 0  0 0.29285714285744 0  0 0.2635714285718054 0  0 0.2342857142861561 0  0 0.2050000000005308 0  0 0.175714285714732 0  0 0.1464285714289574 0  0 0.1171428571431897 0  0 0.08785714285737878 0  0 0.05857142857161107 0  0 0.02928571428580012 0  0.03015443760436003 0 0  0.06140001986583606 0 0  0.09377624077125973 0 0  0.1273239957535082 0 0  0.1620856860351972 0 0  0.1981052433264291 0 0  0.235428184091502 0 0  0.2741016576309132 0 0  0.3141745521465447 0 0  0.3556974926295285 0 0  0.3987229542472677 0 0  0.4433053055141081 0 0  0.4895008759286886 0 0  0.5373680609405097 0 0  0.5869673343216626 0 0  0.6383613676634521 0 0  0.6916151138468254 0 0  0.7467958595648856 0 0  0.8039733463919316 0 0  0.8632198139502143 0 0  0.9246101326867038 0 0  0.9882218810934433 0 0  1.054135445558498 0 0  1.122434100542598 0 0  1.193204177141305 0 0  1.266535089879536 0 0  1.342519516046404 0 0  1.421253448503939 0 0  1.502836389106271 0 0  1.587371439758838 0 0  1.674965418777374 0 0  1.765729001825544 0 0  1.859776908880082 0 0  1.957227977487062 0 0  2.058205329869943 0 0  2.162836591189951 0 0  2.271253957290865 0 0  2.383594446803425 0 0  2.5 0.1024999999997612 0  2.5 0.2049999999994743 0  2.5 0.3074999999997183 0  2.383594446803656 0.41 0  2.271253957291315 0.41 0  2.162836591190598 0.41 0  2.058205329870775 0.41 0  1.957227977488067 0.41 0  1.859776908881246 0.41 0  1.765729001826854 0.41 0  1.674965418778818 0.41 0  1.58737143976041 0.41 0  1.502836389107956 0.41 0  1.421253448505726 0.41 0  1.342519516048286 0.41 0  1.266535089881505 0.41 0  1.193204177143353 0.41 0  1.122434100544716 0.41 0  1.05413544556068 0.41 0  0.9882218810956305 0.41 0  0.9246101326886647 0.41 0  0.8632198139519631 0.41 0  0.8039733463934788 0.41 0  0.7467958595662458 0.41 0  0.6916151138480078 0.41 0  0.6383613676644679 0.41 0  0.5869673343225223 0.41 0  0.5373680609412221 0.41 0  0.4895008759292634 0.41 0  0.4433053055145528 0.41 0  0.3987229542475914 0.41 0  0.3556974926297398 0.41 0  0.3141745521466497 0.41 0  0.2741016576310038 0.41 0  0.2354281840915826 0.41 0  0.1981052433265003 0.41 0  0.1620856860352591 0.41 0  0.1273239957535623 0.41 0  0.09377624077128965 0.41 0  0.06140001986584975 0.41 0  0.03015443760436654 0.41 0  0.2497468076502589 0.2050254481002335 0  0.2497468076502614 0.1949745518997913 0  0.2469965252529372 0.1829317073451959 0  0.2439893735792749 0.1762316384219906 0  0.2400332147834255 0.1700443375285386 0  0.2352133972704371 0.1645032867342007 0  0.2296339016332438 0.1597280261969788 0  0.2234150974217223 0.1558215752574715 0  0.2166911463437691 0.1528682099456123 0  0.2096071079204251 0.1509316448471593 0  0.2023158100364996 0.1500536585536553 0  0.194974551899914 0.1502531923497262 0  0.1877417105387872 0.1515259415822739 0  0.1807733240461124 0.153844448527136 0  0.1742197252835808 0.15715869474974 0  0.1682222986673531 0.1613971801805478 0  0.162910430003803 0.1664684656256651 0  0.1583987151779087 0.1722631454351573 0  0.1547844879126891 0.178656207771761 0  0.1521457199348551 0.1855097315605723 0  0.1505393388476355 0.1926758619366523 0  0.1505393388476328 0.2073241380633295 0  0.1521457199348437 0.2144902684393899 0  0.1547844879126531 0.221343792228163 0  0.1583987151778488 0.2277368545647528 0  0.1629104300036858 0.2335315343742052 0  0.1682222986671726 0.2386028198193036 0  0.1742197252833576 0.2428413052501257 0  0.1807733240458683 0.2461555514727623 0  0.1877417105384929 0.2484740584176516 0  0.1949745518995776 0.2497468076502398 0  0.202315810036185 0.2499463414463592 0  0.2096071079201568 0.2490683551528932 0  0.2166911463435495 0.2471317900544655 0  0.2234150974215506 0.2441784247426195 0  0.2296339016331197 0.2402719738031125 0  0.2352133972703547 0.2354967132658811 0  0.2400332147833751 0.2299556624715287 0  0.2439893735792577 0.2237683615780412 0  0.246996525252926 0.2170682926548348 0  0.25645809709277 0.21 0  0.2639263993298655 0.21 0  0.271394701566961 0.21 0  0.2788630038040554 0.21 0  0.2863313060411479 0.21 0  0.2937996082782405 0.21 0  0.301267910515333 0.21 0  0.3087362127524279 0.21 0  0.3162045149895234 0.21 0  0.3236728172265972 0.21 0  0.3311411194636928 0.21 0  0.3386094217007701 0.21 0  0.3460777239378666 0.21 0  0.3535460261749672 0.21 0  0.3610143284120516 0.21 0  0.3684826306491596 0.21 0  0.3759509328862226 0.21 0  0.383419235123329 0.21 0  0.3908875373604028 0.21 0  0.3983558395975142 0.21 0  0.4058241418345938 0.21 0  0.4132924440716992 0.21 0  0.4207607463087888 0.21 0  0.4282290485459029 0.21 0  0.4356973507830418 0.21 0  0.4431656530201649 0.21 0  0.4506339552573136 0.21 0  0.4581022574944306 0.21 0  0.4655705597315852 0.21 0  0.4730388619686996 0.21 0  0.480507164205851 0.21 0  0.4879754664429498 0.21 0  0.4954437686800938 0.21 0  0.502912070917267 0.21 0  0.5103803731544119 0.21 0  0.5178486753915261 0.21 0  0.5253169776286404 0.21 0  0.5327852798657868 0.21 0  0.5402535821029386 0.21 0  0.54772188434007 0.21 0  0.5551901865771842 0.21 0  0.5626584888143201 0.21 0  0.5701267910514778 0.21 0  0.5775950932886138 0.21 0  0.5850633955257281 0.21 0  0.5925316977628483 0.21 0  0.6 0.2050000000000054 0  0.6 0.1950000000000217 0  0.5925316977628897 0.19 0  0.5850633955257988 0.19 0  0.5775950932887378 0.19 0  0.5701267910515998 0.19 0  0.5626584888145268 0.19 0  0.5551901865773963 0.19 0  0.547721884340339 0.19 0  0.5402535821032429 0.19 0  0.5327852798661811 0.19 0  0.5253169776290537 0.19 0  0.5178486753919799 0.19 0  0.5103803731549078 0.19 0  0.502912070917822 0.19 0  0.4954437686807294 0.19 0  0.4879754664436223 0.19 0  0.4805071642065402 0.19 0  0.4730388619694271 0.19 0  0.4655705597323621 0.19 0  0.4581022574952563 0.19 0  0.4506339552581777 0.19 0  0.4431656530210671 0.19 0  0.4356973507839815 0.19 0  0.4282290485468779 0.19 0  0.4207607463097617 0.19 0  0.4132924440726327 0.19 0  0.4058241418354857 0.19 0  0.3983558395983636 0.19 0  0.3908875373612097 0.19 0  0.3834192351240934 0.19 0  0.3759509328869369 0.19 0  0.3684826306498175 0.19 0  0.361014328412667 0.19 0  0.3535460261755617 0.19 0  0.3460777239384295 0.19 0  0.3386094217012945 0.19 0  0.3311411194641595 0.19 0  0.3236728172270245 0.19 0  0.3162045149898895 0.19 0  0.3087362127527544 0.19 0  0.3012679105156187 0.19 0  0.2937996082784807 0.19 0  0.2863313060413428 0.19 0  0.2788630038042048 0.19 0  0.2713947015670686 0.19 0  0.2639263993299336 0.19 0  0.2564580970927985 0.19 0  0.2607803159922026 0.2000727136295815 0  0.5887803774232762 0.2001272386983733 0  0.5745072403740523 0.2002044435018727 0  0.5511891430099709 0.2001122610077113 0  0.2751288526855082 0.20000000000002 0  0.5365194309847112 0.1999999999999436 0  0.2894621222999649 0.1998691686390484 0  0.5215828265105155 0.1999999999999228 0  0.3127789816668748 0.1998657885438805 0  0.3274069683451451 0.2000000000000796 0  0.5066462220363641 0.199999999999908 0  0.3650630746574081 0.199866017807523 0  0.476773013087985 0.1999999999998713 0  0.3417402379596385 0.1998691686391011 0  0.3796850840047755 0.200000000000134 0  0.4618364086138087 0.1999999999998546 0  0.4917096175621762 0.1999999999998808 0  0.3946216884789568 0.2000000000001512 0  0.446899804139621 0.1999999999998389 0  0.4089549580935208 0.1998691686391595 0  0.4322718174608562 0.200127451265745 0  0.4201487168029707 0.1999966199048527 0  0.3528922713220932 0.2000185703532356 0  0.5633122436674589 0.1999814296467508 0  0.3006558810093873 0.1999966199048318 0  0.5815926498168407 0.1966545283159175 0  0.2677053789419034 0.1964246479135325 0  0.5290511287476175 0.1970915826863981 0  0.5439877332217911 0.197091582686394 0  0.2825131256993216 0.2035478995978015 0  0.3199386661080599 0.202908417313604 0  0.4842413153250809 0.1970915826863873 0  0.5141145242734466 0.1970915826863843 0  0.3722167817676917 0.2029084173136195 0  0.4693047108508938 0.1970915826863783 0  0.3348752705822316 0.202908417313609 0  0.3871533862418661 0.2029084173136212 0  0.4543681063767183 0.1970915826863795 0  0.4991779197992749 0.1970915826863902 0  0.4020059614928624 0.203547899597858 0  0.4394315019025246 0.1970915826863714 0  0.2550657455369551 0.2034088125358657 0  0.2548908499171161 0.1966940311614271 0  0.5946539510196798 0.2024302972968126 0  0.267698176732111 0.2039977513680092 0  0.4261685417851465 0.196409292431739 0  0.3590076176283495 0.196411355804271 0  0.5571672426447437 0.2036011176410121 0  0.3066757059912147 0.1964092924317024 0  0.594380730180568 0.1966558399668133 0  0.4842413153245942 0.2040749161535287 0  0.4693047108503577 0.2040749161535231 0  0.3871533862424271 0.1959250838464788 0  0.372246743208829 0.1959123236376545 0  0.5141145242731028 0.2040749161535395 0  0.4543681063761134 0.2040749161535186 0  0.4019979587101454 0.1959834479682427 0  0.4394608940728603 0.2040870543693135 0  0.5439623148931173 0.2040856076781014 0  0.5290511287473298 0.2040749161535501 0  0.4991779197988497 0.2040749161535382 0  0.3347912413592433 0.1959225448935183 0  0.3199680582793816 0.1959123018030061 0  0.2825051229162361 0.1959834479681729 0  0.3590471196690275 0.2036304442587945 0  0.5571594006495384 0.1963685282145804 0  0.3067669986803285 0.203627750582736 0  0.4262598344738712 0.2036568242185335 0  0.5814408164431408 0.2041285596160068 0  0.5688286748170428 0.1961819304477386 0  0.4145905603063645 0.2038180695522843 0  0.3473758401724931 0.2038180695522752 0  0.2950977245128307 0.2038180695522663 0  0.5688286748170693 0.203818069552238 0  0.2950977245127906 0.1961819304477774 0  0.3473758401723931 0.1961819304478349 0  0.4145905603061963 0.1961819304479011 0  0.2601812407614425 0.2056861609747042
[...]
<PointData  Vectors="f_40-0"> 
<DataArray  type="Float64"  Name="f_40-0"  NumberOfComponents="3" format="ascii">0.0000000000000000e+00 0.0000000000000000e+00 0.0000000000000000e+00  0.0000000000000000e+00 0.0000000000000000e+00 0.0000000000000000e+00  0.0000000000000000e+00 0.0000000000000000e+00 0.0000000000000000e+00  0.0000000000000000e+00 0.0000000000000000e+00 0.0000000000000000e+00  -4.8670330383169851e-06 -8.0010255612152428e-04 0.0000000000000000e+00  5.8971654761811164e-05 -8.0486463973972254e-04 0.0000000000000000e+00  0.0000000000000000e+00 0.0000000000000000e+00 0.0000000000000000e+00  0.0000000000000000e+00 0.0000000000000000e+00 0.0000000000000000e+00  0.0000000000000000e+00 0.0000000000000000e+00 0.0000000000000000e+00  0.0000000000000000e+00 0.0000000000000000e+00 0.0000000000000000e+00  2.6441685796931315e-05 -8.0247094169957011e-04 0.0000000000000000e+00  1.1949195829408138e-01 0.0000000000000000e+00 0.0000000000000000e+00  2.2060053838908789e-01 0.0000000000000000e+00 0.0000000000000000e+00  3.0332574028499598e-01 0.0000000000000000e+00 0.0000000000000000e+00  3.6766756398190115e-01 0.0000000000000000e+00 0.0000000000000000e+00  4.1362600947979533e-01 0.0000000000000000e+00 0.0000000000000000e+00  4.4120107677867565e-01 0.0000000000000000e+00 0.0000000000000000e+00  4.5039276587851451e-01 0.0000000000000000e+00 0.0000000000000000e+00  4.4120107677923315e-01 0.0000000000000000e+00 0.0000000000000000e+00  4.1362600948075307e-01 0.0000000000000000e+00 0.0000000000000000e+00  3.6766756398308714e-01 0.0000000000000000e+00 0.0000000000000000e+00  3.0332574028612258e-01 0.0000000000000000e+00 0.0000000000000000e+00  2.2060053839004931e-01 0.0000000000000000e+00 0.0000000000000000e+00  1.1949195829462307e-01 0.0000000000000000e+00 0.0000000000000000e+00  0.0000000000000000e+00 0.0000000000000000e+00 0.0000000000000000e+00  0.0000000000000000e+00 0.0000000000000000e+00 0.0000000000000000e+00  0.0000000000000000e+00 0.0000000000000000e+00 0.0000000000000000e+00  0.0000000000000000e+00 0.0000000000000000e+00 0.0000000000000000e+00  0.0000000000000000e+00 0.0000000000000000e+00 0.0000000000000000e+00  0.0000000000000000e+00 0.0000000000000000e+00 0.0000000000000000e+00  0.0000000000000000e+00 0.0000000000000000e+00 0.0000000000000000e+00  0.0000000000000000e+00 0.0000000000000000e+00 0.0000000000000000e+00  0.0000000000000000e+00 0.0000000000000000e+00 0.0000000000000000e+00  0.0000000000000000e+00 0.0000000000000000e+00 0.0000000000000000e+00  0.0000000000000000e+00 0.0000000000000000e+00 0.0000000000000000e+00  0.0000000000000000e+00 0.0000000000000000e+00 0.0000000000000000e+00  0.0000000000000000e+00 0.0000000000000000e+00 0.0000000000000000e+00  0.0000000000000000e+00 0.0000000000000000e+00 0.0000000000000000e+00  0.0000000000000000e+00 0.0000000000000000e+00 0.0000000000000000e+00  0.0000000000000000e+00 0.0000000000000000e+00 0.0000000000000000e+00  0.0000000000000000e+00 0.0000000000000000e+00 0.0000000000000000e+00  0.0000000000000000e+00 0.0000000000000000e+00 0.0000000000000000e+00  0.0000000000000000e+00 0.0000000000000000e+00 0.0000000000000000e+00  0.0000000000000000e+00 0.0000000000000000e+00 0.0000000000000000e+00  0.0000000000000000e+00 0.0000000000000000e+00 0.0000000000000000e+00  0.0000000000000000e+00 0.0000000000000000e+00 0.0000000000000000e+00  0.0000000000000000e+00 0.0000000000000000e+00 0.0000000000000000e+00  0.0000000000000000e+00 0.0000000000000000e+00 0.0000000000000000e+00  0.0000000000000000e+00 0.0000000000000000e+00 0.0000000000000000e+00  0.0000000000000000e+00 0.0000000000000000e+00 0.0000000000000000e+00  0.0000000000000000e+00 0.0000000000000000e+00 0.0000000000000000e+00  0.0000000000000000e+00 0.0000000000000000e+00 0.0000000000000000e+00  0.0000000000000000e+00 0.0000000000000000e+00 0.0000000000000000e+00  0.0000000000000000e+00 0.0000000000000000e+00 0.0000000000000000e+00  0.0000000000000000e+00 0.0000000000000000e+00 0.0000000000000000e+00  0.0000000000000000e+00 0.0000000000000000e+00 0.0000000000000000e+00  0.0000000000000000e+00 0.0000000000000000e+00 0.0000000000000000e+00  0.0000000000000000e+00 0.0000000000000000e+00 0.0000000000000000e+00  0.0000000000000000e+00 0.0000000000000000e+00 0.0000000000000000e+00  0.0000000000000000e+00 0.0000000000000000e+00 0.0000000000000000e+00  0.0000000000000000e+00 0.0000000000000000e+00 0.0000000000000000e+00  0.0000000000000000e+00 0.0000000000000000e+00 0.0000000000000000e+00  4.3226025254852762e-01 1.3072530375865272e-02 0.0000000000000000e+00  3.0215505493187234e-01 -2.6930846890247627e-03 0.0000000000000000e+00  4.3289463367905467e-01 -9.1293401727155811e-03 0.0000000000000000e+00  0.0000000000000000e+00 0.0000000000000000e+00 0.0000000000000000e+00  0.0000000000000000e+00 0.0000000000000000e+00 0.0000000000000000e+00  0.0000000000000000e+00 0.0000000000000000e+00 0.0000000000000000e+00  0.0000000000000000e+00 0.0000000000000000e+00 0.0000000000000000e+00  0.0000000000000000e+00 0.0000000000000000e+00 0.0000000000000000e+00  0.0000000000000000e+00 0.0000000000000000e+00 0.0000000000000000e+00  0.0000000000000000e+00 0.0000000000000000e+00 0.0000000000000000e+00  0.0000000000000000e+00 0.0000000000000000e+00 0.0000000000000000e+00  0.0000000000000000e+00 0.0000000000000000e+00 0.0000000000000000e+00  0.0000000000000000e+00 0.0000000000000000e+00 0.0000000000000000e+00  0.0000000000000000e+00 0.0000000000000000e+00 0.0000000000000000e+00  0.0000000000000000e+00 0.0000000000000000e+00 0.0000000000000000e+00  0.0000000000000000e+00 0.0000000000000000e+00 0.0000000000000000e+00  0.0000000000000000e+00 0.0000000000000000e+00 0.0000000000000000e+00  0.0000000000000000e+00 0.0000000000000000e+00 0.0000000000000000e+00  0.0000000000000000e+00 0.0000000000000000e+00 0.0000000000000000e+00  0.0000000000000000e+00 0.0000000000000000e+00 0.0000000000000000e+00  0.0000000000000000e+00 0.0000000000000000e+00 0.0000000000000000e+00  0.0000000000000000e+00 0.0000000000000000e+00 0.0000000000000000e+00  0.0000000000000000e+00 0.0000000000000000e+00 0.0000000000000000e+00  0.0000000000000000e+00 0.0000000000000000e+00 0.0000000000000000e+00  0.0000000000000000e+00 0.0000000000000000e+00 0.0000000000000000e+00  0.0000000000000000e+00 0.0000000000000000e+00 0.0000000000000000e+00  0.0000000000000000e+00 0.0000000000000000e+00 0.0000000000000000e+00  0.0000000000000000e+00 0.0000000000000000e+00 0.0000000000000000e+00  0.0000000000000000e+00 0.0000000000000000e+00 0.0000000000000000e+00  0.0000000000000000e+00 0.0000000000000000e+00 0.0000000000000000e+00  0.0000000000000000e+00 0.0000000000000000e+00 0.0000000000000000e+00  0.0000000000000000e+00 0.0000000000000000e+00 0.0000000000000000e+00  0.0000000000000000e+00 0.0000000000000000e+00 0.0000000000000000e+00  0.0000000000000000e+00 0.0000000000000000e+00 0.0000000000000000e+00  0.0000000000000000e+00 0.0000000000000000e+00 0.0000000000000000e+00  0.0000000000000000e+00 0.0000000000000000e+00 0.0000000000000000e+00  0.0000000000000000e+00 0.0000000000000000e+00 0.0000000000000000e+00  0.0000000000000000e+00 0.0000000000000000e+00 0.0000000000000000e+00  0.0000000000000000e+00 0.0000000000000000e+00 0.0000000000000000e+00  0.0000000000000000e+00 0.0000000000000000e+00 0.0000000000000000e+00  0.0000000000000000e+00 0.0000000000000000e+00 0.0000000000000000e+00  0.0000000000000000e+00 0.0000000000000000e+00 0.0000000000000000e+00  0.0000000000000000e+00 0.0000000000000000e+00 0.0000000000000000e+00  0.0000000000000000e+00 0.0000000000000000e+00 0.0000000000000000e+00  0.0000000000000000e+00 0.0000000000000000e+00 0.0000000000000000e+00  0.0000000000000000e+00 0.0000000000000000e+00 0.0000000000000000e+00  0.0000000000000000e+00 0.0000000000000000e+00 0.0000000000000000e+00  0.0000000000000000e+00 0.0000000000000000e+00 0.0000000000000000e+00  0.0000000000000000e+00 0.0000000000000000e+00 0.0000000000000000e+00  0.0000000000000000e+00 0.0000000000000000e+00 0.0000000000000000e+00  0.0000000000000000e+00 0.0000000000000000e+00 0.0000000000000000e+00  0.0000000000000000e+00 0.0000000000000000e+00 0.0000000000000000e+00  0.0000000000000000e+00 0.0000000000000000e+00 0.0000000000000000e+00  0.0000000000000000e+00 0.0000000000000000e+00 0.0000000000000000e+00  0.0000000000000000e+00 0.0000000000000000e+00 0.0000000000000000e+00  0.0000000000000000e+00 0.0000000000000000e+00 0.0000000000000000e+00  0.0000000000000000e+00 0.0000000000000000e+00 0.0000000000000000e+00  0.0000000000000000e+00 0.0000000000000000e+00 0.0000000000000000e+00  0.0000000000000000e+00 0.0000000000000000e+00 0.0000000000000000e+00  0.0000000000000000e+00 0.0000000000000000e+00 0.0000000000000000e+00  0.0000000000000000e+00 0.0000000000000000e+00 0.0000000000000000e+00  0.0000000000000000e+00 0.0000000000000000e+00 0.0000000000000000e+00  0.0000000000000000e+00 0.0000000000000000e+00 0.0000000000000000e+00  0.0000000000000000e+00 0.0000000000000000e+00 0.0000000000000000e+00  0.0000000000000000e+00 0.0000000000000000e+00 0.0000000000000000e+00  0.0000000000000000e+00 0.0000000000000000e+00 0.0000000000000000e+00  0.0000000000000000e+00 0.0000000000000000e+00 0.0000000000000000e+00  0.0000000000000000e+00 0.0000000000000000e+00 0.0000000000000000e+00  0.0000000000000000e+00 0.0000000000000000e+00 0.0000000000000000e+00  0.0000000000000000e+00 0.0000000000000000e+00 0.0000000000000000e+00  0.0000000000000000e+00 0.0000000000000000e+00 0.0000000000000000e+00  0.0000000000000000e+00 0.0000000000000000e+00 0.0000000000000000e+00  0.0000000000000000e+00 0.0000000000000000e+00 0.0000000000000000e+00  0.0000000000000000e+00 0.0000000000000000e+00 0.0000000000000000e+00  0.0000000000000000e+00 0.0000000000000000e+00 0.0000000000000000e+00  0.0000000000000000e+00 0.0000000000000000e+00 0.0000000000000000e+00  0.0000000000000000e+00 0.0000000000000000e+00 0.0000000000000000e+00  0.0000000000000000e+00 0.0000000000000000e+00 0.0000000000000000e+00  0.0000000000000000e+00 0.0000000000000000e+00 0.0000000000000000e+00  0.0000000000000000e+00 0.0000000000000000e+00 0.0000000000000000e+00  0.0000000000000000e+00 0.0000000000000000e+00 0.0000000000000000e+00  2.4958320677848411e-06 -6.1496453588070292e-06 0.0000000000000000e+00  5.4241977600888572e-06 -8.2721773778088010e-06 0.0000000000000000e+00  8.5138151384053741e-06 -1.1307412989545630e-05 0.0000000000000000e+00  1.1926935580107394e-05 -1.5391793887151502e-05 0.0000000000000000e+00  1.5147978208313626e-05 -2.0550306394980630e-05 0.0000000000000000e+00  1.8596292884319088e-05 -2.6899008932972547e-05 0.0000000000000000e+00  2.1721651415206201e-05 -3.4105388846869478e-05 0.0000000000000000e+00  2.4785868651864550e-05 -4.2473686249247320e-05 0.0000000000000000e+00  2.8038732142550733e-05 -5.1738418058254876e-05 0.0000000000000000e+00  3.0863683417649965e-05 -6.1926331121897387e-05 0.0000000000000000e+00  3.3913059421028853e-05 -7.3087058391333042e-05 0.0000000000000000e+00  3.6527044382539505e-05 -8.5086267241726027e-05 0.0000000000000000e+00  3.9272754311353511e-05 -9.7963627499201699e-05 0.0000000000000000e+00  4.1687189603773832e-05 -1.1154632500318893e-04 0.0000000000000000e+00  4.3983619238256675e-05 -1.2598990761686964e-04 0.0000000000000000e+00  4.6362053475546590e-05 -1.4111743299095555e-04 0.0000000000000000e+00  4.8371888497330378e-05 -1.5689494705044092e-04 0.0000000000000000e+00  5.0482605745203335e-05 -1.7340021360102889e-04 0.0000000000000000e+00  5.2245176429927531e-05 -1.9045617254290413e-04 0.0000000000000000e+00  5.4079934098154642e-05 -2.0813905480284082e-04 0.0000000000000000e+00  5.5641438364403274e-05 -2.2632957770608880e-04 0.0000000000000000e+00  5.7195518975287140e-05 -2.4509647395059761e-04 0.0000000000000000e+00  5.8528454308999470e-05 -2.6427024358630102e-04 0.0000000000000000e+00  5.9747781473959250e-05 -2.8395892731646592e-04 0.0000000000000000e+00  6.0971515118033274e-05 -3.0403193147669988e-04 0.0000000000000000e+00  6.1987071218671288e-05 -3.2449818243830345e-04 0.0000000000000000e+00  6.2922675639414199e-05 -3.4539859539331296e-04 0.0000000000000000e+00  6.3716502109496706e-05 -3.6657408280869826e-04 0.0000000000000000e+00  6.4425044037761807e-05 -3.8813410265570625e-04 0.0000000000000000e+00  6.4997519948766552e-05 -4.0992645581296974e-04 0.0000000000000000e+00  6.5483882630368935e-05 -4.3204581723822445e-04 0.0000000000000000e+00  6.5837261823603136e-05 -4.5434589928679638e-04 0.0000000000000000e+00  6.6107585204907017e-05 -4.7692376778809799e-04 0.0000000000000000e+00  6.6244909435261159e-05 -4.9963235181078240e-04 0.0000000000000000e+00  6.6288420866750589e-05 -5.2258673215552871e-04 0.0000000000000000e+00  6.6214488611504609e-05 -5.4562890475589611e-04 0.0000000000000000e+00  6.6048352926914759e-05 -5.6886203481447514e-04 0.0000000000000000e+00  6.5766807188364645e-05 -5.9214808006549235e-04 0.0000000000000000e+00  6.5389645842609407e-05 -6.1558747489779623e-04 0.0000000000000000e+00  6.4897238564647989e-05 -6.3905003178024928e-04 0.0000000000000000e+00  6.4302569715802633e-05 -6.6261559839870296e-04 0.0000000000000000e+00  6.3610231896249215e-05 -6.8619908876598509e-04 0.0000000000000000e+00  6.2805274047451391e-05 -7.0984072944617978e-04 0.0000000000000000e+00  6.1941977279416187e-05 -7.3349720969018313e-04 0.0000000000000000e+00  6.0953944904711012e-05 -7.5713362689857624e-04 0.0000000000000000e+00  5.9912192100104180e-05 -7.8084360626216669e-04 0.0000000000000000e+00  4.2496075446502867e-05 -8.0364727098342114e-04 0.0000000000000000e+00  1.0613590121353599e-05 -8.0129960416634196e-04 0.0000000000000000e+00  -3.8601825724992944e-06 -7.7644520779654674e-04 0.0000000000000000e+00  -2.7644655106363072e-06 -7.5252905369505246e-04 0.0000000000000000e+00  -1.7122142832578325e-06 -7.2858575369823860e-04 0.0000000000000000e+00  -7.5361234418514591e-07 -7.0471056872812448e-04 0.0000000000000000e+00  1.5057865414206506e-07 -6.8086509467439279e-04 0.0000000000000000e+00  9.6286576676217172e-07 -6.5706939148004958e-04 0.0000000000000000e+00  1.7357830644426284e-06 -6.3333200927773159e-04 0.0000000000000000e+00  2.4096689282623913e-06 -6.0963854513962205e-04 0.0000000000000000e+00  3.0525187181700816e-06 -5.8606816640892324e-04 0.0000000000000000e+00  3.5997708136141350e-06 -5.6255023308432667e-04 0.0000000000000000e+00  4.1326151658915698e-06 -5.3918689865554406e-04 0.0000000000000000e+00  4.5616788943626273e-06 -5.1591320610970505e-04 0.0000000000000000e+00  4.9922497148993423e-06 -4.9283798784036364e-04 0.0000000000000000e+00  5.3136194551415606e-06 -4.6989829482126870e-04 0.0000000000000000e+00  5.6555414818064579e-06 -4.4719773383832684e-04 0.0000000000000000e+00  5.8740738123276286e-06 -4.2467683185261069e-04 0.0000000000000000e+00  6.1340368903417404e-06 -4.0243531724211916e-04 0.0000000000000000e+00  6.2537577208283772e-06 -3.8041822988390265e-04 0.0000000000000000e+00  6.4308679635862269e-06 -3.5873742635656955e-04 0.0000000000000000e+00  6.4563527511647623e-06 -3.3733891687252036e-04 0.0000000000000000e+00  6.5654721639152089e-06 -3.1632739310681927e-04 0.0000000000000000e+00  6.5035002116782418e-06 -2.9565265711978814e-04 0.0000000000000000e+00  6.5228527706072526e-06 -2.7540660907419636e-04 0.0000000000000000e+00  6.4027375518658710e-06 -2.5554028671406699e-04 0.0000000000000000e+00  6.2225473941518382e-06 -2.3620343564483283e-04 0.0000000000000000e+00  6.1396631956438012e-06 -2.1726787275994105e-04 0.0000000000000000e+00  5.9189069816189024e-06 -1.9887774483442640e-04 0.0000000000000000e+00  5.7297089239394170e-06 -1.8105555373573978e-04 0.0000000000000000e+00  5.4425147304951745e-06 -1.6378251689736916e-04 0.0000000000000000e+00  5.1811699926430209e-06 -1.4715956307687696e-04 0.0000000000000000e+00  4.8227244325956167e-06 -1.3112986796738404e-04 0.0000000000000000e+00  4.5611111296383811e-06 -1.1590310197457544e-04 0.0000000000000000e+00  4.1150170979641844e-06 -1.0126502288685119e-04 0.0000000000000000e+00  3.6190896108316991e-06 -8.7535982110080850e-05 0.0000000000000000e+00  3.2954326433910054e-06 -7.4447503924286862e-05 0.0000000000000000e+00  2.8125956325862000e-06 -6.2292709688214885e-05 0.0000000000000000e+00  2.3926361234382163e-06 -5.1030294839986692e-05 0.0000000000000000e+00  1.8690544097064099e-06 -4.0654881613222598e-05 0.0000000000000000e+00  1.5075621294888286e-06 -3.1364665229045724e-05 0.0000000000000000e+00  9.3000232383610098e-07 -2.2914224895712392e-05 0.0000000000000000e+00  3.4057692401701780e-07 -1.5679010257416918e-05 0.0000000000000000e+00  3.3912317292492340e-08 -9.3268879170949673e-06 0.0000000000000000e+00  -4.2198760544130869e-07 -4.1411703680864943e-06 0.0000000000000000e+00  -5.7006650047173073e-07 -9.9242501112744361e-08 0.0000000000000000e+00  -7.5363352478789769e-07 2.6123479116370003e-06 0.0000000000000000e+00  -3.9126375472944978e-07 3.8992188764971763e-06 0.0000000000000000e+00  8.4012516233219025e-07 -1.1710151352281761e-06 0.0000000000000000e+00  2.8746569771645845e-05 -7.6669561527414616e-04 0.0000000000000000e+00  3.1061900302273080e-05 -7.2123769590901217e-04 0.0000000000000000e+00  3.3275311150895965e-05 -6.4715318721324092e-04 0.0000000000000000e+00  4.8042838655305900e-06 -6.8474597057901224e-06 0.0000000000000000e+00  3.4059464899181848e-05 -6.0078886469577201e-04 0.0000000000000000e+00  8.2564606562694133e-06 -1.6661774252428482e-05 0.0000000000000000e+00  3.4905593163017306e-05 -5.5395813030963083e-04 0.0000000000000000e+00  1.3888707737377060e-05 -4.1101111410176703e-05 0.0000000000000000e+00  1.7421226846829581e-05 -6.1391126924565444e-05 0.0000000000000000e+00  3.5429220453654859e-05 -5.0761501096955165e-04 0.0000000000000000e+00  2.4636782257048741e-05 -1.2854765640534879e-04 0.0000000000000000e+00  3.5530814265488512e-05 -4.1707043044529005e-04 0.0000000000000000e+00  2.0276427730122636e-05 -8.4474922760453610e-05 0.0000000000000000e+00  2.7284629550458319e-05 -1.5981720754888176e-04 0.0000000000000000e+00  3.5115625277489391e-05 -3.7322815040443400e-04 0.0000000000000000e+00  3.5636298660833541e-05 -4.6192718394640319e-04 0.0000000000000000e+00  2.9412512398423576e-05 -1.9418656584328678e-04 0.0000000000000000e+00  3.4388777540118821e-05 -3.3061306487599531e-04 0.0000000000000000e+00  3.0839009576038259e-05 -2.2923368124776636e-04 0.0000000000000000e+00  3.3734135048983267e-05 -2.9032199488837569e-04 0.0000000000000000e+00  3.2288693470088705e-05 -2.5808371424816483e-04 0.0000000000000000e+00  2.2703192919761156e-05 -1.0481666281665121e-04 0.0000000000000000e+00  3.1627207272033095e-05 -6.8558299290233588e-04 0.0000000000000000e+00  1.1102344630326716e-05 -2.7380180918217306e-05 0.0000000000000000e+00  1.8790186677937676e-05 -7.4297850915250004e-04 0.0000000000000000e+00  1.4937116209822177e-06 -1.4170857512922770e-06 0.0000000000000000e+00  2.5426054967257837e-05 -5.7643169836316891e-04 0.0000000000000000e+00  2.4348298580863560e-05 -6.2350089061403568e-04 0.0000000000000000e+00  9.0447586552447221e-06 -1.3543349150345240e-05 0.0000000000000000e+00  1.9714937985724687e-05 -5.2297040579519621e-05 0.0000000000000000e+00  2.6916419208388124e-05 -4.3835065218126928e-04 0.0000000000000000e+00  2.6209288305481850e-05 -5.2977581305195510e-04 0.0000000000000000e+00  3.2274226901851579e-05 -1.4505028559569748e-04 0.0000000000000000e+00  2.6857443663453432e-05 -3.9392935578741348e-04 0.0000000000000000e+00  2.3709557950375866e-05 -7.4695158654975837e-05 0.0000000000000000e+00  3.5037033934618641e-05 -1.7814396034179729e-04 0.0000000000000000e+00  2.6524959834782949e-05 -3.5062765586757347e-04 0.0000000000000000e+00  2.6702343323338430e-05 -4.8368981131970655e-04 0.0000000000000000e+00  3.8996689030016410e-05 -2.1371648644196513e-04 0.0000000000000000e+00  2.5921415335583595e-05 -3.0866145292361789e-04 0.0000000000000000e+00  5.4005708496996125e-08 -1.4444467927851047e-06 0.0000000000000000e+00  -4.3901280078269074e-07 9.1273018556147144e-07 0.0000000000000000e+00  3.5118861591893776e-05 -7.8593239738455434e-04 0.0000000000000000e+00  4.4308048041671341e-06 -5.8128579086141515e-06 0.0000000000000000e+0