<?xml version="1.0"?>
<VTKFile type="UnstructuredGrid"  version="0.1"  >
<UnstructuredGrid>
<Piece  NumberOfPoints="1419" NumberOfCells="2698">
<Points>
<DataArray  type="Float64"  NumberOfComponents="3"  format="ascii">0 0 0  0 0.41 0  2.5 0 0  2.5 0.41 0  0.6 0.19 0  0.6 0.21 0  0.25 0.2 0  0.15 0.2 0  0.2489897948556636 0.21 0  0.2489897948556636 0.19 0  0.6 0.2 0  0 0.3807142857143437 0  0 0.3514285714286952 0  0 0.3221428571430699 0  0 0.29285714285744 0  0 0.2635714285718054 0  0 0.2342857142861561 0  0 0.2050000000005308 0  0 0.175714285714732 0  0 0.1464285714289574 0  0 0.1171428571431897 0  0 0.08785714285737878 0  0 0.05857142857161107 0  0 0.02928571428580012 0  0.03015443760436003 0 0  0.06140001986583606 0 0  0.09377624077125973 0 0  0.1273239957535082 0 0  0.1620856860351972 0 0  0.1981052433264291 0 0  0.235428184091502 0 0  0.2741016576309132 0 0  0.3141745521465447 0 0  0.3556974926295285 0 0  0.3987229542472677 0 0  0.4433053055141081 0 0  0.4895008759286886 0 0  0.5373680609405097 0 0  0.5869673343216626 0 0  0.6383613676634521 0 0  0.6916151138468254 0 0  0.7467958595648856 0 0  0.8039733463919316 0 0  0.8632198139502143 0 0  0.9246101326867038 0 0  0.9882218810934433 0 0  1.054135445558498 0 0  1.122434100542598 0 0  1.193204177141305 0 0  1.266535089879536 0 0  1.342519516046404 0 0  1.421253448503939 0 0  1.502836389106271 0 0  1.587371439758838 0 0  1.674965418777374 0 0  1.765729001825544 0 0  1.859776908880082 0 0  1.957227977487062 0 0  2.058205329869943 0 0  2.162836591189951 0 0  2.271253957290865 0 0  2.383594446803425 0 0  2.5 0.1024999999997612 0  2.5 0.2049999999994743 0  2.5 0.3074999999997183 0  2.383594446803656 0.41 0  2.271253957291315 0.41 0  2.162836591190598 0.41 0  2.058205329870775 0.41 0  1.957227977488067 0.41 0  1.859776908881246 0.41 0  1.765729001826854 0.41 0  1.674965418778818 0.41 0  1.58737143976041 0.41 0  1.502836389107956 0.41 0  1.421253448505726 0.41 0  1.342519516048286 0.41 0  1.266535089881505 0.41 0  1.193204177143353 0.41 0  1.122434100544716 0.41 0  1.05413544556068 0.41 0  0.9882218810956305 0.41 0  0.9246101326886647 0.41 0  0.8632198139519631 0.41 0  0.8039733463934788 0.41 0  0.7467958595662458 0.41 0  0.6916151138480078 0.41 0  0.6383613676644679 0.41 0  0.5869673343225223 0.41 0  0.5373680609412221 0.41 0  0.4895008759292634 0.41 0  0.4433053055145528 0.41 0  0.3987229542475914 0.41 0  0.3556974926297398 0.41 0  0.3141745521466497 0.41 0  0.2741016576310038 0.41 0  0.2354281840915826 0.41 0  0.1981052433265003 0.41 0  0.1620856860352591 0.41 0  0.1273239957535623 0.41 0  0.09377624077128965 0.41 0  0.06140001986584975 0.41 0  0.03015443760436654 0.41 0  0.2497468076502589 0.2050254481002335 0  0.2497468076502614 0.1949745518997913 0  0.2469965252529372 0.1829317073451959 0  0.2439893735792749 0.1762316384219906 0  0.2400332147834255 0.1700443375285386 0  0.2352133972704371 0.1645032867342007 0  0.2296339016332438 0.1597280261969788 0  0.2234150974217223 0.1558215752574715 0  0.2166911463437691 0.1528682099456123 0  0.2096071079204251 0.1509316448471593 0  0.2023158100364996 0.1500536585536553 0  0.194974551899914 0.1502531923497262 0  0.1877417105387872 0.1515259415822739 0  0.1807733240461124 0.153844448527136 0  0.1742197252835808 0.15715869474974 0  0.1682222986673531 0.1613971801805478 0  0.162910430003803 0.1664684656256651 0  0.1583987151779087 0.1722631454351573 0  0.1547844879126891 0.178656207771761 0  0.1521457199348551 0.1855097315605723 0  0.1505393388476355 0.1926758619366523 0  0.1505393388476328 0.2073241380633295 0  0.1521457199348437 0.2144902684393899 0  0.1547844879126531 0.221343792228163 0  0.1583987151778488 0.2277368545647528 0  0.1629104300036858 0.2335315343742052 0  0.1682222986671726 0.2386028198193036 0  0.1742197252833576 0.2428413052501257 0  0.1807733240458683 0.2461555514727623 0  0.1877417105384929 0.2484740584176516 0  0.1949745518995776 0.2497468076502398 0  0.202315810036185 0.2499463414463592 0  0.2096071079201568 0.2490683551528932 0  0.2166911463435495 0.2471317900544655 0  0.2234150974215506 0.2441784247426195 0  0.2296339016331197 0.2402719738031125 0  0.2352133972703547 0.2354967132658811 0  0.2400332147833751 0.2299556624715287 0  0.2439893735792577 0.2237683615780412 0  0.246996525252926 0.2170682926548348 0  0.25645809709277 0.21 0  0.2639263993298655 0.21 0  0.271394701566961 0.21 0  0.2788630038040554 0.21 0  0.2863313060411479 0.21 0  0.2937996082782405 0.21 0  0.301267910515333 0.21 0  0.3087362127524279 0.21 0  0.3162045149895234 0.21 0  0.3236728172265972 0.21 0  0.3311411194636928 0.21 0  0.3386094217007701 0.21 0  0.3460777239378666 0.21 0  0.3535460261749672 0.21 0  0.3610143284120516 0.21 0  0.3684826306491596 0.21 0  0.3759509328862226 0.21 0  0.383419235123329 0.21 0  0.3908875373604028 0.21 0  0.3983558395975142 0.21 0  0.4058241418345938 0.21 0  0.4132924440716992 0.21 0  0.4207607463087888 0.21 0  0.4282290485459029 0.21 0  0.4356973507830418 0.21 0  0.4431656530201649 0.21 0  0.4506339552573136 0.21 0  0.4581022574944306 0.21 0  0.4655705597315852 0.21 0  0.4730388619686996 0.21 0  0.480507164205851 0.21 0  0.4879754664429498 0.21 0  0.4954437686800938 0.21 0  0.502912070917267 0.21 0  0.5103803731544119 0.21 0  0.5178486753915261 0.21 0  0.5253169776286404 0.21 0  0.5327852798657868 0.21 0  0.5402535821029386 0.21 0  0.54772188434007 0.21 0  0.5551901865771842 0.21 0  0.5626584888143201 0.21 0  0.5701267910514778 0.21 0  0.5775950932886138 0.21 0  0.5850633955257281 0.21 0  0.5925316977628483 0.21 0  0.6 0.2050000000000054 0  0.6 0.1950000000000217 0  0.5925316977628897 0.19 0  0.5850633955257988 0.19 0  0.5775950932887378 0.19 0  0.5701267910515998 0.19 0  0.5626584888145268 0.19 0  0.5551901865773963 0.19 0  0.547721884340339 0.19 0  0.5402535821032429 0.19 0  0.5327852798661811 0.19 0  0.5253169776290537 0.19 0  0.5178486753919799 0.19 0  0.5103803731549078 0.19 0  0.502912070917822 0.19 0  0.4954437686807294 0.19 0  0.4879754664436223 0.19 0  0.4805071642065402 0.19 0  0.4730388619694271 0.19 0  0.4655705597323621 0.19 0  0.4581022574952563 0.19 0  0.4506339552581777 0.19 0  0.4431656530210671 0.19 0  0.4356973507839815 0.19 0  0.4282290485468779 0.19 0  0.4207607463097617 0.19 0  0.4132924440726327 0.19 0  0.4058241418354857 0.19 0  0.3983558395983636 0.19 0  0.3908875373612097 0.19 0  0.3834192351240934 0.19 0  0.3759509328869369 0.19 0  0.3684826306498175 0.19 0  0.361014328412667 0.19 0  0.3535460261755617 0.19 0  0.3460777239384295 0.19 0  0.3386094217012945 0.19 0  0.3311411194641595 0.19 0  0.3236728172270245 0.19 0  0.3162045149898895 0.19 0  0.3087362127527544 0.19 0  0.3012679105156187 0.19 0  0.2937996082784807 0.19 0  0.2863313060413428 0.19 0  0.2788630038042048 0.19 0  0.2713947015670686 0.19 0  0.2639263993299336 0.19 0  0.2564580970927985 0.19 0  0.2607803159922026 0.2000727136295815 0  0.5887803774232762 0.2001272386983733 0  0.5745072403740523 0.2002044435018727 0  0.5511891430099709 0.2001122610077113 0  0.2751288526855082 0.20000000000002 0  0.5365194309847112 0.1999999999999436 0  0.2894621222999649 0.1998691686390484 0  0.5215828265105155 0.1999999999999228 0  0.3127789816668748 0.1998657885438805 0  0.3274069683451451 0.2000000000000796 0  0.5066462220363641 0.199999999999908 0  0.3650630746574081 0.199866017807523 0  0.476773013087985 0.1999999999998713 0  0.3417402379596385 0.1998691686391011 0  0.3796850840047755 0.200000000000134 0  0.4618364086138087 0.1999999999998546 0  0.4917096175621762 0.1999999999998808 0  0.3946216884789568 0.2000000000001512 0  0.446899804139621 0.1999999999998389 0  0.4089549580935208 0.1998691686391595 0  0.4322718174608562 0.200127451265745 0  0.4201487168029707 0.1999966199048527 0  0.3528922713220932 0.2000185703532356 0  0.5633122436674589 0.1999814296467508 0  0.3006558810093873 0.1999966199048318 0  0.5815926498168407 0.1966545283159175 0  0.2677053789419034 0.1964246479135325 0  0.5290511287476175 0.1970915826863981 0  0.5439877332217911 0.197091582686394 0  0.2825131256993216 0.2035478995978015 0  0.3199386661080599 0.202908417313604 0  0.4842413153250809 0.1970915826863873 0  0.5141145242734466 0.1970915826863843 0  0.3722167817676917 0.2029084173136195 0  0.4693047108508938 0.1970915826863783 0  0.3348752705822316 0.202908417313609 0  0.3871533862418661 0.2029084173136212 0  0.4543681063767183 0.1970915826863795 0  0.4991779197992749 0.1970915826863902 0  0.4020059614928624 0.203547899597858 0  0.4394315019025246 0.1970915826863714 0  0.2550657455369551 0.2034088125358657 0  0.2548908499171161 0.1966940311614271 0  0.5946539510196798 0.2024302972968126 0  0.267698176732111 0.2039977513680092 0  0.4261685417851465 0.196409292431739 0  0.3590076176283495 0.196411355804271 0  0.5571672426447437 0.2036011176410121 0  0.3066757059912147 0.1964092924317024 0  0.594380730180568 0.1966558399668133 0  0.4842413153245942 0.2040749161535287 0  0.4693047108503577 0.2040749161535231 0  0.3871533862424271 0.1959250838464788 0  0.372246743208829 0.1959123236376545 0  0.5141145242731028 0.2040749161535395 0  0.4543681063761134 0.2040749161535186 0  0.4019979587101454 0.1959834479682427 0  0.4394608940728603 0.2040870543693135 0  0.5439623148931173 0.2040856076781014 0  0.5290511287473298 0.2040749161535501 0  0.4991779197988497 0.2040749161535382 0  0.3347912413592433 0.1959225448935183 0  0.3199680582793816 0.1959123018030061 0  0.2825051229162361 0.1959834479681729 0  0.3590471196690275 0.2036304442587945 0  0.5571594006495384 0.1963685282145804 0  0.3067669986803285 0.203627750582736 0  0.4262598344738712 0.2036568242185335 0  0.5814408164431408 0.2041285596160068 0  0.5688286748170428 0.1961819304477386 0  0.4145905603063645 0.2038180695522843 0  0.3473758401724931 0.2038180695522752 0  0.2950977245128307 0.2038180695522663 0  0.5688286748170693 0.203818069552238 0  0.2950977245127906 0.1961819304477774 0  0.3473758401723931 0.1961819304478349 0  0.4145905603061963 0.1961819304479011 0  0.2601812407614425 0.2056861609747042
[...]
<PointData  Vectors="f_40-0"> 
<DataArray  type="Float64"  Name="f_40-0"  NumberOfComponents="3" format="ascii">0.0000000000000000e+00 0.0000000000000000e+00 0.0000000000000000e+00  0.0000000000000000e+00 0.0000000000000000e+00 0.0000000000000000e+00  0.0000000000000000e+00 0.0000000000000000e+00 0.0000000000000000e+00  0.0000000000000000e+00 0.0000000000000000e+00 0.0000000000000000e+00  -6.0629748381838957e-06 -5.6897472241574970e-04 0.0000000000000000e+00  3.8980050593656898e-05 -5.7426343183779630e-04 0.0000000000000000e+00  0.0000000000000000e+00 0.0000000000000000e+00 0.0000000000000000e+00  0.0000000000000000e+00 0.0000000000000000e+00 0.0000000000000000e+00  0.0000000000000000e+00 0.0000000000000000e+00 0.0000000000000000e+00  0.0000000000000000e+00 0.0000000000000000e+00 0.0000000000000000e+00  1.5852261041574082e-05 -5.7161385036399656e-04 0.0000000000000000e+00  8.4894050077569547e-02 0.0000000000000000e+00 0.0000000000000000e+00  1.5672747706629264e-01 0.0000000000000000e+00 0.0000000000000000e+00  2.1550028096615240e-01 0.0000000000000000e+00 0.0000000000000000e+00  2.6121246177721685e-01 0.0000000000000000e+00 0.0000000000000000e+00  2.9386401949948016e-01 0.0000000000000000e+00 0.0000000000000000e+00  3.1345495413294033e-01 0.0000000000000000e+00 0.0000000000000000e+00  3.1998526567757779e-01 0.0000000000000000e+00 0.0000000000000000e+00  3.1345495413333646e-01 0.0000000000000000e+00 0.0000000000000000e+00  2.9386401950016056e-01 0.0000000000000000e+00 0.0000000000000000e+00  2.6121246177805946e-01 0.0000000000000000e+00 0.0000000000000000e+00  2.1550028096695281e-01 0.0000000000000000e+00 0.0000000000000000e+00  1.5672747706697565e-01 0.0000000000000000e+00 0.0000000000000000e+00  8.4894050077954392e-02 0.0000000000000000e+00 0.0000000000000000e+00  0.0000000000000000e+00 0.0000000000000000e+00 0.0000000000000000e+00  0.0000000000000000e+00 0.0000000000000000e+00 0.0000000000000000e+00  0.0000000000000000e+00 0.0000000000000000e+00 0.0000000000000000e+00  0.0000000000000000e+00 0.0000000000000000e+00 0.0000000000000000e+00  0.0000000000000000e+00 0.0000000000000000e+00 0.0000000000000000e+00  0.0000000000000000e+00 0.0000000000000000e+00 0.0000000000000000e+00  0.0000000000000000e+00 0.0000000000000000e+00 0.0000000000000000e+00  0.0000000000000000e+00 0.0000000000000000e+00 0.0000000000000000e+00  0.0000000000000000e+00 0.0000000000000000e+00 0.0000000000000000e+00  0.0000000000000000e+00 0.0000000000000000e+00 0.0000000000000000e+00  0.0000000000000000e+00 0.0000000000000000e+00 0.0000000000000000e+00  0.0000000000000000e+00 0.0000000000000000e+00 0.0000000000000000e+00  0.0000000000000000e+00 0.0000000000000000e+00 0.0000000000000000e+00  0.0000000000000000e+00 0.0000000000000000e+00 0.0000000000000000e+00  0.0000000000000000e+00 0.0000000000000000e+00 0.0000000000000000e+00  0.0000000000000000e+00 0.0000000000000000e+00 0.0000000000000000e+00  0.0000000000000000e+00 0.0000000000000000e+00 0.0000000000000000e+00  0.0000000000000000e+00 0.0000000000000000e+00 0.0000000000000000e+00  0.0000000000000000e+00 0.0000000000000000e+00 0.0000000000000000e+00  0.0000000000000000e+00 0.0000000000000000e+00 0.0000000000000000e+00  0.0000000000000000e+00 0.0000000000000000e+00 0.0000000000000000e+00  0.0000000000000000e+00 0.0000000000000000e+00 0.0000000000000000e+00  0.0000000000000000e+00 0.0000000000000000e+00 0.0000000000000000e+00  0.0000000000000000e+00 0.0000000000000000e+00 0.0000000000000000e+00  0.0000000000000000e+00 0.0000000000000000e+00 0.0000000000000000e+00  0.0000000000000000e+00 0.0000000000000000e+00 0.0000000000000000e+00  0.0000000000000000e+00 0.0000000000000000e+00 0.0000000000000000e+00  0.0000000000000000e+00 0.0000000000000000e+00 0.0000000000000000e+00  0.0000000000000000e+00 0.0000000000000000e+00 0.0000000000000000e+00  0.0000000000000000e+00 0.0000000000000000e+00 0.0000000000000000e+00  0.0000000000000000e+00 0.0000000000000000e+00 0.0000000000000000e+00  0.0000000000000000e+00 0.0000000000000000e+00 0.0000000000000000e+00  0.0000000000000000e+00 0.0000000000000000e+00 0.0000000000000000e+00  0.0000000000000000e+00 0.0000000000000000e+00 0.0000000000000000e+00  0.0000000000000000e+00 0.0000000000000000e+00 0.0000000000000000e+00  0.0000000000000000e+00 0.0000000000000000e+00 0.0000000000000000e+00  0.0000000000000000e+00 0.0000000000000000e+00 0.0000000000000000e+00  0.0000000000000000e+00 0.0000000000000000e+00 0.0000000000000000e+00  3.0622330863434499e-01 1.1241855534260832e-02 0.0000000000000000e+00  2.1521886074319313e-01 -2.3969277462916991e-03 0.0000000000000000e+00  3.0795716384284721e-01 -9.4310562766381969e-03 0.0000000000000000e+00  0.0000000000000000e+00 0.0000000000000000e+00 0.0000000000000000e+00  0.0000000000000000e+00 0.0000000000000000e+00 0.0000000000000000e+00  0.0000000000000000e+00 0.0000000000000000e+00 0.0000000000000000e+00  0.0000000000000000e+00 0.0000000000000000e+00 0.0000000000000000e+00  0.0000000000000000e+00 0.0000000000000000e+00 0.0000000000000000e+00  0.0000000000000000e+00 0.0000000000000000e+00 0.0000000000000000e+00  0.0000000000000000e+00 0.0000000000000000e+00 0.0000000000000000e+00  0.0000000000000000e+00 0.0000000000000000e+00 0.0000000000000000e+00  0.0000000000000000e+00 0.0000000000000000e+00 0.0000000000000000e+00  0.0000000000000000e+00 0.0000000000000000e+00 0.0000000000000000e+00  0.0000000000000000e+00 0.0000000000000000e+00 0.0000000000000000e+00  0.0000000000000000e+00 0.0000000000000000e+00 0.0000000000000000e+00  0.0000000000000000e+00 0.0000000000000000e+00 0.0000000000000000e+00  0.0000000000000000e+00 0.0000000000000000e+00 0.0000000000000000e+00  0.0000000000000000e+00 0.0000000000000000e+00 0.0000000000000000e+00  0.0000000000000000e+00 0.0000000000000000e+00 0.0000000000000000e+00  0.0000000000000000e+00 0.0000000000000000e+00 0.0000000000000000e+00  0.0000000000000000e+00 0.0000000000000000e+00 0.0000000000000000e+00  0.0000000000000000e+00 0.0000000000000000e+00 0.0000000000000000e+00  0.0000000000000000e+00 0.0000000000000000e+00 0.0000000000000000e+00  0.0000000000000000e+00 0.0000000000000000e+00 0.0000000000000000e+00  0.0000000000000000e+00 0.0000000000000000e+00 0.0000000000000000e+00  0.0000000000000000e+00 0.0000000000000000e+00 0.0000000000000000e+00  0.0000000000000000e+00 0.0000000000000000e+00 0.0000000000000000e+00  0.0000000000000000e+00 0.0000000000000000e+00 0.0000000000000000e+00  0.0000000000000000e+00 0.0000000000000000e+00 0.0000000000000000e+00  0.0000000000000000e+00 0.0000000000000000e+00 0.0000000000000000e+00  0.0000000000000000e+00 0.0000000000000000e+00 0.0000000000000000e+00  0.0000000000000000e+00 0.0000000000000000e+00 0.0000000000000000e+00  0.0000000000000000e+00 0.0000000000000000e+00 0.0000000000000000e+00  0.0000000000000000e+00 0.0000000000000000e+00 0.0000000000000000e+00  0.0000000000000000e+00 0.0000000000000000e+00 0.0000000000000000e+00  0.0000000000000000e+00 0.0000000000000000e+00 0.0000000000000000e+00  0.0000000000000000e+00 0.0000000000000000e+00 0.0000000000000000e+00  0.0000000000000000e+00 0.0000000000000000e+00 0.0000000000000000e+00  0.0000000000000000e+00 0.0000000000000000e+00 0.0000000000000000e+00  0.0000000000000000e+00 0.0000000000000000e+00 0.0000000000000000e+00  0.0000000000000000e+00 0.0000000000000000e+00 0.0000000000000000e+00  0.0000000000000000e+00 0.0000000000000000e+00 0.0000000000000000e+00  0.0000000000000000e+00 0.0000000000000000e+00 0.0000000000000000e+00  0.0000000000000000e+00 0.0000000000000000e+00 0.0000000000000000e+00  0.0000000000000000e+00 0.0000000000000000e+00 0.0000000000000000e+00  0.0000000000000000e+00 0.0000000000000000e+00 0.0000000000000000e+00  0.0000000000000000e+00 0.0000000000000000e+00 0.0000000000000000e+00  0.0000000000000000e+00 0.0000000000000000e+00 0.0000000000000000e+00  0.0000000000000000e+00 0.0000000000000000e+00 0.0000000000000000e+00  0.0000000000000000e+00 0.0000000000000000e+00 0.0000000000000000e+00  0.0000000000000000e+00 0.0000000000000000e+00 0.0000000000000000e+00  0.0000000000000000e+00 0.0000000000000000e+00 0.0000000000000000e+00  0.0000000000000000e+00 0.0000000000000000e+00 0.0000000000000000e+00  0.0000000000000000e+00 0.0000000000000000e+00 0.0000000000000000e+00  0.0000000000000000e+00 0.0000000000000000e+00 0.0000000000000000e+00  0.0000000000000000e+00 0.0000000000000000e+00 0.0000000000000000e+00  0.0000000000000000e+00 0.0000000000000000e+00 0.0000000000000000e+00  0.0000000000000000e+00 0.0000000000000000e+00 0.0000000000000000e+00  0.0000000000000000e+00 0.0000000000000000e+00 0.0000000000000000e+00  0.0000000000000000e+00 0.0000000000000000e+00 0.0000000000000000e+00  0.0000000000000000e+00 0.0000000000000000e+00 0.0000000000000000e+00  0.0000000000000000e+00 0.0000000000000000e+00 0.0000000000000000e+00  0.0000000000000000e+00 0.0000000000000000e+00 0.0000000000000000e+00  0.0000000000000000e+00 0.0000000000000000e+00 0.0000000000000000e+00  0.0000000000000000e+00 0.0000000000000000e+00 0.0000000000000000e+00  0.0000000000000000e+00 0.0000000000000000e+00 0.0000000000000000e+00  0.0000000000000000e+00 0.0000000000000000e+00 0.0000000000000000e+00  0.0000000000000000e+00 0.0000000000000000e+00 0.0000000000000000e+00  0.0000000000000000e+00 0.0000000000000000e+00 0.0000000000000000e+00  0.0000000000000000e+00 0.0000000000000000e+00 0.0000000000000000e+00  0.0000000000000000e+00 0.0000000000000000e+00 0.0000000000000000e+00  0.0000000000000000e+00 0.0000000000000000e+00 0.0000000000000000e+00  0.0000000000000000e+00 0.0000000000000000e+00 0.0000000000000000e+00  0.0000000000000000e+00 0.0000000000000000e+00 0.0000000000000000e+00  0.0000000000000000e+00 0.0000000000000000e+00 0.0000000000000000e+00  0.0000000000000000e+00 0.0000000000000000e+00 0.0000000000000000e+00  0.0000000000000000e+00 0.0000000000000000e+00 0.0000000000000000e+00  0.0000000000000000e+00 0.0000000000000000e+00 0.0000000000000000e+00  0.0000000000000000e+00 0.0000000000000000e+00 0.0000000000000000e+00  0.0000000000000000e+00 0.0000000000000000e+00 0.0000000000000000e+00  0.0000000000000000e+00 0.0000000000000000e+00 0.0000000000000000e+00  2.0270742402831743e-06 -6.2712697659014378e-06 0.0000000000000000e+00  4.4295701425587565e-06 -7.9765732068600387e-06 0.0000000000000000e+00  7.0235339499942413e-06 -1.0238269139236585e-05 0.0000000000000000e+00  9.8707541652954469e-06 -1.3218261713935850e-05 0.0000000000000000e+00  1.2557530583213819e-05 -1.6964620739456678e-05 0.0000000000000000e+00  1.5359394008465191e-05 -2.1599791865553311e-05 0.0000000000000000e+00  1.7894133164945635e-05 -2.6854944570029026e-05 0.0000000000000000e+00  2.0338688920911245e-05 -3.2951390616302525e-05 0.0000000000000000e+00  2.2887615748390372e-05 -3.9697484601436280e-05 0.0000000000000000e+00  2.5097082410619816e-05 -4.7097765537786991e-05 0.0000000000000000e+00  2.7434627195457718e-05 -5.5205296426115869e-05 0.0000000000000000e+00  2.9439194457877000e-05 -6.3894019402852855e-05 0.0000000000000000e+00  3.1507503519341668e-05 -7.3209336312497623e-05 0.0000000000000000e+00  3.3326934786292730e-05 -8.3020695317301485e-05 0.0000000000000000e+00  3.5038588794417389e-05 -9.3428952785362218e-05 0.0000000000000000e+00  3.6790863631020951e-05 -1.0431871225716885e-04 0.0000000000000000e+00  3.8263585288993550e-05 -1.1564754338482779e-04 0.0000000000000000e+00  3.9785024366374010e-05 -1.2749237638238770e-04 0.0000000000000000e+00  4.1045889248197902e-05 -1.3970067452359131e-04 0.0000000000000000e+00  4.2336714570805538e-05 -1.5235326877137013e-04 0.0000000000000000e+00  4.3418668897249964e-05 -1.6533835247573120e-04 0.0000000000000000e+00  4.4471132418508879e-05 -1.7872407347079467e-04 0.0000000000000000e+00  4.5357578631405953e-05 -1.9238666740795996e-04 0.0000000000000000e+00  4.6142745763259747e-05 -2.0639367660803523e-04 0.0000000000000000e+00  4.6914341104309063e-05 -2.2066847325929615e-04 0.0000000000000000e+00  4.7520584388173424e-05 -2.3519541073323293e-04 0.0000000000000000e+00  4.8049413754769358e-05 -2.5003081503422776e-04 0.0000000000000000e+00  4.8462789840811676e-05 -2.6503463519294326e-04 0.0000000000000000e+00  4.8795784915580953e-05 -2.8030970200024224e-04 0.0000000000000000e+00  4.9017037730873122e-05 -2.9572713694979018e-04 0.0000000000000000e+00  4.9158840124868402e-05 -3.1137422845502964e-04 0.0000000000000000e+00  4.9189200485744474e-05 -3.2712820195170107e-04 0.0000000000000000e+00  4.9143826588004722e-05 -3.4308011333536692e-04 0.0000000000000000e+00  4.8986057620209983e-05 -3.5910279445411754e-04 0.0000000000000000e+00  4.8742145400056187e-05 -3.7530463131266683e-04 0.0000000000000000e+00  4.8399187148955094e-05 -3.9154928496456875e-04 0.0000000000000000e+00  4.7973054412092294e-05 -4.0793323023960096e-04 0.0000000000000000e+00  4.7448301317465604e-05 -4.2433837548884121e-04 0.0000000000000000e+00  4.6837307358929248e-05 -4.4085759533811736e-04 0.0000000000000000e+00  4.6125761490094698e-05 -4.5737949889414686e-04 0.0000000000000000e+00  4.5321142998274838e-05 -4.7397757374634941e-04 0.0000000000000000e+00  4.4432962579261535e-05 -4.9058294056983050e-04 0.0000000000000000e+00  4.3443124912374854e-05 -5.0723071887610969e-04 0.0000000000000000e+00  4.2400575151571999e-05 -5.2388655409266410e-04 0.0000000000000000e+00  4.1247671712906820e-05 -5.4052088202958734e-04 0.0000000000000000e+00  4.0056510136406049e-05 -5.5723010928058093e-04 0.0000000000000000e+00  2.7208606471821318e-05 -5.7291930000409944e-04 0.0000000000000000e+00  4.7210276474473149e-06 -5.7031180801244373e-04 0.0000000000000000e+00  -4.9319800775499700e-06 -5.5238123473249365e-04 0.0000000000000000e+00  -3.6961004953500993e-06 -5.3549237253010370e-04 0.0000000000000000e+00  -2.4937872249585872e-06 -5.1857112420395485e-04 0.0000000000000000e+00  -1.3824764567358252e-06 -5.0170744618190273e-04 0.0000000000000000e+00  -3.2259252482786568e-07 -4.8486617585203191e-04 0.0000000000000000e+00  6.4662664500143781e-07 -4.6805996781949761e-04 0.0000000000000000e+00  1.5705877272446535e-06 -4.5129633838983624e-04 0.0000000000000000e+00  2.4016948097387410e-06 -4.3455541366295821e-04 0.0000000000000000e+00  3.1892550234774552e-06 -4.1790845377427622e-04 0.0000000000000000e+00  3.8901651468714114e-06 -4.0128266708982819e-04 0.0000000000000000e+00  4.5586751851047197e-06 -3.8477204588821881e-04 0.0000000000000000e+00  5.1358634015807274e-06 -3.6830704162994684e-04 0.0000000000000000e+00  5.6915458253304591e-06 -3.5198594843726706e-04 0.0000000000000000e+00  6.1528862575080796e-06 -3.3574148746811586e-04 0.0000000000000000e+00  6.6056083732970236e-06 -3.1966924668651471e-04 0.0000000000000000e+00  6.9550457645218069e-06 -3.0370339964460973e-04 0.0000000000000000e+00  7.3104417913289715e-06 -2.8793571243605981e-04 0.0000000000000000e+00  7.5511106871460123e-06 -2.7230432316580251e-04 0.0000000000000000e+00  7.8089135844860945e-06 -2.5691049611629963e-04 0.0000000000000000e+00  7.9450673016387808e-06 -2.4169340186119392e-04 0.0000000000000000e+00  8.1169376983964168e-06 -2.2674833130132007e-04 0.0000000000000000e+00  8.1538963631835593e-06 -2.1201818696195030e-04 0.0000000000000000e+00  8.2233901273419635e-06 -1.9758404379339802e-04 0.0000000000000000e+00  8.1832953863530383e-06 -1.8340457926654965e-04 0.0000000000000000e+00  8.0794272543811513e-06 -1.6958377485791430e-04 0.0000000000000000e+00  8.0292370112630891e-06 -1.5603943794463654e-04 0.0000000000000000e+00  7.8628323656883158e-06 -1.4285893644062567e-04 0.0000000000000000e+00  7.7000841208254982e-06 -1.3007965451663234e-04 0.0000000000000000e+00  7.4521377162169270e-06 -1.1766287535823789e-04 0.0000000000000000e+00  7.2044230465678305e-06 -1.0570605657725054e-04 0.0000000000000000e+00  6.8722801398042234e-06 -9.4144544267562631e-05 0.0000000000000000e+00  6.5881891792389934e-06 -8.3148209817026232e-05 0.0000000000000000e+00  6.1649465507261238e-06 -7.2554610710226486e-05 0.0000000000000000e+00  5.6874545418329302e-06 -6.2597129233705074e-05 0.0000000000000000e+00  5.3204983810584767e-06 -5.3084912193247589e-05 0.0000000000000000e+00  4.8193543593892075e-06 -4.4222451286695823e-05 0.0000000000000000e+00  4.3451567331444547e-06 -3.5997695653061415e-05 0.0000000000000000e+00  3.7734718265933640e-06 -2.8386482747235611e-05 0.0000000000000000e+00  3.2935412835651161e-06 -2.1552243553912996e-05 0.0000000000000000e+00  2.6374161442404583e-06 -1.5312444924091078e-05 0.0000000000000000e+00  1.9365763182932310e-06 -9.9439326636310431e-06 0.0000000000000000e+00  1.4179486653519211e-06 -5.2151795784688868e-06 0.0000000000000000e+00  7.5100532187236264e-07 -1.3160599942495176e-06 0.0000000000000000e+00  3.0054703773167852e-07 1.7272241586131794e-06 0.0000000000000000e+00  -1.5326151697989801e-07 3.7347785991525940e-06 0.0000000000000000e+00  -1.2610445465259951e-07 4.5712163280886991e-06 0.0000000000000000e+00  5.9378235458610284e-07 -8.9878996118172211e-07 0.0000000000000000e+00  1.8241457326045466e-05 -5.4638507341716442e-04 0.0000000000000000e+00  2.0785578691050315e-05 -5.1433315380337613e-04 0.0000000000000000e+00  2.3627293662108180e-05 -4.6208240846263296e-04 0.0000000000000000e+00  4.4161931604271180e-06 -5.1113878748311262e-06 0.0000000000000000e+00  2.4883426643487729e-05 -4.2936722155979471e-04 0.0000000000000000e+00  7.5801359424050806e-06 -1.2345929287845454e-05 0.0000000000000000e+00  2.6121617115702252e-05 -3.9631891226893937e-04 0.0000000000000000e+00  1.2448476203567339e-05 -3.0303697795616337e-05 0.0000000000000000e+00  1.5351327519063884e-05 -4.5139666811884181e-05 0.0000000000000000e+00  2.7055612458314127e-05 -3.6359114112743290e-04 0.0000000000000000e+00  2.1100198450944965e-05 -9.3764676584344654e-05 0.0000000000000000e+00  2.8027931225004895e-05 -2.9955139681020541e-04 0.0000000000000000e+00  1.7675290583911604e-05 -6.1897850193279663e-05 0.0000000000000000e+00  2.3098910739901488e-05 -1.1628822946484794e-04 0.0000000000000000e+00  2.8072890009326581e-05 -2.6848109790852584e-04 0.0000000000000000e+00  2.7689951340955688e-05 -3.3129558504197494e-04 0.0000000000000000e+00  2.4662307436658422e-05 -1.4094270113812075e-04 0.0000000000000000e+00  2.7823989302376840e-05 -2.3823074268796611e-04 0.0000000000000000e+00  2.5660613962931908e-05 -1.6599444051452268e-04 0.0000000000000000e+00  2.7553759500647143e-05 -2.0959353183271014e-04 0.0000000000000000e+00  2.6626821900282048e-05 -1.8660366864160270e-04 0.0000000000000000e+00  1.9574292144616322e-05 -7.6650502620065678e-05 0.0000000000000000e+00  2.1815822786378319e-05 -4.8916958019195786e-04 0.0000000000000000e+00  1.0050236523731268e-05 -2.0259723390297689e-05 0.0000000000000000e+00  1.1692363213606407e-05 -5.2934720815927931e-04 0.0000000000000000e+00  1.5622552258282004e-06 -3.9191332823621025e-07 0.0000000000000000e+00  1.9119912098878258e-05 -4.1186533685808513e-04 0.0000000000000000e+00  1.7683036726991406e-05 -4.4508637462587440e-04 0.0000000000000000e+00  7.8774683440940917e-06 -1.0689542955551840e-05 0.0000000000000000e+00  1.6869062070522076e-05 -3.8969557251175670e-05 0.0000000000000000e+00  2.1733641786458457e-05 -3.1426207980771864e-04 0.0000000000000000e+00  2.0270874146993361e-05 -3.7891604937545764e-04 0.0000000000000000e+00  2.6649384715664712e-05 -1.0609928988528105e-04 0.0000000000000000e+00  2.2059263280455881e-05 -2.8279159234570765e-04 0.0000000000000000e+00  2.0058415829294775e-05 -5.5269288377107081e-05 0.0000000000000000e+00  2.8686954345668446e-05 -1.2986507542489257e-04 0.0000000000000000e+00  2.2116536061714759e-05 -2.5206708218815355e-04 0.0000000000000000e+00  2.1139308351395645e-05 -3.4634154783819463e-04 0.0000000000000000e+00  3.1515082818400472e-05 -1.5542443122449682e-04 0.0000000000000000e+00  2.1909000255978825e-05 -2.2223770202899128e-04 0.0000000000000000e+00  -1.7475763267328438e-07 -1.4908081780125359e-06 0.0000000000000000e+00  -5.3972360934151562e-07 1.0398084297489113e-06 0.0000000000000000e+00  2.2338522802874802e-05 -5.6015725727401300e-04 0.0000000000000000e+00  3.7444715822633903e-06 -5.1012855019009064e-06 0.0000000000000000e+00