<?xml version="1.0"?>
<VTKFile type="UnstructuredGrid"  version="0.1"  >
<UnstructuredGrid>
<Piece  NumberOfPoints="1419" NumberOfCells="2698">
<Points>
<DataArray  type="Float64"  NumberOfComponents="3"  format="ascii">0 0 0  0 0.41 0  2.5 0 0  2.5 0.41 0  0.6 0.19 0  0.6 0.21 0  0.25 0.2 0  0.15 0.2 0  0.2489897948556636 0.21 0  0.2489897948556636 0.19 0  0.6 0.2 0  0 0.3807142857143437 0  0 0.3514285714286952 0  0 0.3221428571430699 0  0 0.29285714285744 0  0 0.2635714285718054 0  0 0.2342857142861561 0  0 0.2050000000005308 0  0 0.175714285714732 0  0 0.1464285714289574 0  0 0.1171428571431897 0  0 0.08785714285737878 0  0 0.05857142857161107 0  0 0.02928571428580012 0  0.03015443760436003 0 0  0.06140001986583606 0 0  0.09377624077125973 0 0  0.1273239957535082 0 0  0.1620856860351972 0 0  0.1981052433264291 0 0  0.235428184091502 0 0  0.2741016576309132 0 0  0.3141745521465447 0 0  0.3556974926295285 0 0  0.3987229542472677 0 0  0.4433053055141081 0 0  0.4895008759286886 0 0  0.5373680609405097 0 0  0.5869673343216626 0 0  0.6383613676634521 0 0  0.6916151138468254 0 0  0.7467958595648856 0 0  0.8039733463919316 0 0  0.8632198139502143 0 0  0.9246101326867038 0 0  0.9882218810934433 0 0  1.054135445558498 0 0  1.122434100542598 0 0  1.193204177141305 0 0  1.266535089879536 0 0  1.342519516046404 0 0  1.421253448503939 0 0  1.502836389106271 0 0  1.587371439758838 0 0  1.674965418777374 0 0  1.765729001825544 0 0  1.859776908880082 0 0  1.957227977487062 0 0  2.058205329869943 0 0  2.162836591189951 0 0  2.271253957290865 0 0  2.383594446803425 0 0  2.5 0.1024999999997612 0  2.5 0.2049999999994743 0  2.5 0.3074999999997183 0  2.383594446803656 0.41 0  2.271253957291315 0.41 0  2.162836591190598 0.41 0  2.058205329870775 0.41 0  1.957227977488067 0.41 0  1.859776908881246 0.41 0  1.765729001826854 0.41 0  1.674965418778818 0.41 0  1.58737143976041 0.41 0  1.502836389107956 0.41 0  1.421253448505726 0.41 0  1.342519516048286 0.41 0  1.266535089881505 0.41 0  1.193204177143353 0.41 0  1.122434100544716 0.41 0  1.05413544556068 0.41 0  0.9882218810956305 0.41 0  0.9246101326886647 0.41 0  0.8632198139519631 0.41 0  0.8039733463934788 0.41 0  0.7467958595662458 0.41 0  0.6916151138480078 0.41 0  0.6383613676644679 0.41 0  0.5869673343225223 0.41 0  0.5373680609412221 0.41 0  0.4895008759292634 0.41 0  0.4433053055145528 0.41 0  0.3987229542475914 0.41 0  0.3556974926297398 0.41 0  0.3141745521466497 0.41 0  0.2741016576310038 0.41 0  0.2354281840915826 0.41 0  0.1981052433265003 0.41 0  0.1620856860352591 0.41 0  0.1273239957535623 0.41 0  0.09377624077128965 0.41 0  0.06140001986584975 0.41 0  0.03015443760436654 0.41 0  0.2497468076502589 0.2050254481002335 0  0.2497468076502614 0.1949745518997913 0  0.2469965252529372 0.1829317073451959 0  0.2439893735792749 0.1762316384219906 0  0.2400332147834255 0.1700443375285386 0  0.2352133972704371 0.1645032867342007 0  0.2296339016332438 0.1597280261969788 0  0.2234150974217223 0.1558215752574715 0  0.2166911463437691 0.1528682099456123 0  0.2096071079204251 0.1509316448471593 0  0.2023158100364996 0.1500536585536553 0  0.194974551899914 0.1502531923497262 0  0.1877417105387872 0.1515259415822739 0  0.1807733240461124 0.153844448527136 0  0.1742197252835808 0.15715869474974 0  0.1682222986673531 0.1613971801805478 0  0.162910430003803 0.1664684656256651 0  0.1583987151779087 0.1722631454351573 0  0.1547844879126891 0.178656207771761 0  0.1521457199348551 0.1855097315605723 0  0.1505393388476355 0.1926758619366523 0  0.1505393388476328 0.2073241380633295 0  0.1521457199348437 0.2144902684393899 0  0.1547844879126531 0.221343792228163 0  0.1583987151778488 0.2277368545647528 0  0.1629104300036858 0.2335315343742052 0  0.1682222986671726 0.2386028198193036 0  0.1742197252833576 0.2428413052501257 0  0.1807733240458683 0.2461555514727623 0  0.1877417105384929 0.2484740584176516 0  0.1949745518995776 0.2497468076502398 0  0.202315810036185 0.2499463414463592 0  0.2096071079201568 0.2490683551528932 0  0.2166911463435495 0.2471317900544655 0  0.2234150974215506 0.2441784247426195 0  0.2296339016331197 0.2402719738031125 0  0.2352133972703547 0.2354967132658811 0  0.2400332147833751 0.2299556624715287 0  0.2439893735792577 0.2237683615780412 0  0.246996525252926 0.2170682926548348 0  0.25645809709277 0.21 0  0.2639263993298655 0.21 0  0.271394701566961 0.21 0  0.2788630038040554 0.21 0  0.2863313060411479 0.21 0  0.2937996082782405 0.21 0  0.301267910515333 0.21 0  0.3087362127524279 0.21 0  0.3162045149895234 0.21 0  0.3236728172265972 0.21 0  0.3311411194636928 0.21 0  0.3386094217007701 0.21 0  0.3460777239378666 0.21 0  0.3535460261749672 0.21 0  0.3610143284120516 0.21 0  0.3684826306491596 0.21 0  0.3759509328862226 0.21 0  0.383419235123329 0.21 0  0.3908875373604028 0.21 0  0.3983558395975142 0.21 0  0.4058241418345938 0.21 0  0.4132924440716992 0.21 0  0.4207607463087888 0.21 0  0.4282290485459029 0.21 0  0.4356973507830418 0.21 0  0.4431656530201649 0.21 0  0.4506339552573136 0.21 0  0.4581022574944306 0.21 0  0.4655705597315852 0.21 0  0.4730388619686996 0.21 0  0.480507164205851 0.21 0  0.4879754664429498 0.21 0  0.4954437686800938 0.21 0  0.502912070917267 0.21 0  0.5103803731544119 0.21 0  0.5178486753915261 0.21 0  0.5253169776286404 0.21 0  0.5327852798657868 0.21 0  0.5402535821029386 0.21 0  0.54772188434007 0.21 0  0.5551901865771842 0.21 0  0.5626584888143201 0.21 0  0.5701267910514778 0.21 0  0.5775950932886138 0.21 0  0.5850633955257281 0.21 0  0.5925316977628483 0.21 0  0.6 0.2050000000000054 0  0.6 0.1950000000000217 0  0.5925316977628897 0.19 0  0.5850633955257988 0.19 0  0.5775950932887378 0.19 0  0.5701267910515998 0.19 0  0.5626584888145268 0.19 0  0.5551901865773963 0.19 0  0.547721884340339 0.19 0  0.5402535821032429 0.19 0  0.5327852798661811 0.19 0  0.5253169776290537 0.19 0  0.5178486753919799 0.19 0  0.5103803731549078 0.19 0  0.502912070917822 0.19 0  0.4954437686807294 0.19 0  0.4879754664436223 0.19 0  0.4805071642065402 0.19 0  0.4730388619694271 0.19 0  0.4655705597323621 0.19 0  0.4581022574952563 0.19 0  0.4506339552581777 0.19 0  0.4431656530210671 0.19 0  0.4356973507839815 0.19 0  0.4282290485468779 0.19 0  0.4207607463097617 0.19 0  0.4132924440726327 0.19 0  0.4058241418354857 0.19 0  0.3983558395983636 0.19 0  0.3908875373612097 0.19 0  0.3834192351240934 0.19 0  0.3759509328869369 0.19 0  0.3684826306498175 0.19 0  0.361014328412667 0.19 0  0.3535460261755617 0.19 0  0.3460777239384295 0.19 0  0.3386094217012945 0.19 0  0.3311411194641595 0.19 0  0.3236728172270245 0.19 0  0.3162045149898895 0.19 0  0.3087362127527544 0.19 0  0.3012679105156187 0.19 0  0.2937996082784807 0.19 0  0.2863313060413428 0.19 0  0.2788630038042048 0.19 0  0.2713947015670686 0.19 0  0.2639263993299336 0.19 0  0.2564580970927985 0.19 0  0.2607803159922026 0.2000727136295815 0  0.5887803774232762 0.2001272386983733 0  0.5745072403740523 0.2002044435018727 0  0.5511891430099709 0.2001122610077113 0  0.2751288526855082 0.20000000000002 0  0.5365194309847112 0.1999999999999436 0  0.2894621222999649 0.1998691686390484 0  0.5215828265105155 0.1999999999999228 0  0.3127789816668748 0.1998657885438805 0  0.3274069683451451 0.2000000000000796 0  0.5066462220363641 0.199999999999908 0  0.3650630746574081 0.199866017807523 0  0.476773013087985 0.1999999999998713 0  0.3417402379596385 0.1998691686391011 0  0.3796850840047755 0.200000000000134 0  0.4618364086138087 0.1999999999998546 0  0.4917096175621762 0.1999999999998808 0  0.3946216884789568 0.2000000000001512 0  0.446899804139621 0.1999999999998389 0  0.4089549580935208 0.1998691686391595 0  0.4322718174608562 0.200127451265745 0  0.4201487168029707 0.1999966199048527 0  0.3528922713220932 0.2000185703532356 0  0.5633122436674589 0.1999814296467508 0  0.3006558810093873 0.1999966199048318 0  0.5815926498168407 0.1966545283159175 0  0.2677053789419034 0.1964246479135325 0  0.5290511287476175 0.1970915826863981 0  0.5439877332217911 0.197091582686394 0  0.2825131256993216 0.2035478995978015 0  0.3199386661080599 0.202908417313604 0  0.4842413153250809 0.1970915826863873 0  0.5141145242734466 0.1970915826863843 0  0.3722167817676917 0.2029084173136195 0  0.4693047108508938 0.1970915826863783 0  0.3348752705822316 0.202908417313609 0  0.3871533862418661 0.2029084173136212 0  0.4543681063767183 0.1970915826863795 0  0.4991779197992749 0.1970915826863902 0  0.4020059614928624 0.203547899597858 0  0.4394315019025246 0.1970915826863714 0  0.2550657455369551 0.2034088125358657 0  0.2548908499171161 0.1966940311614271 0  0.5946539510196798 0.2024302972968126 0  0.267698176732111 0.2039977513680092 0  0.4261685417851465 0.196409292431739 0  0.3590076176283495 0.196411355804271 0  0.5571672426447437 0.2036011176410121 0  0.3066757059912147 0.1964092924317024 0  0.594380730180568 0.1966558399668133 0  0.4842413153245942 0.2040749161535287 0  0.4693047108503577 0.2040749161535231 0  0.3871533862424271 0.1959250838464788 0  0.372246743208829 0.1959123236376545 0  0.5141145242731028 0.2040749161535395 0  0.4543681063761134 0.2040749161535186 0  0.4019979587101454 0.1959834479682427 0  0.4394608940728603 0.2040870543693135 0  0.5439623148931173 0.2040856076781014 0  0.5290511287473298 0.2040749161535501 0  0.4991779197988497 0.2040749161535382 0  0.3347912413592433 0.1959225448935183 0  0.3199680582793816 0.1959123018030061 0  0.2825051229162361 0.1959834479681729 0  0.3590471196690275 0.2036304442587945 0  0.5571594006495384 0.1963685282145804 0  0.3067669986803285 0.203627750582736 0  0.4262598344738712 0.2036568242185335 0  0.5814408164431408 0.2041285596160068 0  0.5688286748170428 0.1961819304477386 0  0.4145905603063645 0.2038180695522843 0  0.3473758401724931 0.2038180695522752 0  0.2950977245128307 0.2038180695522663 0  0.5688286748170693 0.203818069552238 0  0.2950977245127906 0.1961819304477774 0  0.3473758401723931 0.1961819304478349 0  0.4145905603061963 0.1961819304479011 0  0.2601812407614425 0.2056861609747042
[...]
<PointData  Vectors="f_40-0"> 
<DataArray  type="Float64"  Name="f_40-0"  NumberOfComponents="3" format="ascii">0.0000000000000000e+00 0.0000000000000000e+00 0.0000000000000000e+00  0.0000000000000000e+00 0.0000000000000000e+00 0.0000000000000000e+00  0.0000000000000000e+00 0.0000000000000000e+00 0.0000000000000000e+00  0.0000000000000000e+00 0.0000000000000000e+00 0.0000000000000000e+00  -1.7953924438220850e-05 -1.8540200375145464e-04 0.0000000000000000e+00  -3.4122654732429764e-06 -1.9150263653001698e-04 0.0000000000000000e+00  0.0000000000000000e+00 0.0000000000000000e+00 0.0000000000000000e+00  0.0000000000000000e+00 0.0000000000000000e+00 0.0000000000000000e+00  0.0000000000000000e+00 0.0000000000000000e+00 0.0000000000000000e+00  0.0000000000000000e+00 0.0000000000000000e+00 0.0000000000000000e+00  -1.1213823897294651e-05 -1.8845752987050625e-04 0.0000000000000000e+00  2.8477780575018742e-02 0.0000000000000000e+00 0.0000000000000000e+00  5.2574364138499634e-02 0.0000000000000000e+00 0.0000000000000000e+00  7.2289750690437013e-02 0.0000000000000000e+00 0.0000000000000000e+00  8.7623940230853681e-02 0.0000000000000000e+00 0.0000000000000000e+00  9.8576932759747687e-02 0.0000000000000000e+00 0.0000000000000000e+00  1.0514872827711838e-01 0.0000000000000000e+00 0.0000000000000000e+00  1.0733932678295915e-01 0.0000000000000000e+00 0.0000000000000000e+00  1.0514872827725125e-01 0.0000000000000000e+00 0.0000000000000000e+00  9.8576932759975949e-02 0.0000000000000000e+00 0.0000000000000000e+00  8.7623940231136330e-02 0.0000000000000000e+00 0.0000000000000000e+00  7.2289750690705520e-02 0.0000000000000000e+00 0.0000000000000000e+00  5.2574364138728749e-02 0.0000000000000000e+00 0.0000000000000000e+00  2.8477780575147844e-02 0.0000000000000000e+00 0.0000000000000000e+00  0.0000000000000000e+00 0.0000000000000000e+00 0.0000000000000000e+00  0.0000000000000000e+00 0.0000000000000000e+00 0.0000000000000000e+00  0.0000000000000000e+00 0.0000000000000000e+00 0.0000000000000000e+00  0.0000000000000000e+00 0.0000000000000000e+00 0.0000000000000000e+00  0.0000000000000000e+00 0.0000000000000000e+00 0.0000000000000000e+00  0.0000000000000000e+00 0.0000000000000000e+00 0.0000000000000000e+00  0.0000000000000000e+00 0.0000000000000000e+00 0.0000000000000000e+00  0.0000000000000000e+00 0.0000000000000000e+00 0.0000000000000000e+00  0.0000000000000000e+00 0.0000000000000000e+00 0.0000000000000000e+00  0.0000000000000000e+00 0.0000000000000000e+00 0.0000000000000000e+00  0.0000000000000000e+00 0.0000000000000000e+00 0.0000000000000000e+00  0.0000000000000000e+00 0.0000000000000000e+00 0.0000000000000000e+00  0.0000000000000000e+00 0.0000000000000000e+00 0.0000000000000000e+00  0.0000000000000000e+00 0.0000000000000000e+00 0.0000000000000000e+00  0.0000000000000000e+00 0.0000000000000000e+00 0.0000000000000000e+00  0.0000000000000000e+00 0.0000000000000000e+00 0.0000000000000000e+00  0.0000000000000000e+00 0.0000000000000000e+00 0.0000000000000000e+00  0.0000000000000000e+00 0.0000000000000000e+00 0.0000000000000000e+00  0.0000000000000000e+00 0.0000000000000000e+00 0.0000000000000000e+00  0.0000000000000000e+00 0.0000000000000000e+00 0.0000000000000000e+00  0.0000000000000000e+00 0.0000000000000000e+00 0.0000000000000000e+00  0.0000000000000000e+00 0.0000000000000000e+00 0.0000000000000000e+00  0.0000000000000000e+00 0.0000000000000000e+00 0.0000000000000000e+00  0.0000000000000000e+00 0.0000000000000000e+00 0.0000000000000000e+00  0.0000000000000000e+00 0.0000000000000000e+00 0.0000000000000000e+00  0.0000000000000000e+00 0.0000000000000000e+00 0.0000000000000000e+00  0.0000000000000000e+00 0.0000000000000000e+00 0.0000000000000000e+00  0.0000000000000000e+00 0.0000000000000000e+00 0.0000000000000000e+00  0.0000000000000000e+00 0.0000000000000000e+00 0.0000000000000000e+00  0.0000000000000000e+00 0.0000000000000000e+00 0.0000000000000000e+00  0.0000000000000000e+00 0.0000000000000000e+00 0.0000000000000000e+00  0.0000000000000000e+00 0.0000000000000000e+00 0.0000000000000000e+00  0.0000000000000000e+00 0.0000000000000000e+00 0.0000000000000000e+00  0.0000000000000000e+00 0.0000000000000000e+00 0.0000000000000000e+00  0.0000000000000000e+00 0.0000000000000000e+00 0.0000000000000000e+00  0.0000000000000000e+00 0.0000000000000000e+00 0.0000000000000000e+00  0.0000000000000000e+00 0.0000000000000000e+00 0.0000000000000000e+00  0.0000000000000000e+00 0.0000000000000000e+00 0.0000000000000000e+00  1.0238275997303094e-01 4.4410291948068035e-03 0.0000000000000000e+00  7.2502573928756794e-02 -8.8691363874328930e-04 0.0000000000000000e+00  1.0333190105671382e-01 -4.8990178755938000e-03 0.0000000000000000e+00  0.0000000000000000e+00 0.0000000000000000e+00 0.0000000000000000e+00  0.0000000000000000e+00 0.0000000000000000e+00 0.0000000000000000e+00  0.0000000000000000e+00 0.0000000000000000e+00 0.0000000000000000e+00  0.0000000000000000e+00 0.0000000000000000e+00 0.0000000000000000e+00  0.0000000000000000e+00 0.0000000000000000e+00 0.0000000000000000e+00  0.0000000000000000e+00 0.0000000000000000e+00 0.0000000000000000e+00  0.0000000000000000e+00 0.0000000000000000e+00 0.0000000000000000e+00  0.0000000000000000e+00 0.0000000000000000e+00 0.0000000000000000e+00  0.0000000000000000e+00 0.0000000000000000e+00 0.0000000000000000e+00  0.0000000000000000e+00 0.0000000000000000e+00 0.0000000000000000e+00  0.0000000000000000e+00 0.0000000000000000e+00 0.0000000000000000e+00  0.0000000000000000e+00 0.0000000000000000e+00 0.0000000000000000e+00  0.0000000000000000e+00 0.0000000000000000e+00 0.0000000000000000e+00  0.0000000000000000e+00 0.0000000000000000e+00 0.0000000000000000e+00  0.0000000000000000e+00 0.0000000000000000e+00 0.0000000000000000e+00  0.0000000000000000e+00 0.0000000000000000e+00 0.0000000000000000e+00  0.0000000000000000e+00 0.0000000000000000e+00 0.0000000000000000e+00  0.0000000000000000e+00 0.0000000000000000e+00 0.0000000000000000e+00  0.0000000000000000e+00 0.0000000000000000e+00 0.0000000000000000e+00  0.0000000000000000e+00 0.0000000000000000e+00 0.0000000000000000e+00  0.0000000000000000e+00 0.0000000000000000e+00 0.0000000000000000e+00  0.0000000000000000e+00 0.0000000000000000e+00 0.0000000000000000e+00  0.0000000000000000e+00 0.0000000000000000e+00 0.0000000000000000e+00  0.0000000000000000e+00 0.0000000000000000e+00 0.0000000000000000e+00  0.0000000000000000e+00 0.0000000000000000e+00 0.0000000000000000e+00  0.0000000000000000e+00 0.0000000000000000e+00 0.0000000000000000e+00  0.0000000000000000e+00 0.0000000000000000e+00 0.0000000000000000e+00  0.0000000000000000e+00 0.0000000000000000e+00 0.0000000000000000e+00  0.0000000000000000e+00 0.0000000000000000e+00 0.0000000000000000e+00  0.0000000000000000e+00 0.0000000000000000e+00 0.0000000000000000e+00  0.0000000000000000e+00 0.0000000000000000e+00 0.0000000000000000e+00  0.0000000000000000e+00 0.0000000000000000e+00 0.0000000000000000e+00  0.0000000000000000e+00 0.0000000000000000e+00 0.0000000000000000e+00  0.0000000000000000e+00 0.0000000000000000e+00 0.0000000000000000e+00  0.0000000000000000e+00 0.0000000000000000e+00 0.0000000000000000e+00  0.0000000000000000e+00 0.0000000000000000e+00 0.0000000000000000e+00  0.0000000000000000e+00 0.0000000000000000e+00 0.0000000000000000e+00  0.0000000000000000e+00 0.0000000000000000e+00 0.0000000000000000e+00  0.0000000000000000e+00 0.0000000000000000e+00 0.0000000000000000e+00  0.0000000000000000e+00 0.0000000000000000e+00 0.0000000000000000e+00  0.0000000000000000e+00 0.0000000000000000e+00 0.0000000000000000e+00  0.0000000000000000e+00 0.0000000000000000e+00 0.0000000000000000e+00  0.0000000000000000e+00 0.0000000000000000e+00 0.0000000000000000e+00  0.0000000000000000e+00 0.0000000000000000e+00 0.0000000000000000e+00  0.0000000000000000e+00 0.0000000000000000e+00 0.0000000000000000e+00  0.0000000000000000e+00 0.0000000000000000e+00 0.0000000000000000e+00  0.0000000000000000e+00 0.0000000000000000e+00 0.0000000000000000e+00  0.0000000000000000e+00 0.0000000000000000e+00 0.0000000000000000e+00  0.0000000000000000e+00 0.0000000000000000e+00 0.0000000000000000e+00  0.0000000000000000e+00 0.0000000000000000e+00 0.0000000000000000e+00  0.0000000000000000e+00 0.0000000000000000e+00 0.0000000000000000e+00  0.0000000000000000e+00 0.0000000000000000e+00 0.0000000000000000e+00  0.0000000000000000e+00 0.0000000000000000e+00 0.0000000000000000e+00  0.0000000000000000e+00 0.0000000000000000e+00 0.0000000000000000e+00  0.0000000000000000e+00 0.0000000000000000e+00 0.0000000000000000e+00  0.0000000000000000e+00 0.0000000000000000e+00 0.0000000000000000e+00  0.0000000000000000e+00 0.0000000000000000e+00 0.0000000000000000e+00  0.0000000000000000e+00 0.0000000000000000e+00 0.0000000000000000e+00  0.0000000000000000e+00 0.0000000000000000e+00 0.0000000000000000e+00  0.0000000000000000e+00 0.0000000000000000e+00 0.0000000000000000e+00  0.0000000000000000e+00 0.0000000000000000e+00 0.0000000000000000e+00  0.0000000000000000e+00 0.0000000000000000e+00 0.0000000000000000e+00  0.0000000000000000e+00 0.0000000000000000e+00 0.0000000000000000e+00  0.0000000000000000e+00 0.0000000000000000e+00 0.0000000000000000e+00  0.0000000000000000e+00 0.0000000000000000e+00 0.0000000000000000e+00  0.0000000000000000e+00 0.0000000000000000e+00 0.0000000000000000e+00  0.0000000000000000e+00 0.0000000000000000e+00 0.0000000000000000e+00  0.0000000000000000e+00 0.0000000000000000e+00 0.0000000000000000e+00  0.0000000000000000e+00 0.0000000000000000e+00 0.0000000000000000e+00  0.0000000000000000e+00 0.0000000000000000e+00 0.0000000000000000e+00  0.0000000000000000e+00 0.0000000000000000e+00 0.0000000000000000e+00  0.0000000000000000e+00 0.0000000000000000e+00 0.0000000000000000e+00  0.0000000000000000e+00 0.0000000000000000e+00 0.0000000000000000e+00  0.0000000000000000e+00 0.0000000000000000e+00 0.0000000000000000e+00  0.0000000000000000e+00 0.0000000000000000e+00 0.0000000000000000e+00  0.0000000000000000e+00 0.0000000000000000e+00 0.0000000000000000e+00  0.0000000000000000e+00 0.0000000000000000e+00 0.0000000000000000e+00  0.0000000000000000e+00 0.0000000000000000e+00 0.0000000000000000e+00  6.8849579119831491e-07 -5.7335312561329979e-06 0.0000000000000000e+00  1.6104554707144758e-06 -6.6117984113889315e-06 0.0000000000000000e+00  2.7611249836609299e-06 -7.4785970399424527e-06 0.0000000000000000e+00  4.0626206698654324e-06 -8.4943525762308506e-06 0.0000000000000000e+00  5.3124575990888728e-06 -9.7702560677302265e-06 0.0000000000000000e+00  6.5524966956135033e-06 -1.1393323671008340e-05 0.0000000000000000e+00  7.6713152182624045e-06 -1.3226883354009626e-05 0.0000000000000000e+00  8.7142141323112037e-06 -1.5349090637218784e-05 0.0000000000000000e+00  9.7626994050731252e-06 -1.7693203851426429e-05 0.0000000000000000e+00  1.0656698795399068e-05 -2.0245009591238384e-05 0.0000000000000000e+00  1.1556687518057417e-05 -2.3046403598000888e-05 0.0000000000000000e+00  1.2310890168039004e-05 -2.6017345177415766e-05 0.0000000000000000e+00  1.3043343357330458e-05 -2.9197606457315730e-05 0.0000000000000000e+00  1.3667174181287811e-05 -3.2536855113462056e-05 0.0000000000000000e+00  1.4212297730131355e-05 -3.6054985371345809e-05 0.0000000000000000e+00  1.4740772762942718e-05 -3.9732342943791717e-05 0.0000000000000000e+00  1.5139251262002851e-05 -4.3522555257207822e-05 0.0000000000000000e+00  1.5513095993692930e-05 -4.7493475498698820e-05 0.0000000000000000e+00  1.5769704774565616e-05 -5.1543545747685702e-05 0.0000000000000000e+00  1.5997938956257102e-05 -5.5750751347758159e-05 0.0000000000000000e+00  1.6123897063338215e-05 -6.0026483046461525e-05 0.0000000000000000e+00  1.6194899113590707e-05 -6.4430924747824964e-05 0.0000000000000000e+00  1.6190251118556365e-05 -6.8914897606674723e-05 0.0000000000000000e+00  1.6110718059711219e-05 -7.3485238812834246e-05 0.0000000000000000e+00  1.5996566873780397e-05 -7.8145506951329472e-05 0.0000000000000000e+00  1.5790677471503761e-05 -8.2849836741941799e-05 0.0000000000000000e+00  1.5519061821195527e-05 -8.7669603187539295e-05 0.0000000000000000e+00  1.5179077929489962e-05 -9.2504769836331070e-05 0.0000000000000000e+00  1.4773748298218371e-05 -9.7438073440003330e-05 0.0000000000000000e+00  1.4300541224160063e-05 -1.0238688258365369e-04 0.0000000000000000e+00  1.3765413381932981e-05 -1.0741795793654768e-04 0.0000000000000000e+00  1.3158681134103035e-05 -1.1245452855526026e-04 0.0000000000000000e+00  1.2495103715268566e-05 -1.1756845915638338e-04 0.0000000000000000e+00  1.1758164612695848e-05 -1.2267263673927930e-04 0.0000000000000000e+00  1.0954933974383027e-05 -1.2785468386571238e-04 0.0000000000000000e+00  1.0087587198361173e-05 -1.3302295154807447e-04 0.0000000000000000e+00  9.1585355197444389e-06 -1.3825358048313966e-04 0.0000000000000000e+00  8.1630268624461728e-06 -1.4346818624642481e-04 0.0000000000000000e+00  7.1024641789178276e-06 -1.4873837731821737e-04 0.0000000000000000e+00  5.9716642019261399e-06 -1.5398982732150147e-04 0.0000000000000000e+00  4.7708179996031822e-06 -1.5927770080201100e-04 0.0000000000000000e+00  3.5137095419622571e-06 -1.6456117092327643e-04 0.0000000000000000e+00  2.1809675910614423e-06 -1.6986464605885803e-04 0.0000000000000000e+00  8.1060514393199219e-07 -1.7516803390975864e-04 0.0000000000000000e+00  -6.3554910363074057e-07 -1.8045552979527045e-04 0.0000000000000000e+00  -2.0892601886434520e-06 -1.8581865855799427e-04 0.0000000000000000e+00  -7.4958252078144890e-06 -1.8996430546345343e-04 0.0000000000000000e+00  -1.4735928764187134e-05 -1.8695163867314614e-04 0.0000000000000000e+00  -1.6592084457933516e-05 -1.8025903759134567e-04 0.0000000000000000e+00  -1.5108973145649153e-05 -1.7478681006218930e-04 0.0000000000000000e+00  -1.3634244826414479e-05 -1.6927978860198695e-04 0.0000000000000000e+00  -1.2231174848680462e-05 -1.6380762006089976e-04 0.0000000000000000e+00  -1.0868470389837663e-05 -1.5834652461938962e-04 0.0000000000000000e+00  -9.5829410139445169e-06 -1.5289939896212149e-04 0.0000000000000000e+00  -8.3424087205263541e-06 -1.4747109465146197e-04 0.0000000000000000e+00  -7.1756440223236837e-06 -1.4204009067176373e-04 0.0000000000000000e+00  -6.0604667747009162e-06 -1.3665705043119518e-04 0.0000000000000000e+00  -5.0116550993658078e-06 -1.3125839044699931e-04 0.0000000000000000e+00  -4.0131252489109126e-06 -1.2591563611994070e-04 0.0000000000000000e+00  -3.0810561556272363e-06 -1.2056412700602707e-04 0.0000000000000000e+00  -2.1957011246637543e-06 -1.1527468259761243e-04 0.0000000000000000e+00  -1.3765594210462884e-06 -1.0998335604032708e-04 0.0000000000000000e+00  -6.0068181689851998e-07 -1.0476167488344338e-04 0.0000000000000000e+00  1.0704629624555057e-07 -9.9545507705868717e-05 0.0000000000000000e+00  7.7528836144517462e-07 -9.4403970706743119e-05 0.0000000000000000e+00  1.3721913318226902e-06 -8.9275825577149018e-05 0.0000000000000000e+00  1.9333725879144121e-06 -8.4234639235481449e-05 0.0000000000000000e+00  2.4227248096526857e-06 -7.9218429257581343e-05 0.0000000000000000e+00  2.8821193848177043e-06 -7.4298021524905433e-05 0.0000000000000000e+00  3.2657705494448942e-06 -6.9414737789891365e-05 0.0000000000000000e+00  3.6139657634711033e-06 -6.4625522805272624e-05 0.0000000000000000e+00  3.9021587201858262e-06 -5.9904058955031952e-05 0.0000000000000000e+00  4.1264614173880498e-06 -5.5281091234431930e-05 0.0000000000000000e+00  4.3410698161357188e-06 -5.0743405728645212e-05 0.0000000000000000e+00  4.4782923674351817e-06 -4.6293606152436260e-05 0.0000000000000000e+00  4.5807494374484952e-06 -4.1984746552699038e-05 0.0000000000000000e+00  4.6214968381537927e-06 -3.7753995592652444e-05 0.0000000000000000e+00  4.6264802478592934e-06 -3.3685913742452836e-05 0.0000000000000000e+00  4.5710786988993395e-06 -2.9709942195943430e-05 0.0000000000000000e+00  4.4916239085661520e-06 -2.5924506093467936e-05 0.0000000000000000e+00  4.3463034973181681e-06 -2.2252940044607595e-05 0.0000000000000000e+00  4.1453635057686343e-06 -1.8785814446506487e-05 0.0000000000000000e+00  3.9566362685688743e-06 -1.5457970483708791e-05 0.0000000000000000e+00  3.6886557329904245e-06 -1.2332491568291893e-05 0.0000000000000000e+00  3.3980494545840609e-06 -9.4293983068750031e-06 0.0000000000000000e+00  3.0451798916757812e-06 -6.7114406053153449e-06 0.0000000000000000e+00  2.6895131895937914e-06 -4.2603987872845868e-06 0.0000000000000000e+00  2.2532480164940493e-06 -2.0060995416549429e-06 0.0000000000000000e+00  1.7648781780827179e-06 -4.6481033476278922e-08 0.0000000000000000e+00  1.3192365196999861e-06 1.6901401671563467e-06 0.0000000000000000e+00  7.8025148874568351e-07 3.1732873034371401e-06 0.0000000000000000e+00  3.3406760725394506e-07 4.3394512462384085e-06 0.0000000000000000e+00  -5.3450209691381851e-08 5.0271275284376547e-06 0.0000000000000000e+00  -1.1002187808993827e-07 5.0755245364633592e-06 0.0000000000000000e+00  -4.7450789523357804e-07 -3.6820391618134366e-07 0.0000000000000000e+00  -8.6933958118268242e-06 -1.8034303087652941e-04 0.0000000000000000e+00  -5.7378248350546513e-06 -1.7004601977472068e-04 0.0000000000000000e+00  -1.7167231369862541e-06 -1.5324302613384472e-04 0.0000000000000000e+00  1.9216832572304238e-06 -1.8859727367833141e-06 0.0000000000000000e+00  4.4973962777653961e-07 -1.4271102575188059e-04 0.0000000000000000e+00  3.6186401422181255e-06 -4.4494832551460838e-06 0.0000000000000000e+00  2.4994369036689751e-06 -1.3209390273345825e-04 0.0000000000000000e+00  5.9976032232003736e-06 -1.0845408669729818e-05 0.0000000000000000e+00  7.2744270997944266e-06 -1.6102710011251618e-05 0.0000000000000000e+00  4.3032441442331202e-06 -1.2156924517789456e-04 0.0000000000000000e+00  9.4071185711430891e-06 -3.2826664060238120e-05 0.0000000000000000e+00  7.1816150569183772e-06 -1.0090271953093900e-04 0.0000000000000000e+00  8.2332869102843496e-06 -2.1883336304843800e-05 0.0000000000000000e+00  9.9217867709261142e-06 -4.0513052449438933e-05 0.0000000000000000e+00  8.2596692488299789e-06 -9.0821315075730917e-05 0.0000000000000000e+00  5.8635811218451776e-06 -1.1116204951941941e-04 0.0000000000000000e+00  1.0155326399376741e-05 -4.8803626528247950e-05 0.0000000000000000e+00  9.0977538109317264e-06 -8.0959014400957649e-05 0.0000000000000000e+00  1.0084888293199653e-05 -5.7119111056910507e-05 0.0000000000000000e+00  9.7749327733987344e-06 -7.1607800881830086e-05 0.0000000000000000e+00  9.9850279996979938e-06 -6.3988495258484002e-05 0.0000000000000000e+00  8.9122022039415132e-06 -2.7018273181416715e-05 0.0000000000000000e+00  -3.8828973162504733e-06 -1.6191335052670748e-04 0.0000000000000000e+00  4.8349784890575056e-06 -7.3270029851242653e-06 0.0000000000000000e+00  -9.6989492857453386e-06 -1.7415309475098117e-04 0.0000000000000000e+00  4.7101131268753053e-07 1.2313953281524617e-06 0.0000000000000000e+00  -5.5848417574955906e-07 -1.3639074552421494e-04 0.0000000000000000e+00  -2.7450062674828782e-06 -1.4708744752666645e-04 0.0000000000000000e+00  3.4692584262681466e-06 -5.1937839912112502e-06 0.0000000000000000e+00  7.6876628885197472e-06 -1.4953868897655841e-05 0.0000000000000000e+00  4.5596529985733063e-06 -1.0488457138500108e-04 0.0000000000000000e+00  1.3864598075698939e-06 -1.2577436846040213e-04 0.0000000000000000e+00  1.1224004438280738e-05 -3.8010455675259783e-05 0.0000000000000000e+00  5.7936443594196129e-06 -9.4667858773329203e-05 0.0000000000000000e+00  9.0010752632694368e-06 -2.0626229369201206e-05 0.0000000000000000e+00  1.1670915162292624e-05 -4.6014190552403409e-05 0.0000000000000000e+00  6.7940735168857864e-06 -8.4649582265062509e-05 0.0000000000000000e+00  3.0913210638396902e-06 -1.1526238933985614e-04 0.0000000000000000e+00  1.2248894447237485e-05 -5.4748074154310518e-05 0.0000000000000000e+00  7.5643220841189351e-06 -7.4872392583721171e-05 0.0000000000000000e+00  -8.0124220407001706e-07 -1.3788283478477005e-06 0.0000000000000000e+00  -9.2166656447519146e-07 1.1168698617071972e-06 0.0000000000000000e+00  -8.2903179803190998e-06 -1.8524730184567558e-04 0.0000000000000000e+00  1.2745947617036188e-06 -3.4330250583242138e-06 