<?xml version="1.0"?>
<VTKFile type="UnstructuredGrid"  version="0.1"  >
<UnstructuredGrid>
<Piece  NumberOfPoints="1419" NumberOfCells="2698">
<Points>
<DataArray  type="Float64"  NumberOfComponents="3"  format="ascii">0 0 0  0 0.41 0  2.5 0 0  2.5 0.41 0  0.6 0.19 0  0.6 0.21 0  0.25 0.2 0  0.15 0.2 0  0.2489897948556636 0.21 0  0.2489897948556636 0.19 0  0.6 0.2 0  0 0.3807142857143437 0  0 0.3514285714286952 0  0 0.3221428571430699 0  0 0.29285714285744 0  0 0.2635714285718054 0  0 0.2342857142861561 0  0 0.2050000000005308 0  0 0.175714285714732 0  0 0.1464285714289574 0  0 0.1171428571431897 0  0 0.08785714285737878 0  0 0.05857142857161107 0  0 0.02928571428580012 0  0.03015443760436003 0 0  0.06140001986583606 0 0  0.09377624077125973 0 0  0.1273239957535082 0 0  0.1620856860351972 0 0  0.1981052433264291 0 0  0.235428184091502 0 0  0.2741016576309132 0 0  0.3141745521465447 0 0  0.3556974926295285 0 0  0.3987229542472677 0 0  0.4433053055141081 0 0  0.4895008759286886 0 0  0.5373680609405097 0 0  0.5869673343216626 0 0  0.6383613676634521 0 0  0.6916151138468254 0 0  0.7467958595648856 0 0  0.8039733463919316 0 0  0.8632198139502143 0 0  0.9246101326867038 0 0  0.9882218810934433 0 0  1.054135445558498 0 0  1.122434100542598 0 0  1.193204177141305 0 0  1.266535089879536 0 0  1.342519516046404 0 0  1.421253448503939 0 0  1.502836389106271 0 0  1.587371439758838 0 0  1.674965418777374 0 0  1.765729001825544 0 0  1.859776908880082 0 0  1.957227977487062 0 0  2.058205329869943 0 0  2.162836591189951 0 0  2.271253957290865 0 0  2.383594446803425 0 0  2.5 0.1024999999997612 0  2.5 0.2049999999994743 0  2.5 0.3074999999997183 0  2.383594446803656 0.41 0  2.271253957291315 0.41 0  2.162836591190598 0.41 0  2.058205329870775 0.41 0  1.957227977488067 0.41 0  1.859776908881246 0.41 0  1.765729001826854 0.41 0  1.674965418778818 0.41 0  1.58737143976041 0.41 0  1.502836389107956 0.41 0  1.421253448505726 0.41 0  1.342519516048286 0.41 0  1.266535089881505 0.41 0  1.193204177143353 0.41 0  1.122434100544716 0.41 0  1.05413544556068 0.41 0  0.9882218810956305 0.41 0  0.9246101326886647 0.41 0  0.8632198139519631 0.41 0  0.8039733463934788 0.41 0  0.7467958595662458 0.41 0  0.6916151138480078 0.41 0  0.6383613676644679 0.41 0  0.5869673343225223 0.41 0  0.5373680609412221 0.41 0  0.4895008759292634 0.41 0  0.4433053055145528 0.41 0  0.3987229542475914 0.41 0  0.3556974926297398 0.41 0  0.3141745521466497 0.41 0  0.2741016576310038 0.41 0  0.2354281840915826 0.41 0  0.1981052433265003 0.41 0  0.1620856860352591 0.41 0  0.1273239957535623 0.41 0  0.09377624077128965 0.41 0  0.06140001986584975 0.41 0  0.03015443760436654 0.41 0  0.2497468076502589 0.2050254481002335 0  0.2497468076502614 0.1949745518997913 0  0.2469965252529372 0.1829317073451959 0  0.2439893735792749 0.1762316384219906 0  0.2400332147834255 0.1700443375285386 0  0.2352133972704371 0.1645032867342007 0  0.2296339016332438 0.1597280261969788 0  0.2234150974217223 0.1558215752574715 0  0.2166911463437691 0.1528682099456123 0  0.2096071079204251 0.1509316448471593 0  0.2023158100364996 0.1500536585536553 0  0.194974551899914 0.1502531923497262 0  0.1877417105387872 0.1515259415822739 0  0.1807733240461124 0.153844448527136 0  0.1742197252835808 0.15715869474974 0  0.1682222986673531 0.1613971801805478 0  0.162910430003803 0.1664684656256651 0  0.1583987151779087 0.1722631454351573 0  0.1547844879126891 0.178656207771761 0  0.1521457199348551 0.1855097315605723 0  0.1505393388476355 0.1926758619366523 0  0.1505393388476328 0.2073241380633295 0  0.1521457199348437 0.2144902684393899 0  0.1547844879126531 0.221343792228163 0  0.1583987151778488 0.2277368545647528 0  0.1629104300036858 0.2335315343742052 0  0.1682222986671726 0.2386028198193036 0  0.1742197252833576 0.2428413052501257 0  0.1807733240458683 0.2461555514727623 0  0.1877417105384929 0.2484740584176516 0  0.1949745518995776 0.2497468076502398 0  0.202315810036185 0.2499463414463592 0  0.2096071079201568 0.2490683551528932 0  0.2166911463435495 0.2471317900544655 0  0.2234150974215506 0.2441784247426195 0  0.2296339016331197 0.2402719738031125 0  0.2352133972703547 0.2354967132658811 0  0.2400332147833751 0.2299556624715287 0  0.2439893735792577 0.2237683615780412 0  0.246996525252926 0.2170682926548348 0  0.25645809709277 0.21 0  0.2639263993298655 0.21 0  0.271394701566961 0.21 0  0.2788630038040554 0.21 0  0.2863313060411479 0.21 0  0.2937996082782405 0.21 0  0.301267910515333 0.21 0  0.3087362127524279 0.21 0  0.3162045149895234 0.21 0  0.3236728172265972 0.21 0  0.3311411194636928 0.21 0  0.3386094217007701 0.21 0  0.3460777239378666 0.21 0  0.3535460261749672 0.21 0  0.3610143284120516 0.21 0  0.3684826306491596 0.21 0  0.3759509328862226 0.21 0  0.383419235123329 0.21 0  0.3908875373604028 0.21 0  0.3983558395975142 0.21 0  0.4058241418345938 0.21 0  0.4132924440716992 0.21 0  0.4207607463087888 0.21 0  0.4282290485459029 0.21 0  0.4356973507830418 0.21 0  0.4431656530201649 0.21 0  0.4506339552573136 0.21 0  0.4581022574944306 0.21 0  0.4655705597315852 0.21 0  0.4730388619686996 0.21 0  0.480507164205851 0.21 0  0.4879754664429498 0.21 0  0.4954437686800938 0.21 0  0.502912070917267 0.21 0  0.5103803731544119 0.21 0  0.5178486753915261 0.21 0  0.5253169776286404 0.21 0  0.5327852798657868 0.21 0  0.5402535821029386 0.21 0  0.54772188434007 0.21 0  0.5551901865771842 0.21 0  0.5626584888143201 0.21 0  0.5701267910514778 0.21 0  0.5775950932886138 0.21 0  0.5850633955257281 0.21 0  0.5925316977628483 0.21 0  0.6 0.2050000000000054 0  0.6 0.1950000000000217 0  0.5925316977628897 0.19 0  0.5850633955257988 0.19 0  0.5775950932887378 0.19 0  0.5701267910515998 0.19 0  0.5626584888145268 0.19 0  0.5551901865773963 0.19 0  0.547721884340339 0.19 0  0.5402535821032429 0.19 0  0.5327852798661811 0.19 0  0.5253169776290537 0.19 0  0.5178486753919799 0.19 0  0.5103803731549078 0.19 0  0.502912070917822 0.19 0  0.4954437686807294 0.19 0  0.4879754664436223 0.19 0  0.4805071642065402 0.19 0  0.4730388619694271 0.19 0  0.4655705597323621 0.19 0  0.4581022574952563 0.19 0  0.4506339552581777 0.19 0  0.4431656530210671 0.19 0  0.4356973507839815 0.19 0  0.4282290485468779 0.19 0  0.4207607463097617 0.19 0  0.4132924440726327 0.19 0  0.4058241418354857 0.19 0  0.3983558395983636 0.19 0  0.3908875373612097 0.19 0  0.3834192351240934 0.19 0  0.3759509328869369 0.19 0  0.3684826306498175 0.19 0  0.361014328412667 0.19 0  0.3535460261755617 0.19 0  0.3460777239384295 0.19 0  0.3386094217012945 0.19 0  0.3311411194641595 0.19 0  0.3236728172270245 0.19 0  0.3162045149898895 0.19 0  0.3087362127527544 0.19 0  0.3012679105156187 0.19 0  0.2937996082784807 0.19 0  0.2863313060413428 0.19 0  0.2788630038042048 0.19 0  0.2713947015670686 0.19 0  0.2639263993299336 0.19 0  0.2564580970927985 0.19 0  0.2607803159922026 0.2000727136295815 0  0.5887803774232762 0.2001272386983733 0  0.5745072403740523 0.2002044435018727 0  0.5511891430099709 0.2001122610077113 0  0.2751288526855082 0.20000000000002 0  0.5365194309847112 0.1999999999999436 0  0.2894621222999649 0.1998691686390484 0  0.5215828265105155 0.1999999999999228 0  0.3127789816668748 0.1998657885438805 0  0.3274069683451451 0.2000000000000796 0  0.5066462220363641 0.199999999999908 0  0.3650630746574081 0.199866017807523 0  0.476773013087985 0.1999999999998713 0  0.3417402379596385 0.1998691686391011 0  0.3796850840047755 0.200000000000134 0  0.4618364086138087 0.1999999999998546 0  0.4917096175621762 0.1999999999998808 0  0.3946216884789568 0.2000000000001512 0  0.446899804139621 0.1999999999998389 0  0.4089549580935208 0.1998691686391595 0  0.4322718174608562 0.200127451265745 0  0.4201487168029707 0.1999966199048527 0  0.3528922713220932 0.2000185703532356 0  0.5633122436674589 0.1999814296467508 0  0.3006558810093873 0.1999966199048318 0  0.5815926498168407 0.1966545283159175 0  0.2677053789419034 0.1964246479135325 0  0.5290511287476175 0.1970915826863981 0  0.5439877332217911 0.197091582686394 0  0.2825131256993216 0.2035478995978015 0  0.3199386661080599 0.202908417313604 0  0.4842413153250809 0.1970915826863873 0  0.5141145242734466 0.1970915826863843 0  0.3722167817676917 0.2029084173136195 0  0.4693047108508938 0.1970915826863783 0  0.3348752705822316 0.202908417313609 0  0.3871533862418661 0.2029084173136212 0  0.4543681063767183 0.1970915826863795 0  0.4991779197992749 0.1970915826863902 0  0.4020059614928624 0.203547899597858 0  0.4394315019025246 0.1970915826863714 0  0.2550657455369551 0.2034088125358657 0  0.2548908499171161 0.1966940311614271 0  0.5946539510196798 0.2024302972968126 0  0.267698176732111 0.2039977513680092 0  0.4261685417851465 0.196409292431739 0  0.3590076176283495 0.196411355804271 0  0.5571672426447437 0.2036011176410121 0  0.3066757059912147 0.1964092924317024 0  0.594380730180568 0.1966558399668133 0  0.4842413153245942 0.2040749161535287 0  0.4693047108503577 0.2040749161535231 0  0.3871533862424271 0.1959250838464788 0  0.372246743208829 0.1959123236376545 0  0.5141145242731028 0.2040749161535395 0  0.4543681063761134 0.2040749161535186 0  0.4019979587101454 0.1959834479682427 0  0.4394608940728603 0.2040870543693135 0  0.5439623148931173 0.2040856076781014 0  0.5290511287473298 0.2040749161535501 0  0.4991779197988497 0.2040749161535382 0  0.3347912413592433 0.1959225448935183 0  0.3199680582793816 0.1959123018030061 0  0.2825051229162361 0.1959834479681729 0  0.3590471196690275 0.2036304442587945 0  0.5571594006495384 0.1963685282145804 0  0.3067669986803285 0.203627750582736 0  0.4262598344738712 0.2036568242185335 0  0.5814408164431408 0.2041285596160068 0  0.5688286748170428 0.1961819304477386 0  0.4145905603063645 0.2038180695522843 0  0.3473758401724931 0.2038180695522752 0  0.2950977245128307 0.2038180695522663 0  0.5688286748170693 0.203818069552238 0  0.2950977245127906 0.1961819304477774 0  0.3473758401723931 0.1961819304478349 0  0.4145905603061963 0.1961819304479011 0  0.2601812407614425 0.2056861609747042
[...]
<PointData  Vectors="f_40-0"> 
<DataArray  type="Float64"  Name="f_40-0"  NumberOfComponents="3" format="ascii">0.0000000000000000e+00 0.0000000000000000e+00 0.0000000000000000e+00  0.0000000000000000e+00 0.0000000000000000e+00 0.0000000000000000e+00  0.0000000000000000e+00 0.0000000000000000e+00 0.0000000000000000e+00  0.0000000000000000e+00 0.0000000000000000e+00 0.0000000000000000e+00  -1.1871091999492576e-04 1.3427287686424932e-06 0.0000000000000000e+00  -1.1828826566438204e-04 -3.8462813495012071e-06 0.0000000000000000e+00  0.0000000000000000e+00 0.0000000000000000e+00 0.0000000000000000e+00  0.0000000000000000e+00 0.0000000000000000e+00 0.0000000000000000e+00  0.0000000000000000e+00 0.0000000000000000e+00 0.0000000000000000e+00  0.0000000000000000e+00 0.0000000000000000e+00 0.0000000000000000e+00  -1.1858813606975359e-04 -1.2551374435602435e-06 0.0000000000000000e+00  3.8888503380386383e-05 0.0000000000000000e+00 0.0000000000000000e+00  7.1794160086871924e-05 0.0000000000000000e+00 0.0000000000000000e+00  9.8716970119448906e-05 0.0000000000000000e+00 0.0000000000000000e+00  1.1965693347814852e-04 0.0000000000000000e+00 0.0000000000000000e+00  1.3461405016296801e-04 0.0000000000000000e+00 0.0000000000000000e+00  1.4358832017390651e-04 0.0000000000000000e+00 0.0000000000000000e+00  1.4657974351095504e-04 0.0000000000000000e+00 0.0000000000000000e+00  1.4358832017408795e-04 0.0000000000000000e+00 0.0000000000000000e+00  1.3461405016327969e-04 0.0000000000000000e+00 0.0000000000000000e+00  1.1965693347853450e-04 0.0000000000000000e+00 0.0000000000000000e+00  9.8716970119815583e-05 0.0000000000000000e+00 0.0000000000000000e+00  7.1794160087184798e-05 0.0000000000000000e+00 0.0000000000000000e+00  3.8888503380562674e-05 0.0000000000000000e+00 0.0000000000000000e+00  0.0000000000000000e+00 0.0000000000000000e+00 0.0000000000000000e+00  0.0000000000000000e+00 0.0000000000000000e+00 0.0000000000000000e+00  0.0000000000000000e+00 0.0000000000000000e+00 0.0000000000000000e+00  0.0000000000000000e+00 0.0000000000000000e+00 0.0000000000000000e+00  0.0000000000000000e+00 0.0000000000000000e+00 0.0000000000000000e+00  0.0000000000000000e+00 0.0000000000000000e+00 0.0000000000000000e+00  0.0000000000000000e+00 0.0000000000000000e+00 0.0000000000000000e+00  0.0000000000000000e+00 0.0000000000000000e+00 0.0000000000000000e+00  0.0000000000000000e+00 0.0000000000000000e+00 0.0000000000000000e+00  0.0000000000000000e+00 0.0000000000000000e+00 0.0000000000000000e+00  0.0000000000000000e+00 0.0000000000000000e+00 0.0000000000000000e+00  0.0000000000000000e+00 0.0000000000000000e+00 0.0000000000000000e+00  0.0000000000000000e+00 0.0000000000000000e+00 0.0000000000000000e+00  0.0000000000000000e+00 0.0000000000000000e+00 0.0000000000000000e+00  0.0000000000000000e+00 0.0000000000000000e+00 0.0000000000000000e+00  0.0000000000000000e+00 0.0000000000000000e+00 0.0000000000000000e+00  0.0000000000000000e+00 0.0000000000000000e+00 0.0000000000000000e+00  0.0000000000000000e+00 0.0000000000000000e+00 0.0000000000000000e+00  0.0000000000000000e+00 0.0000000000000000e+00 0.0000000000000000e+00  0.0000000000000000e+00 0.0000000000000000e+00 0.0000000000000000e+00  0.0000000000000000e+00 0.0000000000000000e+00 0.0000000000000000e+00  0.0000000000000000e+00 0.0000000000000000e+00 0.0000000000000000e+00  0.0000000000000000e+00 0.0000000000000000e+00 0.0000000000000000e+00  0.0000000000000000e+00 0.0000000000000000e+00 0.0000000000000000e+00  0.0000000000000000e+00 0.0000000000000000e+00 0.0000000000000000e+00  0.0000000000000000e+00 0.0000000000000000e+00 0.0000000000000000e+00  0.0000000000000000e+00 0.0000000000000000e+00 0.0000000000000000e+00  0.0000000000000000e+00 0.0000000000000000e+00 0.0000000000000000e+00  0.0000000000000000e+00 0.0000000000000000e+00 0.0000000000000000e+00  0.0000000000000000e+00 0.0000000000000000e+00 0.0000000000000000e+00  0.0000000000000000e+00 0.0000000000000000e+00 0.0000000000000000e+00  0.0000000000000000e+00 0.0000000000000000e+00 0.0000000000000000e+00  0.0000000000000000e+00 0.0000000000000000e+00 0.0000000000000000e+00  0.0000000000000000e+00 0.0000000000000000e+00 0.0000000000000000e+00  0.0000000000000000e+00 0.0000000000000000e+00 0.0000000000000000e+00  0.0000000000000000e+00 0.0000000000000000e+00 0.0000000000000000e+00  0.0000000000000000e+00 0.0000000000000000e+00 0.0000000000000000e+00  0.0000000000000000e+00 0.0000000000000000e+00 0.0000000000000000e+00  1.0861378540857104e-04 3.3213309909866535e-06 0.0000000000000000e+00  8.5843363093493841e-05 -8.6149837665894731e-08 0.0000000000000000e+00  1.0604146821366301e-04 -4.6583398285194675e-06 0.0000000000000000e+00  0.0000000000000000e+00 0.0000000000000000e+00 0.0000000000000000e+00  0.0000000000000000e+00 0.0000000000000000e+00 0.0000000000000000e+00  0.0000000000000000e+00 0.0000000000000000e+00 0.0000000000000000e+00  0.0000000000000000e+00 0.0000000000000000e+00 0.0000000000000000e+00  0.0000000000000000e+00 0.0000000000000000e+00 0.0000000000000000e+00  0.0000000000000000e+00 0.0000000000000000e+00 0.0000000000000000e+00  0.0000000000000000e+00 0.0000000000000000e+00 0.0000000000000000e+00  0.0000000000000000e+00 0.0000000000000000e+00 0.0000000000000000e+00  0.0000000000000000e+00 0.0000000000000000e+00 0.0000000000000000e+00  0.0000000000000000e+00 0.0000000000000000e+00 0.0000000000000000e+00  0.0000000000000000e+00 0.0000000000000000e+00 0.0000000000000000e+00  0.0000000000000000e+00 0.0000000000000000e+00 0.0000000000000000e+00  0.0000000000000000e+00 0.0000000000000000e+00 0.0000000000000000e+00  0.0000000000000000e+00 0.0000000000000000e+00 0.0000000000000000e+00  0.0000000000000000e+00 0.0000000000000000e+00 0.0000000000000000e+00  0.0000000000000000e+00 0.0000000000000000e+00 0.0000000000000000e+00  0.0000000000000000e+00 0.0000000000000000e+00 0.0000000000000000e+00  0.0000000000000000e+00 0.0000000000000000e+00 0.0000000000000000e+00  0.0000000000000000e+00 0.0000000000000000e+00 0.0000000000000000e+00  0.0000000000000000e+00 0.0000000000000000e+00 0.0000000000000000e+00  0.0000000000000000e+00 0.0000000000000000e+00 0.0000000000000000e+00  0.0000000000000000e+00 0.0000000000000000e+00 0.0000000000000000e+00  0.0000000000000000e+00 0.0000000000000000e+00 0.0000000000000000e+00  0.0000000000000000e+00 0.0000000000000000e+00 0.0000000000000000e+00  0.0000000000000000e+00 0.0000000000000000e+00 0.0000000000000000e+00  0.0000000000000000e+00 0.0000000000000000e+00 0.0000000000000000e+00  0.0000000000000000e+00 0.0000000000000000e+00 0.0000000000000000e+00  0.0000000000000000e+00 0.0000000000000000e+00 0.0000000000000000e+00  0.0000000000000000e+00 0.0000000000000000e+00 0.0000000000000000e+00  0.0000000000000000e+00 0.0000000000000000e+00 0.0000000000000000e+00  0.0000000000000000e+00 0.0000000000000000e+00 0.0000000000000000e+00  0.0000000000000000e+00 0.0000000000000000e+00 0.0000000000000000e+00  0.0000000000000000e+00 0.0000000000000000e+00 0.0000000000000000e+00  0.0000000000000000e+00 0.0000000000000000e+00 0.0000000000000000e+00  0.0000000000000000e+00 0.0000000000000000e+00 0.0000000000000000e+00  0.0000000000000000e+00 0.0000000000000000e+00 0.0000000000000000e+00  0.0000000000000000e+00 0.0000000000000000e+00 0.0000000000000000e+00  0.0000000000000000e+00 0.0000000000000000e+00 0.0000000000000000e+00  0.0000000000000000e+00 0.0000000000000000e+00 0.0000000000000000e+00  0.0000000000000000e+00 0.0000000000000000e+00 0.0000000000000000e+00  0.0000000000000000e+00 0.0000000000000000e+00 0.0000000000000000e+00  0.0000000000000000e+00 0.0000000000000000e+00 0.0000000000000000e+00  0.0000000000000000e+00 0.0000000000000000e+00 0.0000000000000000e+00  0.0000000000000000e+00 0.0000000000000000e+00 0.0000000000000000e+00  0.0000000000000000e+00 0.0000000000000000e+00 0.0000000000000000e+00  0.0000000000000000e+00 0.0000000000000000e+00 0.0000000000000000e+00  0.0000000000000000e+00 0.0000000000000000e+00 0.0000000000000000e+00  0.0000000000000000e+00 0.0000000000000000e+00 0.0000000000000000e+00  0.0000000000000000e+00 0.0000000000000000e+00 0.0000000000000000e+00  0.0000000000000000e+00 0.0000000000000000e+00 0.0000000000000000e+00  0.0000000000000000e+00 0.0000000000000000e+00 0.0000000000000000e+00  0.0000000000000000e+00 0.0000000000000000e+00 0.0000000000000000e+00  0.0000000000000000e+00 0.0000000000000000e+00 0.0000000000000000e+00  0.0000000000000000e+00 0.0000000000000000e+00 0.0000000000000000e+00  0.0000000000000000e+00 0.0000000000000000e+00 0.0000000000000000e+00  0.0000000000000000e+00 0.0000000000000000e+00 0.0000000000000000e+00  0.0000000000000000e+00 0.0000000000000000e+00 0.0000000000000000e+00  0.0000000000000000e+00 0.0000000000000000e+00 0.0000000000000000e+00  0.0000000000000000e+00 0.0000000000000000e+00 0.0000000000000000e+00  0.0000000000000000e+00 0.0000000000000000e+00 0.0000000000000000e+00  0.0000000000000000e+00 0.0000000000000000e+00 0.0000000000000000e+00  0.0000000000000000e+00 0.0000000000000000e+00 0.0000000000000000e+00  0.0000000000000000e+00 0.0000000000000000e+00 0.0000000000000000e+00  0.0000000000000000e+00 0.0000000000000000e+00 0.0000000000000000e+00  0.0000000000000000e+00 0.0000000000000000e+00 0.0000000000000000e+00  0.0000000000000000e+00 0.0000000000000000e+00 0.0000000000000000e+00  0.0000000000000000e+00 0.0000000000000000e+00 0.0000000000000000e+00  0.0000000000000000e+00 0.0000000000000000e+00 0.0000000000000000e+00  0.0000000000000000e+00 0.0000000000000000e+00 0.0000000000000000e+00  0.0000000000000000e+00 0.0000000000000000e+00 0.0000000000000000e+00  0.0000000000000000e+00 0.0000000000000000e+00 0.0000000000000000e+00  0.0000000000000000e+00 0.0000000000000000e+00 0.0000000000000000e+00  0.0000000000000000e+00 0.0000000000000000e+00 0.0000000000000000e+00  0.0000000000000000e+00 0.0000000000000000e+00 0.0000000000000000e+00  0.0000000000000000e+00 0.0000000000000000e+00 0.0000000000000000e+00  0.0000000000000000e+00 0.0000000000000000e+00 0.0000000000000000e+00  0.0000000000000000e+00 0.0000000000000000e+00 0.0000000000000000e+00  0.0000000000000000e+00 0.0000000000000000e+00 0.0000000000000000e+00  -2.9953163758182687e-06 -2.0438398661700743e-06 0.0000000000000000e+00  -6.0620974914483373e-06 -2.1789059542866362e-06 0.0000000000000000e+00  -9.0740263177452496e-06 -2.2173179552114964e-06 0.0000000000000000e+00  -1.2028153790694149e-05 -2.1674915979265620e-06 0.0000000000000000e+00  -1.4960296421584776e-05 -2.1253799814375346e-06 0.0000000000000000e+00  -1.7895009753787341e-05 -2.1064670546632558e-06 0.0000000000000000e+00  -2.0827345861172393e-05 -2.0937843492232551e-06 0.0000000000000000e+00  -2.3755515102539099e-05 -2.0950749269151488e-06 0.0000000000000000e+00  -2.6673755082654345e-05 -2.1013828491651213e-06 0.0000000000000000e+00  -2.9586558707939482e-05 -2.1182256072800826e-06 0.0000000000000000e+00  -3.2486679813627219e-05 -2.1403875588257409e-06 0.0000000000000000e+00  -3.5373607571939640e-05 -2.1719487128715507e-06 0.0000000000000000e+00  -3.8240926563443836e-05 -2.2046382540988992e-06 0.0000000000000000e+00  -4.1092426767649512e-05 -2.2426510535344087e-06 0.0000000000000000e+00  -4.3916189947261985e-05 -2.2788482266239837e-06 0.0000000000000000e+00  -4.6720398143235726e-05 -2.3153462395333354e-06 0.0000000000000000e+00  -4.9498897787301695e-05 -2.3513231171142014e-06 0.0000000000000000e+00  -5.2250040278317468e-05 -2.3844733083300929e-06 0.0000000000000000e+00  -5.4973228247594677e-05 -2.4187654962107132e-06 0.0000000000000000e+00  -5.7667862598572759e-05 -2.4471007533414491e-06 0.0000000000000000e+00  -6.0332235699640745e-05 -2.4776810539327144e-06 0.0000000000000000e+00  -6.2962978837371452e-05 -2.5016580649964585e-06 0.0000000000000000e+00  -6.5567709304911522e-05 -2.5262065471003228e-06 0.0000000000000000e+00  -6.8134216977452195e-05 -2.5415634624259870e-06 0.0000000000000000e+00  -7.0673585555700898e-05 -2.5574866682191647e-06 0.0000000000000000e+00  -7.3177138939637052e-05 -2.5650375576018171e-06 0.0000000000000000e+00  -7.5649932779603009e-05 -2.5622622803219115e-06 0.0000000000000000e+00  -7.8088652232531237e-05 -2.5592053057542266e-06 0.0000000000000000e+00  -8.0491613817294789e-05 -2.5413874262207421e-06 0.0000000000000000e+00  -8.2860486445595938e-05 -2.5292477922362447e-06 0.0000000000000000e+00  -8.5193618866112296e-05 -2.5030611740832318e-06 0.0000000000000000e+00  -8.7492664352223931e-05 -2.4874084792948810e-06 0.0000000000000000e+00  -8.9757800762958900e-05 -2.4668025683169477e-06 0.0000000000000000e+00  -9.1985446697279272e-05 -2.4630666026937856e-06 0.0000000000000000e+00  -9.4173676153506240e-05 -2.4617028304325704e-06 0.0000000000000000e+00  -9.6331705118822675e-05 -2.4800766495046704e-06 0.0000000000000000e+00  -9.8458978109161656e-05 -2.5077229890313813e-06 0.0000000000000000e+00  -1.0055915850818472e-04 -2.5661333013145290e-06 0.0000000000000000e+00  -1.0262893516790853e-04 -2.6394215394222641e-06 0.0000000000000000e+00  -1.0467275872245408e-04 -2.7405739079297110e-06 0.0000000000000000e+00  -1.0668925068530813e-04 -2.8574439726050007e-06 0.0000000000000000e+00  -1.0868944696392865e-04 -2.9898430797583899e-06 0.0000000000000000e+00  -1.1066153293714647e-04 -3.1369656588977414e-06 0.0000000000000000e+00  -1.1261477469961120e-04 -3.2875619338861980e-06 0.0000000000000000e+00  -1.1454816843511789e-04 -3.4503822867584896e-06 0.0000000000000000e+00  -1.1644743775765060e-04 -3.6267832341367307e-06 0.0000000000000000e+00  -1.1846429867620749e-04 -2.5460236932127198e-06 0.0000000000000000e+00  -1.1866987741288632e-04 3.5906210569796938e-08 0.0000000000000000e+00  -1.1686347832697084e-04 1.4310077037041034e-06 0.0000000000000000e+00  -1.1495650651552182e-04 1.5769103534867920e-06 0.0000000000000000e+00  -1.1300931633055024e-04 1.7215134184386088e-06 0.0000000000000000e+00  -1.1102956769650658e-04 1.8617377754134643e-06 0.0000000000000000e+00  -1.0902736355397893e-04 1.9926037889960751e-06 0.0000000000000000e+00  -1.0699052986330665e-04 2.1065485945349322e-06 0.0000000000000000e+00  -1.0492318301863630e-04 2.2080555277880551e-06 0.0000000000000000e+00  -1.0283230569736909e-04 2.2847259963137514e-06 0.0000000000000000e+00  -1.0070861357924367e-04 2.3453793936772212e-06 0.0000000000000000e+00  -9.8563176415937561e-05 2.3749979614637216e-06 0.0000000000000000e+00  -9.6383598183925342e-05 2.3899307323052748e-06 0.0000000000000000e+00  -9.4183127739245711e-05 2.3792945685678933e-06 0.0000000000000000e+00  -9.1950629692539579e-05 2.3617815804058504e-06 0.0000000000000000e+00  -8.9699189574800000e-05 2.3263614389781947e-06 0.0000000000000000e+00  -8.7421807839606247e-05 2.2890450678762909e-06 0.0000000000000000e+00  -8.5117477231690857e-05 2.2380306292766308e-06 0.0000000000000000e+00  -8.2783687359649528e-05 2.1942000348681906e-06 0.0000000000000000e+00  -8.0419621477500325e-05 2.1442619079367019e-06 0.0000000000000000e+00  -7.8025188855389673e-05 2.1079174118789851e-06 0.0000000000000000e+00  -7.5600864045349966e-05 2.0696960277527327e-06 0.0000000000000000e+00  -7.3149079016639681e-05 2.0461409601684784e-06 0.0000000000000000e+00  -7.0660875449331684e-05 2.0195086454215130e-06 0.0000000000000000e+00  -6.8138798571895030e-05 2.0062741528423573e-06 0.0000000000000000e+00  -6.5584907121058798e-05 1.9912817901935133e-06 0.0000000000000000e+00  -6.2988752447770149e-05 1.9881351703177432e-06 0.0000000000000000e+00  -6.0368003889397792e-05 1.9870122207092271e-06 0.0000000000000000e+00  -5.7715108875319322e-05 1.9889824996981242e-06 0.0000000000000000e+00  -5.5031341230076600e-05 1.9958053315538418e-06 0.0000000000000000e+00  -5.2315467725367080e-05 2.0022778976770500e-06 0.0000000000000000e+00  -4.9568595378467959e-05 2.0166552528162064e-06 0.0000000000000000e+00  -4.6793475024926408e-05 2.0324264491692308e-06 0.0000000000000000e+00  -4.3992377859605111e-05 2.0541175981848688e-06 0.0000000000000000e+00  -4.1170016166162126e-05 2.0781048736182293e-06 0.0000000000000000e+00  -3.8317519439069278e-05 2.1020800609608249e-06 0.0000000000000000e+00  -3.5446148832477869e-05 2.1303972947977874e-06 0.0000000000000000e+00  -3.2552437866565295e-05 2.1547494508380776e-06 0.0000000000000000e+00  -2.9640977883560386e-05 2.1835802886482282e-06 0.0000000000000000e+00  -2.6716178406406635e-05 2.2065814149060689e-06 0.0000000000000000e+00  -2.3781136542971376e-05 2.2282056836676103e-06 0.0000000000000000e+00  -2.0838114930030434e-05 2.2422474732464896e-06 0.0000000000000000e+00  -1.7891640791498258e-05 2.2545436283445540e-06 0.0000000000000000e+00  -1.4941423289173398e-05 2.2612658841453557e-06 0.0000000000000000e+00  -1.2000170338323970e-05 2.2813876435467873e-06 0.0000000000000000e+00  -9.0395646410675473e-06 2.2960275793480805e-06 0.0000000000000000e+00  -6.0340836358656122e-06 2.2252557956195906e-06 0.0000000000000000e+00  -2.9849081812555083e-06 2.0484520151090373e-06 0.0000000000000000e+00  -5.1126290137090285e-06 1.7400223450218849e-10 0.0000000000000000e+00  -1.1573255731157996e-04 -1.0463849872046005e-06 0.0000000000000000e+00  -1.1201561903370157e-04 -7.6707974258314558e-07 0.0000000000000000e+00  -1.0576538316834708e-04 -3.3102501675395868e-07 0.0000000000000000e+00  -1.0546817371847732e-05 4.8482178794399353e-08 0.0000000000000000e+00  -1.0170307353415222e-04 -1.2968602236946515e-07 0.0000000000000000e+00  -1.6184389977030814e-05 1.0316388843972122e-07 0.0000000000000000e+00  -9.7455999124255289e-05 -4.1855064219216204e-08 0.0000000000000000e+00  -2.5360905909485689e-05 9.2340104193750977e-08 0.0000000000000000e+00  -3.1078203174717240e-05 2.2943377984866404e-08 0.0000000000000000e+00  -9.3094836805924399e-05 -3.4285260601083500e-08 0.0000000000000000e+00  -4.5493196760265958e-05 -9.9883326125265095e-08 0.0000000000000000e+00  -8.4011091462232230e-05 -1.4976268222084695e-07 0.0000000000000000e+00  -3.6626876190074255e-05 -4.2091347323598868e-09 0.0000000000000000e+00  -5.0928568126605857e-05 -1.8046102666817964e-07 0.0000000000000000e+00  -7.9279374090341370e-05 -2.1453638227664074e-07 0.0000000000000000e+00  -8.8614876165242127e-05 -8.1089979895883015e-08 0.0000000000000000e+00  -5.6369146705311800e-05 -2.2334325780473106e-07 0.0000000000000000e+00  -7.4417774362654351e-05 -2.5818318318926931e-07 0.0000000000000000e+00  -6.1474859136908942e-05 -2.2394195871505758e-07 0.0000000000000000e+00  -6.9529482663818653e-05 -3.0204030884262766e-07 0.0000000000000000e+00  -6.5379873835734795e-05 -2.6718565733758553e-07 0.0000000000000000e+00  -4.0892969858961372e-05 -8.3381091958662834e-08 0.0000000000000000e+00  -1.0904821860222869e-04 -4.9930390744783904e-07 0.0000000000000000e+00  -2.0596894321743943e-05 7.7793863069158620e-08 0.0000000000000000e+00  -1.1393850287994902e-04 -2.3181239217967522e-08 0.0000000000000000e+00  -7.6758581147369982e-06 8.7030503261183677e-07 0.0000000000000000e+00  -9.9610305183314875e-05 6.3635768699099793e-07 0.0000000000000000e+00  -1.0381566704606082e-04 5.0894270069138249e-07 0.0000000000000000e+00  -1.3452859069151881e-05 -7.1799227184887309e-07 0.0000000000000000e+00  -2.8157128194211541e-05 -5.7963033715735412e-07 0.0000000000000000e+00  -8.6316389983005448e-05 5.7759091526640505e-07 0.0000000000000000e+00  -9.5292866474470199e-05 6.7468296333616875e-07 0.0000000000000000e+00  -4.8152803132385401e-05 -7.8879770098549911e-07 0.0000000000000000e+00  -8.1648700573409291e-05 4.9987949790953829e-07 0.0000000000000000e+00  -3.3966324503190669e-05 -6.2971466521902962e-07 0.0000000000000000e+00  -5.3652734883768023e-05 -8.4286423562425161e-07 0.0000000000000000e+00  -7.6854602982933813e-05 4.3631864980460189e-07 0.0000000000000000e+00  -9.0861683677641446e-05 6.4554651244043379e-07 0.0000000000000000e+00  -5.9003440058287916e-05 -1.0289805995356084e-06 0.0000000000000000e+00  -7.1932631966748330e-05 3.9932172988796717e-07 0.0000000000000000e+00  -2.6920550414766245e-06 -4.5293216462042970e-07 0.0000000000000000e+00  -2.6060587789331852e-06 4.1182719811319976e-07 0.0000000000000000e+00  -1.1718555598152086e-04 -1.7555454217850406e-06 0.0000000000000000e+00