<?xml version="1.0"?>
<VTKFile type="UnstructuredGrid"  version="0.1"  >
<UnstructuredGrid>
<Piece  NumberOfPoints="1419" NumberOfCells="2698">
<Points>
<DataArray  type="Float64"  NumberOfComponents="3"  format="ascii">0 0 0  0 0.41 0  2.5 0 0  2.5 0.41 0  0.6 0.19 0  0.6 0.21 0  0.25 0.2 0  0.15 0.2 0  0.2489897948556636 0.21 0  0.2489897948556636 0.19 0  0.6 0.2 0  0 0.3807142857143437 0  0 0.3514285714286952 0  0 0.3221428571430699 0  0 0.29285714285744 0  0 0.2635714285718054 0  0 0.2342857142861561 0  0 0.2050000000005308 0  0 0.175714285714732 0  0 0.1464285714289574 0  0 0.1171428571431897 0  0 0.08785714285737878 0  0 0.05857142857161107 0  0 0.02928571428580012 0  0.03015443760436003 0 0  0.06140001986583606 0 0  0.09377624077125973 0 0  0.1273239957535082 0 0  0.1620856860351972 0 0  0.1981052433264291 0 0  0.235428184091502 0 0  0.2741016576309132 0 0  0.3141745521465447 0 0  0.3556974926295285 0 0  0.3987229542472677 0 0  0.4433053055141081 0 0  0.4895008759286886 0 0  0.5373680609405097 0 0  0.5869673343216626 0 0  0.6383613676634521 0 0  0.6916151138468254 0 0  0.7467958595648856 0 0  0.8039733463919316 0 0  0.8632198139502143 0 0  0.9246101326867038 0 0  0.9882218810934433 0 0  1.054135445558498 0 0  1.122434100542598 0 0  1.193204177141305 0 0  1.266535089879536 0 0  1.342519516046404 0 0  1.421253448503939 0 0  1.502836389106271 0 0  1.587371439758838 0 0  1.674965418777374 0 0  1.765729001825544 0 0  1.859776908880082 0 0  1.957227977487062 0 0  2.058205329869943 0 0  2.162836591189951 0 0  2.271253957290865 0 0  2.383594446803425 0 0  2.5 0.1024999999997612 0  2.5 0.2049999999994743 0  2.5 0.3074999999997183 0  2.383594446803656 0.41 0  2.271253957291315 0.41 0  2.162836591190598 0.41 0  2.058205329870775 0.41 0  1.957227977488067 0.41 0  1.859776908881246 0.41 0  1.765729001826854 0.41 0  1.674965418778818 0.41 0  1.58737143976041 0.41 0  1.502836389107956 0.41 0  1.421253448505726 0.41 0  1.342519516048286 0.41 0  1.266535089881505 0.41 0  1.193204177143353 0.41 0  1.122434100544716 0.41 0  1.05413544556068 0.41 0  0.9882218810956305 0.41 0  0.9246101326886647 0.41 0  0.8632198139519631 0.41 0  0.8039733463934788 0.41 0  0.7467958595662458 0.41 0  0.6916151138480078 0.41 0  0.6383613676644679 0.41 0  0.5869673343225223 0.41 0  0.5373680609412221 0.41 0  0.4895008759292634 0.41 0  0.4433053055145528 0.41 0  0.3987229542475914 0.41 0  0.3556974926297398 0.41 0  0.3141745521466497 0.41 0  0.2741016576310038 0.41 0  0.2354281840915826 0.41 0  0.1981052433265003 0.41 0  0.1620856860352591 0.41 0  0.1273239957535623 0.41 0  0.09377624077128965 0.41 0  0.06140001986584975 0.41 0  0.03015443760436654 0.41 0  0.2497468076502589 0.2050254481002335 0  0.2497468076502614 0.1949745518997913 0  0.2469965252529372 0.1829317073451959 0  0.2439893735792749 0.1762316384219906 0  0.2400332147834255 0.1700443375285386 0  0.2352133972704371 0.1645032867342007 0  0.2296339016332438 0.1597280261969788 0  0.2234150974217223 0.1558215752574715 0  0.2166911463437691 0.1528682099456123 0  0.2096071079204251 0.1509316448471593 0  0.2023158100364996 0.1500536585536553 0  0.194974551899914 0.1502531923497262 0  0.1877417105387872 0.1515259415822739 0  0.1807733240461124 0.153844448527136 0  0.1742197252835808 0.15715869474974 0  0.1682222986673531 0.1613971801805478 0  0.162910430003803 0.1664684656256651 0  0.1583987151779087 0.1722631454351573 0  0.1547844879126891 0.178656207771761 0  0.1521457199348551 0.1855097315605723 0  0.1505393388476355 0.1926758619366523 0  0.1505393388476328 0.2073241380633295 0  0.1521457199348437 0.2144902684393899 0  0.1547844879126531 0.221343792228163 0  0.1583987151778488 0.2277368545647528 0  0.1629104300036858 0.2335315343742052 0  0.1682222986671726 0.2386028198193036 0  0.1742197252833576 0.2428413052501257 0  0.1807733240458683 0.2461555514727623 0  0.1877417105384929 0.2484740584176516 0  0.1949745518995776 0.2497468076502398 0  0.202315810036185 0.2499463414463592 0  0.2096071079201568 0.2490683551528932 0  0.2166911463435495 0.2471317900544655 0  0.2234150974215506 0.2441784247426195 0  0.2296339016331197 0.2402719738031125 0  0.2352133972703547 0.2354967132658811 0  0.2400332147833751 0.2299556624715287 0  0.2439893735792577 0.2237683615780412 0  0.246996525252926 0.2170682926548348 0  0.25645809709277 0.21 0  0.2639263993298655 0.21 0  0.271394701566961 0.21 0  0.2788630038040554 0.21 0  0.2863313060411479 0.21 0  0.2937996082782405 0.21 0  0.301267910515333 0.21 0  0.3087362127524279 0.21 0  0.3162045149895234 0.21 0  0.3236728172265972 0.21 0  0.3311411194636928 0.21 0  0.3386094217007701 0.21 0  0.3460777239378666 0.21 0  0.3535460261749672 0.21 0  0.3610143284120516 0.21 0  0.3684826306491596 0.21 0  0.3759509328862226 0.21 0  0.383419235123329 0.21 0  0.3908875373604028 0.21 0  0.3983558395975142 0.21 0  0.4058241418345938 0.21 0  0.4132924440716992 0.21 0  0.4207607463087888 0.21 0  0.4282290485459029 0.21 0  0.4356973507830418 0.21 0  0.4431656530201649 0.21 0  0.4506339552573136 0.21 0  0.4581022574944306 0.21 0  0.4655705597315852 0.21 0  0.4730388619686996 0.21 0  0.480507164205851 0.21 0  0.4879754664429498 0.21 0  0.4954437686800938 0.21 0  0.502912070917267 0.21 0  0.5103803731544119 0.21 0  0.5178486753915261 0.21 0  0.5253169776286404 0.21 0  0.5327852798657868 0.21 0  0.5402535821029386 0.21 0  0.54772188434007 0.21 0  0.5551901865771842 0.21 0  0.5626584888143201 0.21 0  0.5701267910514778 0.21 0  0.5775950932886138 0.21 0  0.5850633955257281 0.21 0  0.5925316977628483 0.21 0  0.6 0.2050000000000054 0  0.6 0.1950000000000217 0  0.5925316977628897 0.19 0  0.5850633955257988 0.19 0  0.5775950932887378 0.19 0  0.5701267910515998 0.19 0  0.5626584888145268 0.19 0  0.5551901865773963 0.19 0  0.547721884340339 0.19 0  0.5402535821032429 0.19 0  0.5327852798661811 0.19 0  0.5253169776290537 0.19 0  0.5178486753919799 0.19 0  0.5103803731549078 0.19 0  0.502912070917822 0.19 0  0.4954437686807294 0.19 0  0.4879754664436223 0.19 0  0.4805071642065402 0.19 0  0.4730388619694271 0.19 0  0.4655705597323621 0.19 0  0.4581022574952563 0.19 0  0.4506339552581777 0.19 0  0.4431656530210671 0.19 0  0.4356973507839815 0.19 0  0.4282290485468779 0.19 0  0.4207607463097617 0.19 0  0.4132924440726327 0.19 0  0.4058241418354857 0.19 0  0.3983558395983636 0.19 0  0.3908875373612097 0.19 0  0.3834192351240934 0.19 0  0.3759509328869369 0.19 0  0.3684826306498175 0.19 0  0.361014328412667 0.19 0  0.3535460261755617 0.19 0  0.3460777239384295 0.19 0  0.3386094217012945 0.19 0  0.3311411194641595 0.19 0  0.3236728172270245 0.19 0  0.3162045149898895 0.19 0  0.3087362127527544 0.19 0  0.3012679105156187 0.19 0  0.2937996082784807 0.19 0  0.2863313060413428 0.19 0  0.2788630038042048 0.19 0  0.2713947015670686 0.19 0  0.2639263993299336 0.19 0  0.2564580970927985 0.19 0  0.2607803159922026 0.2000727136295815 0  0.5887803774232762 0.2001272386983733 0  0.5745072403740523 0.2002044435018727 0  0.5511891430099709 0.2001122610077113 0  0.2751288526855082 0.20000000000002 0  0.5365194309847112 0.1999999999999436 0  0.2894621222999649 0.1998691686390484 0  0.5215828265105155 0.1999999999999228 0  0.3127789816668748 0.1998657885438805 0  0.3274069683451451 0.2000000000000796 0  0.5066462220363641 0.199999999999908 0  0.3650630746574081 0.199866017807523 0  0.476773013087985 0.1999999999998713 0  0.3417402379596385 0.1998691686391011 0  0.3796850840047755 0.200000000000134 0  0.4618364086138087 0.1999999999998546 0  0.4917096175621762 0.1999999999998808 0  0.3946216884789568 0.2000000000001512 0  0.446899804139621 0.1999999999998389 0  0.4089549580935208 0.1998691686391595 0  0.4322718174608562 0.200127451265745 0  0.4201487168029707 0.1999966199048527 0  0.3528922713220932 0.2000185703532356 0  0.5633122436674589 0.1999814296467508 0  0.3006558810093873 0.1999966199048318 0  0.5815926498168407 0.1966545283159175 0  0.2677053789419034 0.1964246479135325 0  0.5290511287476175 0.1970915826863981 0  0.5439877332217911 0.197091582686394 0  0.2825131256993216 0.2035478995978015 0  0.3199386661080599 0.202908417313604 0  0.4842413153250809 0.1970915826863873 0  0.5141145242734466 0.1970915826863843 0  0.3722167817676917 0.2029084173136195 0  0.4693047108508938 0.1970915826863783 0  0.3348752705822316 0.202908417313609 0  0.3871533862418661 0.2029084173136212 0  0.4543681063767183 0.1970915826863795 0  0.4991779197992749 0.1970915826863902 0  0.4020059614928624 0.203547899597858 0  0.4394315019025246 0.1970915826863714 0  0.2550657455369551 0.2034088125358657 0  0.2548908499171161 0.1966940311614271 0  0.5946539510196798 0.2024302972968126 0  0.267698176732111 0.2039977513680092 0  0.4261685417851465 0.196409292431739 0  0.3590076176283495 0.196411355804271 0  0.5571672426447437 0.2036011176410121 0  0.3066757059912147 0.1964092924317024 0  0.594380730180568 0.1966558399668133 0  0.4842413153245942 0.2040749161535287 0  0.4693047108503577 0.2040749161535231 0  0.3871533862424271 0.1959250838464788 0  0.372246743208829 0.1959123236376545 0  0.5141145242731028 0.2040749161535395 0  0.4543681063761134 0.2040749161535186 0  0.4019979587101454 0.1959834479682427 0  0.4394608940728603 0.2040870543693135 0  0.5439623148931173 0.2040856076781014 0  0.5290511287473298 0.2040749161535501 0  0.4991779197988497 0.2040749161535382 0  0.3347912413592433 0.1959225448935183 0  0.3199680582793816 0.1959123018030061 0  0.2825051229162361 0.1959834479681729 0  0.3590471196690275 0.2036304442587945 0  0.5571594006495384 0.1963685282145804 0  0.3067669986803285 0.203627750582736 0  0.4262598344738712 0.2036568242185335 0  0.5814408164431408 0.2041285596160068 0  0.5688286748170428 0.1961819304477386 0  0.4145905603063645 0.2038180695522843 0  0.3473758401724931 0.2038180695522752 0  0.2950977245128307 0.2038180695522663 0  0.5688286748170693 0.203818069552238 0  0.2950977245127906 0.1961819304477774 0  0.3473758401723931 0.1961819304478349 0  0.4145905603061963 0.1961819304479011 0  0.2601812407614425 0.2056861609747042
[...]
<PointData  Vectors="f_40-0"> 
<DataArray  type="Float64"  Name="f_40-0"  NumberOfComponents="3" format="ascii">0.0000000000000000e+00 0.0000000000000000e+00 0.0000000000000000e+00  0.0000000000000000e+00 0.0000000000000000e+00 0.0000000000000000e+00  0.0000000000000000e+00 0.0000000000000000e+00 0.0000000000000000e+00  0.0000000000000000e+00 0.0000000000000000e+00 0.0000000000000000e+00  -2.5023045737653147e-05 -8.2834446423348429e-05 0.0000000000000000e+00  -1.7846046544564886e-05 -8.8955201969576213e-05 0.0000000000000000e+00  0.0000000000000000e+00 0.0000000000000000e+00 0.0000000000000000e+00  0.0000000000000000e+00 0.0000000000000000e+00 0.0000000000000000e+00  0.0000000000000000e+00 0.0000000000000000e+00 0.0000000000000000e+00  0.0000000000000000e+00 0.0000000000000000e+00 0.0000000000000000e+00  -2.1859044962040159e-05 -8.5898417909431653e-05 0.0000000000000000e+00  1.2862690612733988e-02 0.0000000000000000e+00 0.0000000000000000e+00  2.3746505746587401e-02 0.0000000000000000e+00 0.0000000000000000e+00  3.2651445401557677e-02 0.0000000000000000e+00 0.0000000000000000e+00  3.9577509577655143e-02 0.0000000000000000e+00 0.0000000000000000e+00  4.4524698274878878e-02 0.0000000000000000e+00 0.0000000000000000e+00  4.7493011493228605e-02 0.0000000000000000e+00 0.0000000000000000e+00  4.8482449232701334e-02 0.0000000000000000e+00 0.0000000000000000e+00  4.7493011493288613e-02 0.0000000000000000e+00 0.0000000000000000e+00  4.4524698274981962e-02 0.0000000000000000e+00 0.0000000000000000e+00  3.9577509577782805e-02 0.0000000000000000e+00 0.0000000000000000e+00  3.2651445401678955e-02 0.0000000000000000e+00 0.0000000000000000e+00  2.3746505746690891e-02 0.0000000000000000e+00 0.0000000000000000e+00  1.2862690612792301e-02 0.0000000000000000e+00 0.0000000000000000e+00  0.0000000000000000e+00 0.0000000000000000e+00 0.0000000000000000e+00  0.0000000000000000e+00 0.0000000000000000e+00 0.0000000000000000e+00  0.0000000000000000e+00 0.0000000000000000e+00 0.0000000000000000e+00  0.0000000000000000e+00 0.0000000000000000e+00 0.0000000000000000e+00  0.0000000000000000e+00 0.0000000000000000e+00 0.0000000000000000e+00  0.0000000000000000e+00 0.0000000000000000e+00 0.0000000000000000e+00  0.0000000000000000e+00 0.0000000000000000e+00 0.0000000000000000e+00  0.0000000000000000e+00 0.0000000000000000e+00 0.0000000000000000e+00  0.0000000000000000e+00 0.0000000000000000e+00 0.0000000000000000e+00  0.0000000000000000e+00 0.0000000000000000e+00 0.0000000000000000e+00  0.0000000000000000e+00 0.0000000000000000e+00 0.0000000000000000e+00  0.0000000000000000e+00 0.0000000000000000e+00 0.0000000000000000e+00  0.0000000000000000e+00 0.0000000000000000e+00 0.0000000000000000e+00  0.0000000000000000e+00 0.0000000000000000e+00 0.0000000000000000e+00  0.0000000000000000e+00 0.0000000000000000e+00 0.0000000000000000e+00  0.0000000000000000e+00 0.0000000000000000e+00 0.0000000000000000e+00  0.0000000000000000e+00 0.0000000000000000e+00 0.0000000000000000e+00  0.0000000000000000e+00 0.0000000000000000e+00 0.0000000000000000e+00  0.0000000000000000e+00 0.0000000000000000e+00 0.0000000000000000e+00  0.0000000000000000e+00 0.0000000000000000e+00 0.0000000000000000e+00  0.0000000000000000e+00 0.0000000000000000e+00 0.0000000000000000e+00  0.0000000000000000e+00 0.0000000000000000e+00 0.0000000000000000e+00  0.0000000000000000e+00 0.0000000000000000e+00 0.0000000000000000e+00  0.0000000000000000e+00 0.0000000000000000e+00 0.0000000000000000e+00  0.0000000000000000e+00 0.0000000000000000e+00 0.0000000000000000e+00  0.0000000000000000e+00 0.0000000000000000e+00 0.0000000000000000e+00  0.0000000000000000e+00 0.0000000000000000e+00 0.0000000000000000e+00  0.0000000000000000e+00 0.0000000000000000e+00 0.0000000000000000e+00  0.0000000000000000e+00 0.0000000000000000e+00 0.0000000000000000e+00  0.0000000000000000e+00 0.0000000000000000e+00 0.0000000000000000e+00  0.0000000000000000e+00 0.0000000000000000e+00 0.0000000000000000e+00  0.0000000000000000e+00 0.0000000000000000e+00 0.0000000000000000e+00  0.0000000000000000e+00 0.0000000000000000e+00 0.0000000000000000e+00  0.0000000000000000e+00 0.0000000000000000e+00 0.0000000000000000e+00  0.0000000000000000e+00 0.0000000000000000e+00 0.0000000000000000e+00  0.0000000000000000e+00 0.0000000000000000e+00 0.0000000000000000e+00  0.0000000000000000e+00 0.0000000000000000e+00 0.0000000000000000e+00  0.0000000000000000e+00 0.0000000000000000e+00 0.0000000000000000e+00  4.6321970460192638e-02 1.9915617352207573e-03 0.0000000000000000e+00  3.2681847145329040e-02 -3.3894363282853640e-04 0.0000000000000000e+00  4.6561432172065154e-02 -2.5037290764797974e-03 0.0000000000000000e+00  0.0000000000000000e+00 0.0000000000000000e+00 0.0000000000000000e+00  0.0000000000000000e+00 0.0000000000000000e+00 0.0000000000000000e+00  0.0000000000000000e+00 0.0000000000000000e+00 0.0000000000000000e+00  0.0000000000000000e+00 0.0000000000000000e+00 0.0000000000000000e+00  0.0000000000000000e+00 0.0000000000000000e+00 0.0000000000000000e+00  0.0000000000000000e+00 0.0000000000000000e+00 0.0000000000000000e+00  0.0000000000000000e+00 0.0000000000000000e+00 0.0000000000000000e+00  0.0000000000000000e+00 0.0000000000000000e+00 0.0000000000000000e+00  0.0000000000000000e+00 0.0000000000000000e+00 0.0000000000000000e+00  0.0000000000000000e+00 0.0000000000000000e+00 0.0000000000000000e+00  0.0000000000000000e+00 0.0000000000000000e+00 0.0000000000000000e+00  0.0000000000000000e+00 0.0000000000000000e+00 0.0000000000000000e+00  0.0000000000000000e+00 0.0000000000000000e+00 0.0000000000000000e+00  0.0000000000000000e+00 0.0000000000000000e+00 0.0000000000000000e+00  0.0000000000000000e+00 0.0000000000000000e+00 0.0000000000000000e+00  0.0000000000000000e+00 0.0000000000000000e+00 0.0000000000000000e+00  0.0000000000000000e+00 0.0000000000000000e+00 0.0000000000000000e+00  0.0000000000000000e+00 0.0000000000000000e+00 0.0000000000000000e+00  0.0000000000000000e+00 0.0000000000000000e+00 0.0000000000000000e+00  0.0000000000000000e+00 0.0000000000000000e+00 0.0000000000000000e+00  0.0000000000000000e+00 0.0000000000000000e+00 0.0000000000000000e+00  0.0000000000000000e+00 0.0000000000000000e+00 0.0000000000000000e+00  0.0000000000000000e+00 0.0000000000000000e+00 0.0000000000000000e+00  0.0000000000000000e+00 0.0000000000000000e+00 0.0000000000000000e+00  0.0000000000000000e+00 0.0000000000000000e+00 0.0000000000000000e+00  0.0000000000000000e+00 0.0000000000000000e+00 0.0000000000000000e+00  0.0000000000000000e+00 0.0000000000000000e+00 0.0000000000000000e+00  0.0000000000000000e+00 0.0000000000000000e+00 0.0000000000000000e+00  0.0000000000000000e+00 0.0000000000000000e+00 0.0000000000000000e+00  0.0000000000000000e+00 0.0000000000000000e+00 0.0000000000000000e+00  0.0000000000000000e+00 0.0000000000000000e+00 0.0000000000000000e+00  0.0000000000000000e+00 0.0000000000000000e+00 0.0000000000000000e+00  0.0000000000000000e+00 0.0000000000000000e+00 0.0000000000000000e+00  0.0000000000000000e+00 0.0000000000000000e+00 0.0000000000000000e+00  0.0000000000000000e+00 0.0000000000000000e+00 0.0000000000000000e+00  0.0000000000000000e+00 0.0000000000000000e+00 0.0000000000000000e+00  0.0000000000000000e+00 0.0000000000000000e+00 0.0000000000000000e+00  0.0000000000000000e+00 0.0000000000000000e+00 0.0000000000000000e+00  0.0000000000000000e+00 0.0000000000000000e+00 0.0000000000000000e+00  0.0000000000000000e+00 0.0000000000000000e+00 0.0000000000000000e+00  0.0000000000000000e+00 0.0000000000000000e+00 0.0000000000000000e+00  0.0000000000000000e+00 0.0000000000000000e+00 0.0000000000000000e+00  0.0000000000000000e+00 0.0000000000000000e+00 0.0000000000000000e+00  0.0000000000000000e+00 0.0000000000000000e+00 0.0000000000000000e+00  0.0000000000000000e+00 0.0000000000000000e+00 0.0000000000000000e+00  0.0000000000000000e+00 0.0000000000000000e+00 0.0000000000000000e+00  0.0000000000000000e+00 0.0000000000000000e+00 0.0000000000000000e+00  0.0000000000000000e+00 0.0000000000000000e+00 0.0000000000000000e+00  0.0000000000000000e+00 0.0000000000000000e+00 0.0000000000000000e+00  0.0000000000000000e+00 0.0000000000000000e+00 0.0000000000000000e+00  0.0000000000000000e+00 0.0000000000000000e+00 0.0000000000000000e+00  0.0000000000000000e+00 0.0000000000000000e+00 0.0000000000000000e+00  0.0000000000000000e+00 0.0000000000000000e+00 0.0000000000000000e+00  0.0000000000000000e+00 0.0000000000000000e+00 0.0000000000000000e+00  0.0000000000000000e+00 0.0000000000000000e+00 0.0000000000000000e+00  0.0000000000000000e+00 0.0000000000000000e+00 0.0000000000000000e+00  0.0000000000000000e+00 0.0000000000000000e+00 0.0000000000000000e+00  0.0000000000000000e+00 0.0000000000000000e+00 0.0000000000000000e+00  0.0000000000000000e+00 0.0000000000000000e+00 0.0000000000000000e+00  0.0000000000000000e+00 0.0000000000000000e+00 0.0000000000000000e+00  0.0000000000000000e+00 0.0000000000000000e+00 0.0000000000000000e+00  0.0000000000000000e+00 0.0000000000000000e+00 0.0000000000000000e+00  0.0000000000000000e+00 0.0000000000000000e+00 0.0000000000000000e+00  0.0000000000000000e+00 0.0000000000000000e+00 0.0000000000000000e+00  0.0000000000000000e+00 0.0000000000000000e+00 0.0000000000000000e+00  0.0000000000000000e+00 0.0000000000000000e+00 0.0000000000000000e+00  0.0000000000000000e+00 0.0000000000000000e+00 0.0000000000000000e+00  0.0000000000000000e+00 0.0000000000000000e+00 0.0000000000000000e+00  0.0000000000000000e+00 0.0000000000000000e+00 0.0000000000000000e+00  0.0000000000000000e+00 0.0000000000000000e+00 0.0000000000000000e+00  0.0000000000000000e+00 0.0000000000000000e+00 0.0000000000000000e+00  0.0000000000000000e+00 0.0000000000000000e+00 0.0000000000000000e+00  0.0000000000000000e+00 0.0000000000000000e+00 0.0000000000000000e+00  0.0000000000000000e+00 0.0000000000000000e+00 0.0000000000000000e+00  0.0000000000000000e+00 0.0000000000000000e+00 0.0000000000000000e+00  0.0000000000000000e+00 0.0000000000000000e+00 0.0000000000000000e+00  0.0000000000000000e+00 0.0000000000000000e+00 0.0000000000000000e+00  0.0000000000000000e+00 0.0000000000000000e+00 0.0000000000000000e+00  1.3225493715763799e-07 -5.3502420267891499e-06 0.0000000000000000e+00  4.4502918247244783e-07 -5.9143535452933716e-06 0.0000000000000000e+00  1.0046859729529265e-06 -6.2920774180243432e-06 0.0000000000000000e+00  1.6930831400238554e-06 -6.6272777708057745e-06 0.0000000000000000e+00  2.3802028147349094e-06 -7.0641111559762560e-06 0.0000000000000000e+00  3.0364503755244173e-06 -7.6684557936408113e-06 0.0000000000000000e+00  3.6282526827765845e-06 -8.3555591190186522e-06 0.0000000000000000e+00  4.1606894550623393e-06 -9.1636597885664281e-06 0.0000000000000000e+00  4.6798583715002083e-06 -1.0067068131179681e-05 0.0000000000000000e+00  5.1073998460796025e-06 -1.1053983835709118e-05 0.0000000000000000e+00  5.5170325621610667e-06 -1.2161070170721180e-05 0.0000000000000000e+00  5.8393440934166918e-06 -1.3333366385414564e-05 0.0000000000000000e+00  6.1275505719218412e-06 -1.4606261541948059e-05 0.0000000000000000e+00  6.3488038504562783e-06 -1.5956262879563696e-05 0.0000000000000000e+00  6.5060189943261324e-06 -1.7387708781839564e-05 0.0000000000000000e+00  6.6408811585557534e-06 -1.8904557286390450e-05 0.0000000000000000e+00  6.6874652813888251e-06 -2.0467605655368853e-05 0.0000000000000000e+00  6.7021618493652389e-06 -2.2138145398843783e-05 0.0000000000000000e+00  6.6359590713089925e-06 -2.3838019884819375e-05 0.0000000000000000e+00  6.5375439188164567e-06 -2.5636928387995454e-05 0.0000000000000000e+00  6.3637916530815465e-06 -2.7463313085892980e-05 0.0000000000000000e+00  6.1390180366760041e-06 -2.9370147580160540e-05 0.0000000000000000e+00  5.8587579986003372e-06 -3.1326256757638017e-05 0.0000000000000000e+00  5.5135836155486575e-06 -3.3331117834478526e-05 0.0000000000000000e+00  5.1364126898378963e-06 -3.5399279068787872e-05 0.0000000000000000e+00  4.6850595535522311e-06 -3.7487300289708750e-05 0.0000000000000000e+00  4.1761156966820020e-06 -3.9662234183070519e-05 0.0000000000000000e+00  3.6104146340623197e-06 -4.1839641387292822e-05 0.0000000000000000e+00  2.9871007952043998e-06 -4.4092031992065441e-05 0.0000000000000000e+00  2.3064609085212788e-06 -4.6352025869212554e-05 0.0000000000000000e+00  1.5713773899599894e-06 -4.8676541631979880e-05 0.0000000000000000e+00  7.7389297523234870e-07 -5.1003244689374874e-05 0.0000000000000000e+00  -7.2949812934235791e-08 -5.3394070193628902e-05 0.0000000000000000e+00  -9.8441369323471756e-07 -5.5773781015532673e-05 0.0000000000000000e+00  -1.9555813578633379e-06 -5.8220557561199123e-05 0.0000000000000000e+00  -2.9830274265332824e-06 -6.0656178205803673e-05 0.0000000000000000e+00  -4.0653579500586200e-06 -6.3146705879336802e-05 0.0000000000000000e+00  -5.2068141826886876e-06 -6.5624806537157069e-05 0.0000000000000000e+00  -6.4068455064867499e-06 -6.8152040501511833e-05 0.0000000000000000e+00  -7.6699261056696407e-06 -7.0665129377242049e-05 0.0000000000000000e+00  -8.9953181603579577e-06 -7.3211609291129175e-05 0.0000000000000000e+00  -1.0371182796747470e-05 -7.5755979921548184e-05 0.0000000000000000e+00  -1.1816358016109434e-05 -7.8319721670452069e-05 0.0000000000000000e+00  -1.3295016613786343e-05 -8.0885044213798850e-05 0.0000000000000000e+00  -1.4840376028985525e-05 -8.3440124326831966e-05 0.0000000000000000e+00  -1.6395286834048034e-05 -8.6061529765564670e-05 0.0000000000000000e+00  -2.0001683389740170e-05 -8.7414781572290909e-05 0.0000000000000000e+00  -2.3562865859183413e-05 -8.4382890109849373e-05 0.0000000000000000e+00  -2.3537147745521917e-05 -8.0395776074836602e-05 0.0000000000000000e+00  -2.1955716205185645e-05 -7.7678125817866078e-05 0.0000000000000000e+00  -2.0383528452977959e-05 -7.4931566088438134e-05 0.0000000000000000e+00  -1.8873206980122004e-05 -7.2213568117182361e-05 0.0000000000000000e+00  -1.7399172308299255e-05 -6.9506046117656143e-05 0.0000000000000000e+00  -1.5995171919278040e-05 -6.6812108466198029e-05 0.0000000000000000e+00  -1.4631044084302843e-05 -6.4135204118423927e-05 0.0000000000000000e+00  -1.3333280026255506e-05 -6.1458895547711773e-05 0.0000000000000000e+00  -1.2081690292715919e-05 -5.8824162995634274e-05 0.0000000000000000e+00  -1.0890703824216657e-05 -5.6177944288088113e-05 0.0000000000000000e+00  -9.7462122607151872e-06 -5.3580628682941046e-05 0.0000000000000000e+00  -8.6625369403642083e-06 -5.0977926611860846e-05 0.0000000000000000e+00  -7.6226030443667544e-06 -4.8428531448241552e-05 0.0000000000000000e+00  -6.6431250050969674e-06 -4.5877361413308509e-05 0.0000000000000000e+00  -5.7052600186357989e-06 -4.3384166237511722e-05 0.0000000000000000e+00  -4.8293032228900755e-06 -4.0893272935799927e-05 0.0000000000000000e+00  -3.9936543576385340e-06 -3.8462691047332847e-05 0.0000000000000000e+00  -3.2221936509808920e-06 -3.6039445481929616e-05 0.0000000000000000e+00  -2.4886606165868010e-06 -3.3684267465488672e-05 0.0000000000000000e+00  -1.8187526633082103e-06 -3.1341766722329971e-05 0.0000000000000000e+00  -1.1837953126760440e-06 -2.9070742959374667e-05 0.0000000000000000e+00  -6.1479697191421425e-07 -2.6818529514151245e-05 0.0000000000000000e+00  -8.7786042034095627e-08 -2.4631245856672157e-05 0.0000000000000000e+00  3.8739553271334794e-07 -2.2487057815704427e-05 0.0000000000000000e+00  8.0030960190608923e-07 -2.0402521312876682e-05 0.0000000000000000e+00  1.1940772094459027e-06 -1.8373082534032321e-05 0.0000000000000000e+00  1.5186691075196797e-06 -1.6387469078788295e-05 0.0000000000000000e+00  1.8027040207403037e-06 -1.4494949319378363e-05 0.0000000000000000e+00  2.0295386205179409e-06 -1.2630323858635557e-05 0.0000000000000000e+00  2.2134249233432573e-06 -1.0869301134590724e-05 0.0000000000000000e+00  2.3419382832336613e-06 -9.1409327990045597e-06 0.0000000000000000e+00  2.4301082619038579e-06 -7.5211093430105028e-06 0.0000000000000000e+00  2.4676526744316037e-06 -5.9509036330149552e-06 0.0000000000000000e+00  2.4479141944297357e-06 -4.4832410611588766e-06 0.0000000000000000e+00  2.4145923813810313e-06 -3.0808032099060287e-06 0.0000000000000000e+00  2.3142874391676654e-06 -1.7681867385454848e-06 0.0000000000000000e+00  2.1767823648881886e-06 -5.6825653048767762e-07 0.0000000000000000e+00  1.9855931673782061e-06 5.6159566515701259e-07 0.0000000000000000e+00  1.7628447434112763e-06 1.5680463144026870e-06 0.0000000000000000e+00  1.4867328174284854e-06 2.4919821106096508e-06 0.0000000000000000e+00  1.1574280128579543e-06 3.2923893353490292e-06 0.0000000000000000e+00  8.2845228410109244e-07 3.9959337948964934e-06 0.0000000000000000e+00  4.2847234608493465e-07 4.6239837032695038e-06 0.0000000000000000e+00  8.3129964079201080e-08 5.1143282099081189e-06 0.0000000000000000e+00  -1.8348377490620411e-07 5.3186758570411586e-06 0.0000000000000000e+00  -1.7839699219982752e-07 5.0856898709834740e-06 0.0000000000000000e+00  -9.4175428432142423e-07 -1.5827615284887437e-07 0.0000000000000000e+00  -1.9276801787415039e-05 -8.1914806953538836e-05 0.0000000000000000e+00  -1.6179341450785271e-05 -7.6867147623494220e-05 0.0000000000000000e+00  -1.1764771573431267e-05 -6.8638132978639455e-05 0.0000000000000000e+00  7.5057750587771046e-07 -7.0590962846252157e-07 0.0000000000000000e+00  -9.2967690242225545e-06 -6.3500949368612382e-05 0.0000000000000000e+00  1.7848128115737967e-06 -1.6454545284899564e-06 0.0000000000000000e+00  -6.9595901166234022e-06 -5.8373665409964669e-05 0.0000000000000000e+00  3.1178205230797181e-06 -4.1644174209316748e-06 0.0000000000000000e+00  3.7426743799086170e-06 -6.3162116295420074e-06 0.0000000000000000e+00  -4.8446859274597185e-06 -5.3331541978814050e-05 0.0000000000000000e+00  4.4243257992000550e-06 -1.3179809560707690e-05 0.0000000000000000e+00  -1.2746519553700993e-06 -4.3569111848658111e-05 0.0000000000000000e+00  4.1453510489106346e-06 -8.6311781912864630e-06 0.0000000000000000e+00  4.3705294098792687e-06 -1.6473408377038677e-05 0.0000000000000000e+00  1.8376012980606410e-07 -3.8884120507080310e-05 0.0000000000000000e+00  -2.9500557436674188e-06 -4.8390497612139227e-05 0.0000000000000000e+00  4.0878673910799720e-06 -2.0039171392263492e-05 0.0000000000000000e+00  1.4258567603217569e-06 -3.4356963729897847e-05 0.0000000000000000e+00  3.5890828636193419e-06 -2.3637074758175010e-05 0.0000000000000000e+00  2.4760333801203033e-06 -3.0148818055926530e-05 0.0000000000000000e+00  3.0997540495448878e-06 -2.6711269384594207e-05 0.0000000000000000e+00  4.3512816458413921e-06 -1.0797256694959224e-05 0.0000000000000000e+00  -1.4073528533267129e-05 -7.2850208101191697e-05 0.0000000000000000e+00  2.4745422794288023e-06 -2.8138936458983242e-06 0.0000000000000000e+00  -1.8925944976857340e-05 -7.8352392065165718e-05 0.0000000000000000e+00  -1.1148360725396575e-07 1.7681532682333107e-06 0.0000000000000000e+00  -9.0966488281581732e-06 -5.9928615863107683e-05 0.0000000000000000e+00  -1.1558172366117935e-05 -6.5130581466503508e-05 0.0000000000000000e+00  1.5550091793576041e-06 -3.1622286408665500e-06 0.0000000000000000e+00  3.8635947442059003e-06 -6.7509318835268940e-06 0.0000000000000000e+00  -3.0220221214810987e-06 -4.4847121340222307e-05 0.0000000000000000e+00  -6.8544291302064833e-06 -5.4802062938791665e-05 0.0000000000000000e+00  5.0736376942925802e-06 -1.6203961534097207e-05 0.0000000000000000e+00  -1.4281204289072863e-06 -4.0052241222816551e-05 0.0000000000000000e+00  4.4646224997153574e-06 -9.0263030068345074e-06 0.0000000000000000e+00  4.9445382410622111e-06 -1.9601342877632178e-05 0.0000000000000000e+00  -4.7903189750924089e-08 -3.5405182625046796e-05 0.0000000000000000e+00  -4.8304796948162551e-06 -4.9768860660255922e-05 0.0000000000000000e+00  4.7733030870676495e-06 -2.3531699340566399e-05 0.0000000000000000e+00  1.1216806441142627e-06 -3.0926505757779673e-05 0.0000000000000000e+00  -1.0446453295361951e-06 -1.2858334375315776e-06 0.0000000000000000e+00  -1.0767221037806417e-06 1.1128596835439658e-06 0.0000000000000000e+00  -1.9780557073369608e-05 -8.4670978803006488e-05 0.0000000000000000e+00  2.0719831022635988e-