<?xml version="1.0"?>
<VTKFile type="UnstructuredGrid"  version="0.1"  >
<UnstructuredGrid>
<Piece  NumberOfPoints="1419" NumberOfCells="2698">
<Points>
<DataArray  type="Float64"  NumberOfComponents="3"  format="ascii">0 0 0  0 0.41 0  2.5 0 0  2.5 0.41 0  0.6 0.19 0  0.6 0.21 0  0.25 0.2 0  0.15 0.2 0  0.2489897948556636 0.21 0  0.2489897948556636 0.19 0  0.6 0.2 0  0 0.3807142857143437 0  0 0.3514285714286952 0  0 0.3221428571430699 0  0 0.29285714285744 0  0 0.2635714285718054 0  0 0.2342857142861561 0  0 0.2050000000005308 0  0 0.175714285714732 0  0 0.1464285714289574 0  0 0.1171428571431897 0  0 0.08785714285737878 0  0 0.05857142857161107 0  0 0.02928571428580012 0  0.03015443760436003 0 0  0.06140001986583606 0 0  0.09377624077125973 0 0  0.1273239957535082 0 0  0.1620856860351972 0 0  0.1981052433264291 0 0  0.235428184091502 0 0  0.2741016576309132 0 0  0.3141745521465447 0 0  0.3556974926295285 0 0  0.3987229542472677 0 0  0.4433053055141081 0 0  0.4895008759286886 0 0  0.5373680609405097 0 0  0.5869673343216626 0 0  0.6383613676634521 0 0  0.6916151138468254 0 0  0.7467958595648856 0 0  0.8039733463919316 0 0  0.8632198139502143 0 0  0.9246101326867038 0 0  0.9882218810934433 0 0  1.054135445558498 0 0  1.122434100542598 0 0  1.193204177141305 0 0  1.266535089879536 0 0  1.342519516046404 0 0  1.421253448503939 0 0  1.502836389106271 0 0  1.587371439758838 0 0  1.674965418777374 0 0  1.765729001825544 0 0  1.859776908880082 0 0  1.957227977487062 0 0  2.058205329869943 0 0  2.162836591189951 0 0  2.271253957290865 0 0  2.383594446803425 0 0  2.5 0.1024999999997612 0  2.5 0.2049999999994743 0  2.5 0.3074999999997183 0  2.383594446803656 0.41 0  2.271253957291315 0.41 0  2.162836591190598 0.41 0  2.058205329870775 0.41 0  1.957227977488067 0.41 0  1.859776908881246 0.41 0  1.765729001826854 0.41 0  1.674965418778818 0.41 0  1.58737143976041 0.41 0  1.502836389107956 0.41 0  1.421253448505726 0.41 0  1.342519516048286 0.41 0  1.266535089881505 0.41 0  1.193204177143353 0.41 0  1.122434100544716 0.41 0  1.05413544556068 0.41 0  0.9882218810956305 0.41 0  0.9246101326886647 0.41 0  0.8632198139519631 0.41 0  0.8039733463934788 0.41 0  0.7467958595662458 0.41 0  0.6916151138480078 0.41 0  0.6383613676644679 0.41 0  0.5869673343225223 0.41 0  0.5373680609412221 0.41 0  0.4895008759292634 0.41 0  0.4433053055145528 0.41 0  0.3987229542475914 0.41 0  0.3556974926297398 0.41 0  0.3141745521466497 0.41 0  0.2741016576310038 0.41 0  0.2354281840915826 0.41 0  0.1981052433265003 0.41 0  0.1620856860352591 0.41 0  0.1273239957535623 0.41 0  0.09377624077128965 0.41 0  0.06140001986584975 0.41 0  0.03015443760436654 0.41 0  0.2497468076502589 0.2050254481002335 0  0.2497468076502614 0.1949745518997913 0  0.2469965252529372 0.1829317073451959 0  0.2439893735792749 0.1762316384219906 0  0.2400332147834255 0.1700443375285386 0  0.2352133972704371 0.1645032867342007 0  0.2296339016332438 0.1597280261969788 0  0.2234150974217223 0.1558215752574715 0  0.2166911463437691 0.1528682099456123 0  0.2096071079204251 0.1509316448471593 0  0.2023158100364996 0.1500536585536553 0  0.194974551899914 0.1502531923497262 0  0.1877417105387872 0.1515259415822739 0  0.1807733240461124 0.153844448527136 0  0.1742197252835808 0.15715869474974 0  0.1682222986673531 0.1613971801805478 0  0.162910430003803 0.1664684656256651 0  0.1583987151779087 0.1722631454351573 0  0.1547844879126891 0.178656207771761 0  0.1521457199348551 0.1855097315605723 0  0.1505393388476355 0.1926758619366523 0  0.1505393388476328 0.2073241380633295 0  0.1521457199348437 0.2144902684393899 0  0.1547844879126531 0.221343792228163 0  0.1583987151778488 0.2277368545647528 0  0.1629104300036858 0.2335315343742052 0  0.1682222986671726 0.2386028198193036 0  0.1742197252833576 0.2428413052501257 0  0.1807733240458683 0.2461555514727623 0  0.1877417105384929 0.2484740584176516 0  0.1949745518995776 0.2497468076502398 0  0.202315810036185 0.2499463414463592 0  0.2096071079201568 0.2490683551528932 0  0.2166911463435495 0.2471317900544655 0  0.2234150974215506 0.2441784247426195 0  0.2296339016331197 0.2402719738031125 0  0.2352133972703547 0.2354967132658811 0  0.2400332147833751 0.2299556624715287 0  0.2439893735792577 0.2237683615780412 0  0.246996525252926 0.2170682926548348 0  0.25645809709277 0.21 0  0.2639263993298655 0.21 0  0.271394701566961 0.21 0  0.2788630038040554 0.21 0  0.2863313060411479 0.21 0  0.2937996082782405 0.21 0  0.301267910515333 0.21 0  0.3087362127524279 0.21 0  0.3162045149895234 0.21 0  0.3236728172265972 0.21 0  0.3311411194636928 0.21 0  0.3386094217007701 0.21 0  0.3460777239378666 0.21 0  0.3535460261749672 0.21 0  0.3610143284120516 0.21 0  0.3684826306491596 0.21 0  0.3759509328862226 0.21 0  0.383419235123329 0.21 0  0.3908875373604028 0.21 0  0.3983558395975142 0.21 0  0.4058241418345938 0.21 0  0.4132924440716992 0.21 0  0.4207607463087888 0.21 0  0.4282290485459029 0.21 0  0.4356973507830418 0.21 0  0.4431656530201649 0.21 0  0.4506339552573136 0.21 0  0.4581022574944306 0.21 0  0.4655705597315852 0.21 0  0.4730388619686996 0.21 0  0.480507164205851 0.21 0  0.4879754664429498 0.21 0  0.4954437686800938 0.21 0  0.502912070917267 0.21 0  0.5103803731544119 0.21 0  0.5178486753915261 0.21 0  0.5253169776286404 0.21 0  0.5327852798657868 0.21 0  0.5402535821029386 0.21 0  0.54772188434007 0.21 0  0.5551901865771842 0.21 0  0.5626584888143201 0.21 0  0.5701267910514778 0.21 0  0.5775950932886138 0.21 0  0.5850633955257281 0.21 0  0.5925316977628483 0.21 0  0.6 0.2050000000000054 0  0.6 0.1950000000000217 0  0.5925316977628897 0.19 0  0.5850633955257988 0.19 0  0.5775950932887378 0.19 0  0.5701267910515998 0.19 0  0.5626584888145268 0.19 0  0.5551901865773963 0.19 0  0.547721884340339 0.19 0  0.5402535821032429 0.19 0  0.5327852798661811 0.19 0  0.5253169776290537 0.19 0  0.5178486753919799 0.19 0  0.5103803731549078 0.19 0  0.502912070917822 0.19 0  0.4954437686807294 0.19 0  0.4879754664436223 0.19 0  0.4805071642065402 0.19 0  0.4730388619694271 0.19 0  0.4655705597323621 0.19 0  0.4581022574952563 0.19 0  0.4506339552581777 0.19 0  0.4431656530210671 0.19 0  0.4356973507839815 0.19 0  0.4282290485468779 0.19 0  0.4207607463097617 0.19 0  0.4132924440726327 0.19 0  0.4058241418354857 0.19 0  0.3983558395983636 0.19 0  0.3908875373612097 0.19 0  0.3834192351240934 0.19 0  0.3759509328869369 0.19 0  0.3684826306498175 0.19 0  0.361014328412667 0.19 0  0.3535460261755617 0.19 0  0.3460777239384295 0.19 0  0.3386094217012945 0.19 0  0.3311411194641595 0.19 0  0.3236728172270245 0.19 0  0.3162045149898895 0.19 0  0.3087362127527544 0.19 0  0.3012679105156187 0.19 0  0.2937996082784807 0.19 0  0.2863313060413428 0.19 0  0.2788630038042048 0.19 0  0.2713947015670686 0.19 0  0.2639263993299336 0.19 0  0.2564580970927985 0.19 0  0.2607803159922026 0.2000727136295815 0  0.5887803774232762 0.2001272386983733 0  0.5745072403740523 0.2002044435018727 0  0.5511891430099709 0.2001122610077113 0  0.2751288526855082 0.20000000000002 0  0.5365194309847112 0.1999999999999436 0  0.2894621222999649 0.1998691686390484 0  0.5215828265105155 0.1999999999999228 0  0.3127789816668748 0.1998657885438805 0  0.3274069683451451 0.2000000000000796 0  0.5066462220363641 0.199999999999908 0  0.3650630746574081 0.199866017807523 0  0.476773013087985 0.1999999999998713 0  0.3417402379596385 0.1998691686391011 0  0.3796850840047755 0.200000000000134 0  0.4618364086138087 0.1999999999998546 0  0.4917096175621762 0.1999999999998808 0  0.3946216884789568 0.2000000000001512 0  0.446899804139621 0.1999999999998389 0  0.4089549580935208 0.1998691686391595 0  0.4322718174608562 0.200127451265745 0  0.4201487168029707 0.1999966199048527 0  0.3528922713220932 0.2000185703532356 0  0.5633122436674589 0.1999814296467508 0  0.3006558810093873 0.1999966199048318 0  0.5815926498168407 0.1966545283159175 0  0.2677053789419034 0.1964246479135325 0  0.5290511287476175 0.1970915826863981 0  0.5439877332217911 0.197091582686394 0  0.2825131256993216 0.2035478995978015 0  0.3199386661080599 0.202908417313604 0  0.4842413153250809 0.1970915826863873 0  0.5141145242734466 0.1970915826863843 0  0.3722167817676917 0.2029084173136195 0  0.4693047108508938 0.1970915826863783 0  0.3348752705822316 0.202908417313609 0  0.3871533862418661 0.2029084173136212 0  0.4543681063767183 0.1970915826863795 0  0.4991779197992749 0.1970915826863902 0  0.4020059614928624 0.203547899597858 0  0.4394315019025246 0.1970915826863714 0  0.2550657455369551 0.2034088125358657 0  0.2548908499171161 0.1966940311614271 0  0.5946539510196798 0.2024302972968126 0  0.267698176732111 0.2039977513680092 0  0.4261685417851465 0.196409292431739 0  0.3590076176283495 0.196411355804271 0  0.5571672426447437 0.2036011176410121 0  0.3066757059912147 0.1964092924317024 0  0.594380730180568 0.1966558399668133 0  0.4842413153245942 0.2040749161535287 0  0.4693047108503577 0.2040749161535231 0  0.3871533862424271 0.1959250838464788 0  0.372246743208829 0.1959123236376545 0  0.5141145242731028 0.2040749161535395 0  0.4543681063761134 0.2040749161535186 0  0.4019979587101454 0.1959834479682427 0  0.4394608940728603 0.2040870543693135 0  0.5439623148931173 0.2040856076781014 0  0.5290511287473298 0.2040749161535501 0  0.4991779197988497 0.2040749161535382 0  0.3347912413592433 0.1959225448935183 0  0.3199680582793816 0.1959123018030061 0  0.2825051229162361 0.1959834479681729 0  0.3590471196690275 0.2036304442587945 0  0.5571594006495384 0.1963685282145804 0  0.3067669986803285 0.203627750582736 0  0.4262598344738712 0.2036568242185335 0  0.5814408164431408 0.2041285596160068 0  0.5688286748170428 0.1961819304477386 0  0.4145905603063645 0.2038180695522843 0  0.3473758401724931 0.2038180695522752 0  0.2950977245128307 0.2038180695522663 0  0.5688286748170693 0.203818069552238 0  0.2950977245127906 0.1961819304477774 0  0.3473758401723931 0.1961819304478349 0  0.4145905603061963 0.1961819304479011 0  0.2601812407614425 0.2056861609747042
[...]
<PointData  Vectors="f_40-0"> 
<DataArray  type="Float64"  Name="f_40-0"  NumberOfComponents="3" format="ascii">0.0000000000000000e+00 0.0000000000000000e+00 0.0000000000000000e+00  0.0000000000000000e+00 0.0000000000000000e+00 0.0000000000000000e+00  0.0000000000000000e+00 0.0000000000000000e+00 0.0000000000000000e+00  0.0000000000000000e+00 0.0000000000000000e+00 0.0000000000000000e+00  -7.0931456062459352e-05 3.9395458811095570e-06 0.0000000000000000e+00  -7.0645586568918205e-05 -5.2399768313746767e-06 0.0000000000000000e+00  0.0000000000000000e+00 0.0000000000000000e+00 0.0000000000000000e+00  0.0000000000000000e+00 0.0000000000000000e+00 0.0000000000000000e+00  0.0000000000000000e+00 0.0000000000000000e+00 0.0000000000000000e+00  0.0000000000000000e+00 0.0000000000000000e+00 0.0000000000000000e+00  -7.0866779291522245e-05 -6.4237309133238652e-07 0.0000000000000000e+00  1.7674517866872785e-05 0.0000000000000000e+00 0.0000000000000000e+00  3.2629879138844231e-05 0.0000000000000000e+00 0.0000000000000000e+00  4.4866083815910823e-05 0.0000000000000000e+00 0.0000000000000000e+00  5.4383131898086736e-05 0.0000000000000000e+00 0.0000000000000000e+00  6.1181023385370730e-05 0.0000000000000000e+00 0.0000000000000000e+00  6.5259758277762391e-05 0.0000000000000000e+00 0.0000000000000000e+00  6.6619336575257648e-05 0.0000000000000000e+00 0.0000000000000000e+00  6.5259758277844859e-05 0.0000000000000000e+00 0.0000000000000000e+00  6.1181023385512367e-05 0.0000000000000000e+00 0.0000000000000000e+00  5.4383131898262146e-05 0.0000000000000000e+00 0.0000000000000000e+00  4.4866083816077472e-05 0.0000000000000000e+00 0.0000000000000000e+00  3.2629879138986431e-05 0.0000000000000000e+00 0.0000000000000000e+00  1.7674517866952907e-05 0.0000000000000000e+00 0.0000000000000000e+00  0.0000000000000000e+00 0.0000000000000000e+00 0.0000000000000000e+00  0.0000000000000000e+00 0.0000000000000000e+00 0.0000000000000000e+00  0.0000000000000000e+00 0.0000000000000000e+00 0.0000000000000000e+00  0.0000000000000000e+00 0.0000000000000000e+00 0.0000000000000000e+00  0.0000000000000000e+00 0.0000000000000000e+00 0.0000000000000000e+00  0.0000000000000000e+00 0.0000000000000000e+00 0.0000000000000000e+00  0.0000000000000000e+00 0.0000000000000000e+00 0.0000000000000000e+00  0.0000000000000000e+00 0.0000000000000000e+00 0.0000000000000000e+00  0.0000000000000000e+00 0.0000000000000000e+00 0.0000000000000000e+00  0.0000000000000000e+00 0.0000000000000000e+00 0.0000000000000000e+00  0.0000000000000000e+00 0.0000000000000000e+00 0.0000000000000000e+00  0.0000000000000000e+00 0.0000000000000000e+00 0.0000000000000000e+00  0.0000000000000000e+00 0.0000000000000000e+00 0.0000000000000000e+00  0.0000000000000000e+00 0.0000000000000000e+00 0.0000000000000000e+00  0.0000000000000000e+00 0.0000000000000000e+00 0.0000000000000000e+00  0.0000000000000000e+00 0.0000000000000000e+00 0.0000000000000000e+00  0.0000000000000000e+00 0.0000000000000000e+00 0.0000000000000000e+00  0.0000000000000000e+00 0.0000000000000000e+00 0.0000000000000000e+00  0.0000000000000000e+00 0.0000000000000000e+00 0.0000000000000000e+00  0.0000000000000000e+00 0.0000000000000000e+00 0.0000000000000000e+00  0.0000000000000000e+00 0.0000000000000000e+00 0.0000000000000000e+00  0.0000000000000000e+00 0.0000000000000000e+00 0.0000000000000000e+00  0.0000000000000000e+00 0.0000000000000000e+00 0.0000000000000000e+00  0.0000000000000000e+00 0.0000000000000000e+00 0.0000000000000000e+00  0.0000000000000000e+00 0.0000000000000000e+00 0.0000000000000000e+00  0.0000000000000000e+00 0.0000000000000000e+00 0.0000000000000000e+00  0.0000000000000000e+00 0.0000000000000000e+00 0.0000000000000000e+00  0.0000000000000000e+00 0.0000000000000000e+00 0.0000000000000000e+00  0.0000000000000000e+00 0.0000000000000000e+00 0.0000000000000000e+00  0.0000000000000000e+00 0.0000000000000000e+00 0.0000000000000000e+00  0.0000000000000000e+00 0.0000000000000000e+00 0.0000000000000000e+00  0.0000000000000000e+00 0.0000000000000000e+00 0.0000000000000000e+00  0.0000000000000000e+00 0.0000000000000000e+00 0.0000000000000000e+00  0.0000000000000000e+00 0.0000000000000000e+00 0.0000000000000000e+00  0.0000000000000000e+00 0.0000000000000000e+00 0.0000000000000000e+00  0.0000000000000000e+00 0.0000000000000000e+00 0.0000000000000000e+00  0.0000000000000000e+00 0.0000000000000000e+00 0.0000000000000000e+00  0.0000000000000000e+00 0.0000000000000000e+00 0.0000000000000000e+00  3.3536605596535767e-05 9.0269242674606567e-07 0.0000000000000000e+00  2.7756222395248186e-05 -9.4360986769139674e-08 0.0000000000000000e+00  3.2834204921070378e-05 -1.0664358401436297e-06 0.0000000000000000e+00  0.0000000000000000e+00 0.0000000000000000e+00 0.0000000000000000e+00  0.0000000000000000e+00 0.0000000000000000e+00 0.0000000000000000e+00  0.0000000000000000e+00 0.0000000000000000e+00 0.0000000000000000e+00  0.0000000000000000e+00 0.0000000000000000e+00 0.0000000000000000e+00  0.0000000000000000e+00 0.0000000000000000e+00 0.0000000000000000e+00  0.0000000000000000e+00 0.0000000000000000e+00 0.0000000000000000e+00  0.0000000000000000e+00 0.0000000000000000e+00 0.0000000000000000e+00  0.0000000000000000e+00 0.0000000000000000e+00 0.0000000000000000e+00  0.0000000000000000e+00 0.0000000000000000e+00 0.0000000000000000e+00  0.0000000000000000e+00 0.0000000000000000e+00 0.0000000000000000e+00  0.0000000000000000e+00 0.0000000000000000e+00 0.0000000000000000e+00  0.0000000000000000e+00 0.0000000000000000e+00 0.0000000000000000e+00  0.0000000000000000e+00 0.0000000000000000e+00 0.0000000000000000e+00  0.0000000000000000e+00 0.0000000000000000e+00 0.0000000000000000e+00  0.0000000000000000e+00 0.0000000000000000e+00 0.0000000000000000e+00  0.0000000000000000e+00 0.0000000000000000e+00 0.0000000000000000e+00  0.0000000000000000e+00 0.0000000000000000e+00 0.0000000000000000e+00  0.0000000000000000e+00 0.0000000000000000e+00 0.0000000000000000e+00  0.0000000000000000e+00 0.0000000000000000e+00 0.0000000000000000e+00  0.0000000000000000e+00 0.0000000000000000e+00 0.0000000000000000e+00  0.0000000000000000e+00 0.0000000000000000e+00 0.0000000000000000e+00  0.0000000000000000e+00 0.0000000000000000e+00 0.0000000000000000e+00  0.0000000000000000e+00 0.0000000000000000e+00 0.0000000000000000e+00  0.0000000000000000e+00 0.0000000000000000e+00 0.0000000000000000e+00  0.0000000000000000e+00 0.0000000000000000e+00 0.0000000000000000e+00  0.0000000000000000e+00 0.0000000000000000e+00 0.0000000000000000e+00  0.0000000000000000e+00 0.0000000000000000e+00 0.0000000000000000e+00  0.0000000000000000e+00 0.0000000000000000e+00 0.0000000000000000e+00  0.0000000000000000e+00 0.0000000000000000e+00 0.0000000000000000e+00  0.0000000000000000e+00 0.0000000000000000e+00 0.0000000000000000e+00  0.0000000000000000e+00 0.0000000000000000e+00 0.0000000000000000e+00  0.0000000000000000e+00 0.0000000000000000e+00 0.0000000000000000e+00  0.0000000000000000e+00 0.0000000000000000e+00 0.0000000000000000e+00  0.0000000000000000e+00 0.0000000000000000e+00 0.0000000000000000e+00  0.0000000000000000e+00 0.0000000000000000e+00 0.0000000000000000e+00  0.0000000000000000e+00 0.0000000000000000e+00 0.0000000000000000e+00  0.0000000000000000e+00 0.0000000000000000e+00 0.0000000000000000e+00  0.0000000000000000e+00 0.0000000000000000e+00 0.0000000000000000e+00  0.0000000000000000e+00 0.0000000000000000e+00 0.0000000000000000e+00  0.0000000000000000e+00 0.0000000000000000e+00 0.0000000000000000e+00  0.0000000000000000e+00 0.0000000000000000e+00 0.0000000000000000e+00  0.0000000000000000e+00 0.0000000000000000e+00 0.0000000000000000e+00  0.0000000000000000e+00 0.0000000000000000e+00 0.0000000000000000e+00  0.0000000000000000e+00 0.0000000000000000e+00 0.0000000000000000e+00  0.0000000000000000e+00 0.0000000000000000e+00 0.0000000000000000e+00  0.0000000000000000e+00 0.0000000000000000e+00 0.0000000000000000e+00  0.0000000000000000e+00 0.0000000000000000e+00 0.0000000000000000e+00  0.0000000000000000e+00 0.0000000000000000e+00 0.0000000000000000e+00  0.0000000000000000e+00 0.0000000000000000e+00 0.0000000000000000e+00  0.0000000000000000e+00 0.0000000000000000e+00 0.0000000000000000e+00  0.0000000000000000e+00 0.0000000000000000e+00 0.0000000000000000e+00  0.0000000000000000e+00 0.0000000000000000e+00 0.0000000000000000e+00  0.0000000000000000e+00 0.0000000000000000e+00 0.0000000000000000e+00  0.0000000000000000e+00 0.0000000000000000e+00 0.0000000000000000e+00  0.0000000000000000e+00 0.0000000000000000e+00 0.0000000000000000e+00  0.0000000000000000e+00 0.0000000000000000e+00 0.0000000000000000e+00  0.0000000000000000e+00 0.0000000000000000e+00 0.0000000000000000e+00  0.0000000000000000e+00 0.0000000000000000e+00 0.0000000000000000e+00  0.0000000000000000e+00 0.0000000000000000e+00 0.0000000000000000e+00  0.0000000000000000e+00 0.0000000000000000e+00 0.0000000000000000e+00  0.0000000000000000e+00 0.0000000000000000e+00 0.0000000000000000e+00  0.0000000000000000e+00 0.0000000000000000e+00 0.0000000000000000e+00  0.0000000000000000e+00 0.0000000000000000e+00 0.0000000000000000e+00  0.0000000000000000e+00 0.0000000000000000e+00 0.0000000000000000e+00  0.0000000000000000e+00 0.0000000000000000e+00 0.0000000000000000e+00  0.0000000000000000e+00 0.0000000000000000e+00 0.0000000000000000e+00  0.0000000000000000e+00 0.0000000000000000e+00 0.0000000000000000e+00  0.0000000000000000e+00 0.0000000000000000e+00 0.0000000000000000e+00  0.0000000000000000e+00 0.0000000000000000e+00 0.0000000000000000e+00  0.0000000000000000e+00 0.0000000000000000e+00 0.0000000000000000e+00  0.0000000000000000e+00 0.0000000000000000e+00 0.0000000000000000e+00  0.0000000000000000e+00 0.0000000000000000e+00 0.0000000000000000e+00  0.0000000000000000e+00 0.0000000000000000e+00 0.0000000000000000e+00  0.0000000000000000e+00 0.0000000000000000e+00 0.0000000000000000e+00  0.0000000000000000e+00 0.0000000000000000e+00 0.0000000000000000e+00  0.0000000000000000e+00 0.0000000000000000e+00 0.0000000000000000e+00  0.0000000000000000e+00 0.0000000000000000e+00 0.0000000000000000e+00  0.0000000000000000e+00 0.0000000000000000e+00 0.0000000000000000e+00  -7.8792718751271990e-07 -7.9182761610716966e-06 0.0000000000000000e+00  -1.3781293344667608e-06 -8.5235484905252233e-06 0.0000000000000000e+00  -1.5621175190662691e-06 -8.6940174032858048e-06 0.0000000000000000e+00  -1.5567337107125319e-06 -8.6010534187846946e-06 0.0000000000000000e+00  -1.4894669478470572e-06 -8.5187348225812693e-06 0.0000000000000000e+00  -1.4834817264992428e-06 -8.4918979950889931e-06 0.0000000000000000e+00  -1.5184072280070171e-06 -8.4527393071268804e-06 0.0000000000000000e+00  -1.6355816896849651e-06 -8.4029666412357465e-06 0.0000000000000000e+00  -1.8065759247504889e-06 -8.3487481716061966e-06 0.0000000000000000e+00  -2.0503324035446638e-06 -8.2709045535775339e-06 0.0000000000000000e+00  -2.3676986418580993e-06 -8.2017651906107913e-06 0.0000000000000000e+00  -2.7601831598658598e-06 -8.0959475537450873e-06 0.0000000000000000e+00  -3.2457494565409719e-06 -7.9871643963340685e-06 0.0000000000000000e+00  -3.7955583180103807e-06 -7.8796932405860572e-06 0.0000000000000000e+00  -4.4596422128109517e-06 -7.7598556589502540e-06 0.0000000000000000e+00  -5.1888037486724491e-06 -7.6584855002488735e-06 0.0000000000000000e+00  -6.0153523160263337e-06 -7.5291798707875855e-06 0.0000000000000000e+00  -6.9363840365589311e-06 -7.4439740093747937e-06 0.0000000000000000e+00  -7.9487866967523068e-06 -7.3232330752302501e-06 0.0000000000000000e+00  -9.0540046034949924e-06 -7.2462236381001910e-06 0.0000000000000000e+00  -1.0254010052727257e-05 -7.1310861871679524e-06 0.0000000000000000e+00  -1.1565479326782411e-05 -7.0317090598705185e-06 0.0000000000000000e+00  -1.2944560126891341e-05 -6.9376702275867297e-06 0.0000000000000000e+00  -1.4448734917485632e-05 -6.8282457931737532e-06 0.0000000000000000e+00  -1.6022277263123922e-05 -6.7380265104090910e-06 0.0000000000000000e+00  -1.7702598053277281e-05 -6.6047008692513860e-06 0.0000000000000000e+00  -1.9478639209333232e-05 -6.5226891334297537e-06 0.0000000000000000e+00  -2.1338560880622401e-05 -6.3858698213043625e-06 0.0000000000000000e+00  -2.3294015495495675e-05 -6.2908709787718018e-06 0.0000000000000000e+00  -2.5327558365149869e-05 -6.1588408541183013e-06 0.0000000000000000e+00  -2.7447580933676411e-05 -6.0563650317137583e-06 0.0000000000000000e+00  -2.9651669107862288e-05 -5.9243096235691943e-06 0.0000000000000000e+00  -3.1923045907106938e-05 -5.8266852750088402e-06 0.0000000000000000e+00  -3.4279104116139580e-05 -5.6815330712555430e-06 0.0000000000000000e+00  -3.6718801696645962e-05 -5.5899074278843790e-06 0.0000000000000000e+00  -3.9220709102610967e-05 -5.4774130234036999e-06 0.0000000000000000e+00  -4.1789569107509032e-05 -5.4057312666260466e-06 0.0000000000000000e+00  -4.4421039715434534e-05 -5.3111914212567435e-06 0.0000000000000000e+00  -4.7120056262955757e-05 -5.2486881391116098e-06 0.0000000000000000e+00  -4.9883588427923490e-05 -5.1773692576288715e-06 0.0000000000000000e+00  -5.2706916574464859e-05 -5.1369669897300362e-06 0.0000000000000000e+00  -5.5575427108007553e-05 -5.0987038602817376e-06 0.0000000000000000e+00  -5.8517104195671672e-05 -5.0834962182407972e-06 0.0000000000000000e+00  -6.1488142527106184e-05 -5.0796549970637341e-06 0.0000000000000000e+00  -6.4513817456233154e-05 -5.0808409367497012e-06 0.0000000000000000e+00  -6.7576660250617828e-05 -5.1093396304637729e-06 0.0000000000000000e+00  -7.0795406257372228e-05 -2.9408410499052267e-06 0.0000000000000000e+00  -7.0923431037289952e-05 1.6546757570895774e-06 0.0000000000000000e+00  -6.7832750396456165e-05 4.0233837289679847e-06 0.0000000000000000e+00  -6.4746115500645201e-05 4.1842373430005363e-06 0.0000000000000000e+00  -6.1694009261984703e-05 4.3499440400511821e-06 0.0000000000000000e+00  -5.8688965865681161e-05 4.4999863918074947e-06 0.0000000000000000e+00  -5.5719191872651420e-05 4.6407098197074873e-06 0.0000000000000000e+00  -5.2821807029991555e-05 4.7687839945725190e-06 0.0000000000000000e+00  -4.9966294154012389e-05 4.8865436967293774e-06 0.0000000000000000e+00  -4.7180771051035593e-05 5.0006808236541032e-06 0.0000000000000000e+00  -4.4453114862332905e-05 5.0900477769021884e-06 0.0000000000000000e+00  -4.1796125453375503e-05 5.1994186318950403e-06 0.0000000000000000e+00  -3.9207957550092609e-05 5.2824873878317609e-06 0.0000000000000000e+00  -3.6695539620574529e-05 5.3812644025157955e-06 0.0000000000000000e+00  -3.4255877338426013e-05 5.4477347909343287e-06 0.0000000000000000e+00  -3.1894275105451986e-05 5.5381088195483017e-06 0.0000000000000000e+00  -2.9610660392276365e-05 5.6029088243044795e-06 0.0000000000000000e+00  -2.7409059157780933e-05 5.7016443688223214e-06 0.0000000000000000e+00  -2.5293653278949457e-05 5.7798349331547365e-06 0.0000000000000000e+00  -2.3266746104897219e-05 5.8882874049888310e-06 0.0000000000000000e+00  -2.1327870262726748e-05 5.9676611754936914e-06 0.0000000000000000e+00  -1.9473545671126439e-05 6.0802498626093247e-06 0.0000000000000000e+00  -1.7707711931390886e-05 6.1690328526225107e-06 0.0000000000000000e+00  -1.6031758125319368e-05 6.2938289649252939e-06 0.0000000000000000e+00  -1.4459867151547662e-05 6.4100925597170782e-06 0.0000000000000000e+00  -1.2962458848656206e-05 6.5311888955847385e-06 0.0000000000000000e+00  -1.1587819146217328e-05 6.6540921111128996e-06 0.0000000000000000e+00  -1.0276324702183738e-05 6.7650969882524500e-06 0.0000000000000000e+00  -9.0687103557422445e-06 6.9016124152684721e-06 0.0000000000000000e+00  -7.9490997526674956e-06 6.9968961940115733e-06 0.0000000000000000e+00  -6.9278659162355774e-06 7.1400847269577913e-06 0.0000000000000000e+00  -6.0048533457564423e-06 7.2252393771709879e-06 0.0000000000000000e+00  -5.1737637247011853e-06 7.3465152948975039e-06 0.0000000000000000e+00  -4.4423672238310446e-06 7.4284535488300675e-06 0.0000000000000000e+00  -3.7788423609005875e-06 7.5268574812869817e-06 0.0000000000000000e+00  -3.2336478342607815e-06 7.6169136666826765e-06 0.0000000000000000e+00  -2.7561098846263521e-06 7.7110382574691442e-06 0.0000000000000000e+00  -2.3756481491507526e-06 7.8144385456884621e-06 0.0000000000000000e+00  -2.0745484183730743e-06 7.8906472704350065e-06 0.0000000000000000e+00  -1.8456345938936617e-06 7.9976450900896188e-06 0.0000000000000000e+00  -1.6898441080142418e-06 8.0914459755482435e-06 0.0000000000000000e+00  -1.5805308467427505e-06 8.1916798981595636e-06 0.0000000000000000e+00  -1.5472539638568058e-06 8.2879229406645139e-06 0.0000000000000000e+00  -1.5473025889398090e-06 8.3713732136250249e-06 0.0000000000000000e+00  -1.6039942612817522e-06 8.5078866730350042e-06 0.0000000000000000e+00  -1.5834189764033208e-06 8.6257634261132633e-06 0.0000000000000000e+00  -1.3972030486548543e-06 8.4713780685703610e-06 0.0000000000000000e+00  -8.2536523235254914e-07 7.8525903279179425e-06 0.0000000000000000e+00  -2.6371757307075480e-06 -6.9464493012971748e-08 0.0000000000000000e+00  -6.6173440876055774e-05 -5.4626117135471128e-07 0.0000000000000000e+00  -6.0326547139253342e-05 -4.2183657374615882e-07 0.0000000000000000e+00  -5.1212438465407818e-05 -2.1078001693109116e-07 0.0000000000000000e+00  -1.6024033144426262e-06 -3.9847537870975295e-08 0.0000000000000000e+00  -4.5767739116006528e-05 -1.0927209519558089e-07 0.0000000000000000e+00  -1.4842390180469690e-06 2.7001150042560977e-08 0.0000000000000000e+00  -4.0474402526529177e-05 -9.5011667696264008e-08 0.0000000000000000e+00  -1.7164142697304666e-06 -6.0220181546805574e-08 0.0000000000000000e+00  -2.1838166340161480e-06 -1.9626649395305194e-07 0.0000000000000000e+00  -3.5456832699971646e-05 -1.1074331447923007e-07 0.0000000000000000e+00  -4.7992043228891609e-06 -5.8545593420950916e-08 0.0000000000000000e+00  -2.6336057459267345e-05 -1.8477389310928625e-07 0.0000000000000000e+00  -2.9179533668805948e-06 -8.8831571824266280e-08 0.0000000000000000e+00  -6.4305625663249301e-06 -1.5135951759967727e-07 0.0000000000000000e+00  -2.2270344984605145e-05 -2.0935239702153056e-07 0.0000000000000000e+00  -3.0737303779696006e-05 -1.4935664022726966e-07 0.0000000000000000e+00  -8.4620543440526239e-06 -1.6358621829103543e-07 0.0000000000000000e+00  -1.8553660747830500e-05 -2.2220058573976517e-07 0.0000000000000000e+00  -1.0765460817285824e-05 -9.3882403304804395e-08 0.0000000000000000e+00  -1.5260911329344447e-05 -3.0112307437032108e-07 0.0000000000000000e+00  -1.2824868452333294e-05 -2.0102209419691510e-07 0.0000000000000000e+00  -3.7242917893701088e-06 -1.9241575093706663e-07 0.0000000000000000e+00  -5.5897303897352721e-05 -2.2004717203439825e-07 0.0000000000000000e+00  -1.5356811434194370e-06 -1.2643667685294950e-07 0.0000000000000000e+00  -6.3246683534598779e-05 1.1555505464528049e-06 0.0000000000000000e+00  -1.9173806393723945e-06 3.2074974518424208e-06 0.0000000000000000e+00  -4.3095394035733567e-05 1.4274148584368881e-06 0.0000000000000000e+00  -4.8526950610451707e-05 1.3490522364479192e-06 0.0000000000000000e+00  -1.5139253765092628e-06 -3.0708968673464440e-06 0.0000000000000000e+00  -1.9125885031131840e-06 -2.5511272474323958e-06 0.0000000000000000e+00  -2.8496178867744844e-05 1.5243257456422950e-06 0.0000000000000000e+00  -3.7932849149861539e-05 1.4818121087942632e-06 0.0000000000000000e+00  -5.5626930431781856e-06 -2.3167532621583376e-06 0.0000000000000000e+00  -2.4261961340116216e-05 1.5559717134245596e-06 0.0000000000000000e+00  -2.5349882469475463e-06 -2.5115557377474562e-06 0.0000000000000000e+00  -7.4074576407829984e-06 -2.2577553824317030e-06 0.0000000000000000e+00  -2.0373304939295304e-05 1.5976787964705401e-06 0.0000000000000000e+00  -3.3060781699128596e-05 1.5065352879744560e-06 0.0000000000000000e+00  -9.6117463419839203e-06 -2.6648073827512439e-06 0.0000000000000000e+00  -1.6836664444383993e-05 1.6550461338179903e-06 0.0000000000000000e+00  -2.1987156264538292e-06 -1.9035257442622279e-06 0.0000000000000000e+00  -2.1546216699153519e-06 1.7031829216919398e-06 0.0000000000000000e+00  -6.8598214079387799e-05 -1.6788445523666911e-06 0.0000000000000000