<?xml version="1.0"?>
<VTKFile type="UnstructuredGrid"  version="0.1"  >
<UnstructuredGrid>
<Piece  NumberOfPoints="1419" NumberOfCells="2698">
<Points>
<DataArray  type="Float64"  NumberOfComponents="3"  format="ascii">0 0 0  0 0.41 0  2.5 0 0  2.5 0.41 0  0.6 0.19 0  0.6 0.21 0  0.25 0.2 0  0.15 0.2 0  0.2489897948556636 0.21 0  0.2489897948556636 0.19 0  0.6 0.2 0  0 0.3807142857143437 0  0 0.3514285714286952 0  0 0.3221428571430699 0  0 0.29285714285744 0  0 0.2635714285718054 0  0 0.2342857142861561 0  0 0.2050000000005308 0  0 0.175714285714732 0  0 0.1464285714289574 0  0 0.1171428571431897 0  0 0.08785714285737878 0  0 0.05857142857161107 0  0 0.02928571428580012 0  0.03015443760436003 0 0  0.06140001986583606 0 0  0.09377624077125973 0 0  0.1273239957535082 0 0  0.1620856860351972 0 0  0.1981052433264291 0 0  0.235428184091502 0 0  0.2741016576309132 0 0  0.3141745521465447 0 0  0.3556974926295285 0 0  0.3987229542472677 0 0  0.4433053055141081 0 0  0.4895008759286886 0 0  0.5373680609405097 0 0  0.5869673343216626 0 0  0.6383613676634521 0 0  0.6916151138468254 0 0  0.7467958595648856 0 0  0.8039733463919316 0 0  0.8632198139502143 0 0  0.9246101326867038 0 0  0.9882218810934433 0 0  1.054135445558498 0 0  1.122434100542598 0 0  1.193204177141305 0 0  1.266535089879536 0 0  1.342519516046404 0 0  1.421253448503939 0 0  1.502836389106271 0 0  1.587371439758838 0 0  1.674965418777374 0 0  1.765729001825544 0 0  1.859776908880082 0 0  1.957227977487062 0 0  2.058205329869943 0 0  2.162836591189951 0 0  2.271253957290865 0 0  2.383594446803425 0 0  2.5 0.1024999999997612 0  2.5 0.2049999999994743 0  2.5 0.3074999999997183 0  2.383594446803656 0.41 0  2.271253957291315 0.41 0  2.162836591190598 0.41 0  2.058205329870775 0.41 0  1.957227977488067 0.41 0  1.859776908881246 0.41 0  1.765729001826854 0.41 0  1.674965418778818 0.41 0  1.58737143976041 0.41 0  1.502836389107956 0.41 0  1.421253448505726 0.41 0  1.342519516048286 0.41 0  1.266535089881505 0.41 0  1.193204177143353 0.41 0  1.122434100544716 0.41 0  1.05413544556068 0.41 0  0.9882218810956305 0.41 0  0.9246101326886647 0.41 0  0.8632198139519631 0.41 0  0.8039733463934788 0.41 0  0.7467958595662458 0.41 0  0.6916151138480078 0.41 0  0.6383613676644679 0.41 0  0.5869673343225223 0.41 0  0.5373680609412221 0.41 0  0.4895008759292634 0.41 0  0.4433053055145528 0.41 0  0.3987229542475914 0.41 0  0.3556974926297398 0.41 0  0.3141745521466497 0.41 0  0.2741016576310038 0.41 0  0.2354281840915826 0.41 0  0.1981052433265003 0.41 0  0.1620856860352591 0.41 0  0.1273239957535623 0.41 0  0.09377624077128965 0.41 0  0.06140001986584975 0.41 0  0.03015443760436654 0.41 0  0.2497468076502589 0.2050254481002335 0  0.2497468076502614 0.1949745518997913 0  0.2469965252529372 0.1829317073451959 0  0.2439893735792749 0.1762316384219906 0  0.2400332147834255 0.1700443375285386 0  0.2352133972704371 0.1645032867342007 0  0.2296339016332438 0.1597280261969788 0  0.2234150974217223 0.1558215752574715 0  0.2166911463437691 0.1528682099456123 0  0.2096071079204251 0.1509316448471593 0  0.2023158100364996 0.1500536585536553 0  0.194974551899914 0.1502531923497262 0  0.1877417105387872 0.1515259415822739 0  0.1807733240461124 0.153844448527136 0  0.1742197252835808 0.15715869474974 0  0.1682222986673531 0.1613971801805478 0  0.162910430003803 0.1664684656256651 0  0.1583987151779087 0.1722631454351573 0  0.1547844879126891 0.178656207771761 0  0.1521457199348551 0.1855097315605723 0  0.1505393388476355 0.1926758619366523 0  0.1505393388476328 0.2073241380633295 0  0.1521457199348437 0.2144902684393899 0  0.1547844879126531 0.221343792228163 0  0.1583987151778488 0.2277368545647528 0  0.1629104300036858 0.2335315343742052 0  0.1682222986671726 0.2386028198193036 0  0.1742197252833576 0.2428413052501257 0  0.1807733240458683 0.2461555514727623 0  0.1877417105384929 0.2484740584176516 0  0.1949745518995776 0.2497468076502398 0  0.202315810036185 0.2499463414463592 0  0.2096071079201568 0.2490683551528932 0  0.2166911463435495 0.2471317900544655 0  0.2234150974215506 0.2441784247426195 0  0.2296339016331197 0.2402719738031125 0  0.2352133972703547 0.2354967132658811 0  0.2400332147833751 0.2299556624715287 0  0.2439893735792577 0.2237683615780412 0  0.246996525252926 0.2170682926548348 0  0.25645809709277 0.21 0  0.2639263993298655 0.21 0  0.271394701566961 0.21 0  0.2788630038040554 0.21 0  0.2863313060411479 0.21 0  0.2937996082782405 0.21 0  0.301267910515333 0.21 0  0.3087362127524279 0.21 0  0.3162045149895234 0.21 0  0.3236728172265972 0.21 0  0.3311411194636928 0.21 0  0.3386094217007701 0.21 0  0.3460777239378666 0.21 0  0.3535460261749672 0.21 0  0.3610143284120516 0.21 0  0.3684826306491596 0.21 0  0.3759509328862226 0.21 0  0.383419235123329 0.21 0  0.3908875373604028 0.21 0  0.3983558395975142 0.21 0  0.4058241418345938 0.21 0  0.4132924440716992 0.21 0  0.4207607463087888 0.21 0  0.4282290485459029 0.21 0  0.4356973507830418 0.21 0  0.4431656530201649 0.21 0  0.4506339552573136 0.21 0  0.4581022574944306 0.21 0  0.4655705597315852 0.21 0  0.4730388619686996 0.21 0  0.480507164205851 0.21 0  0.4879754664429498 0.21 0  0.4954437686800938 0.21 0  0.502912070917267 0.21 0  0.5103803731544119 0.21 0  0.5178486753915261 0.21 0  0.5253169776286404 0.21 0  0.5327852798657868 0.21 0  0.5402535821029386 0.21 0  0.54772188434007 0.21 0  0.5551901865771842 0.21 0  0.5626584888143201 0.21 0  0.5701267910514778 0.21 0  0.5775950932886138 0.21 0  0.5850633955257281 0.21 0  0.5925316977628483 0.21 0  0.6 0.2050000000000054 0  0.6 0.1950000000000217 0  0.5925316977628897 0.19 0  0.5850633955257988 0.19 0  0.5775950932887378 0.19 0  0.5701267910515998 0.19 0  0.5626584888145268 0.19 0  0.5551901865773963 0.19 0  0.547721884340339 0.19 0  0.5402535821032429 0.19 0  0.5327852798661811 0.19 0  0.5253169776290537 0.19 0  0.5178486753919799 0.19 0  0.5103803731549078 0.19 0  0.502912070917822 0.19 0  0.4954437686807294 0.19 0  0.4879754664436223 0.19 0  0.4805071642065402 0.19 0  0.4730388619694271 0.19 0  0.4655705597323621 0.19 0  0.4581022574952563 0.19 0  0.4506339552581777 0.19 0  0.4431656530210671 0.19 0  0.4356973507839815 0.19 0  0.4282290485468779 0.19 0  0.4207607463097617 0.19 0  0.4132924440726327 0.19 0  0.4058241418354857 0.19 0  0.3983558395983636 0.19 0  0.3908875373612097 0.19 0  0.3834192351240934 0.19 0  0.3759509328869369 0.19 0  0.3684826306498175 0.19 0  0.361014328412667 0.19 0  0.3535460261755617 0.19 0  0.3460777239384295 0.19 0  0.3386094217012945 0.19 0  0.3311411194641595 0.19 0  0.3236728172270245 0.19 0  0.3162045149898895 0.19 0  0.3087362127527544 0.19 0  0.3012679105156187 0.19 0  0.2937996082784807 0.19 0  0.2863313060413428 0.19 0  0.2788630038042048 0.19 0  0.2713947015670686 0.19 0  0.2639263993299336 0.19 0  0.2564580970927985 0.19 0  0.2607803159922026 0.2000727136295815 0  0.5887803774232762 0.2001272386983733 0  0.5745072403740523 0.2002044435018727 0  0.5511891430099709 0.2001122610077113 0  0.2751288526855082 0.20000000000002 0  0.5365194309847112 0.1999999999999436 0  0.2894621222999649 0.1998691686390484 0  0.5215828265105155 0.1999999999999228 0  0.3127789816668748 0.1998657885438805 0  0.3274069683451451 0.2000000000000796 0  0.5066462220363641 0.199999999999908 0  0.3650630746574081 0.199866017807523 0  0.476773013087985 0.1999999999998713 0  0.3417402379596385 0.1998691686391011 0  0.3796850840047755 0.200000000000134 0  0.4618364086138087 0.1999999999998546 0  0.4917096175621762 0.1999999999998808 0  0.3946216884789568 0.2000000000001512 0  0.446899804139621 0.1999999999998389 0  0.4089549580935208 0.1998691686391595 0  0.4322718174608562 0.200127451265745 0  0.4201487168029707 0.1999966199048527 0  0.3528922713220932 0.2000185703532356 0  0.5633122436674589 0.1999814296467508 0  0.3006558810093873 0.1999966199048318 0  0.5815926498168407 0.1966545283159175 0  0.2677053789419034 0.1964246479135325 0  0.5290511287476175 0.1970915826863981 0  0.5439877332217911 0.197091582686394 0  0.2825131256993216 0.2035478995978015 0  0.3199386661080599 0.202908417313604 0  0.4842413153250809 0.1970915826863873 0  0.5141145242734466 0.1970915826863843 0  0.3722167817676917 0.2029084173136195 0  0.4693047108508938 0.1970915826863783 0  0.3348752705822316 0.202908417313609 0  0.3871533862418661 0.2029084173136212 0  0.4543681063767183 0.1970915826863795 0  0.4991779197992749 0.1970915826863902 0  0.4020059614928624 0.203547899597858 0  0.4394315019025246 0.1970915826863714 0  0.2550657455369551 0.2034088125358657 0  0.2548908499171161 0.1966940311614271 0  0.5946539510196798 0.2024302972968126 0  0.267698176732111 0.2039977513680092 0  0.4261685417851465 0.196409292431739 0  0.3590076176283495 0.196411355804271 0  0.5571672426447437 0.2036011176410121 0  0.3066757059912147 0.1964092924317024 0  0.594380730180568 0.1966558399668133 0  0.4842413153245942 0.2040749161535287 0  0.4693047108503577 0.2040749161535231 0  0.3871533862424271 0.1959250838464788 0  0.372246743208829 0.1959123236376545 0  0.5141145242731028 0.2040749161535395 0  0.4543681063761134 0.2040749161535186 0  0.4019979587101454 0.1959834479682427 0  0.4394608940728603 0.2040870543693135 0  0.5439623148931173 0.2040856076781014 0  0.5290511287473298 0.2040749161535501 0  0.4991779197988497 0.2040749161535382 0  0.3347912413592433 0.1959225448935183 0  0.3199680582793816 0.1959123018030061 0  0.2825051229162361 0.1959834479681729 0  0.3590471196690275 0.2036304442587945 0  0.5571594006495384 0.1963685282145804 0  0.3067669986803285 0.203627750582736 0  0.4262598344738712 0.2036568242185335 0  0.5814408164431408 0.2041285596160068 0  0.5688286748170428 0.1961819304477386 0  0.4145905603063645 0.2038180695522843 0  0.3473758401724931 0.2038180695522752 0  0.2950977245128307 0.2038180695522663 0  0.5688286748170693 0.203818069552238 0  0.2950977245127906 0.1961819304477774 0  0.3473758401723931 0.1961819304478349 0  0.4145905603061963 0.1961819304479011 0  0.2601812407614425 0.2056861609747042
[...]
<PointData  Vectors="f_40-0"> 
<DataArray  type="Float64"  Name="f_40-0"  NumberOfComponents="3" format="ascii">0.0000000000000000e+00 0.0000000000000000e+00 0.0000000000000000e+00  0.0000000000000000e+00 0.0000000000000000e+00 0.0000000000000000e+00  0.0000000000000000e+00 0.0000000000000000e+00 0.0000000000000000e+00  0.0000000000000000e+00 0.0000000000000000e+00 0.0000000000000000e+00  -4.8310931234138636e-06 -7.2947199635207114e-04 0.0000000000000000e+00  5.3161113740802280e-05 -7.3438913998731862e-04 0.0000000000000000e+00  0.0000000000000000e+00 0.0000000000000000e+00 0.0000000000000000e+00  0.0000000000000000e+00 0.0000000000000000e+00 0.0000000000000000e+00  0.0000000000000000e+00 0.0000000000000000e+00 0.0000000000000000e+00  0.0000000000000000e+00 0.0000000000000000e+00 0.0000000000000000e+00  2.3555411911555135e-05 -7.3192009843867870e-04 0.0000000000000000e+00  1.0897442991700386e-01 0.0000000000000000e+00 0.0000000000000000e+00  2.0118356292371276e-01 0.0000000000000000e+00 0.0000000000000000e+00  2.7662739902010508e-01 0.0000000000000000e+00 0.0000000000000000e+00  3.3530593820626819e-01 0.0000000000000000e+00 0.0000000000000000e+00  3.7721918048219449e-01 0.0000000000000000e+00 0.0000000000000000e+00  4.0236712584788137e-01 0.0000000000000000e+00 0.0000000000000000e+00  4.1074977430330378e-01 0.0000000000000000e+00 0.0000000000000000e+00  4.0236712584838974e-01 0.0000000000000000e+00 0.0000000000000000e+00  3.7721918048306780e-01 0.0000000000000000e+00 0.0000000000000000e+00  3.3530593820734977e-01 0.0000000000000000e+00 0.0000000000000000e+00  2.7662739902113259e-01 0.0000000000000000e+00 0.0000000000000000e+00  2.0118356292458955e-01 0.0000000000000000e+00 0.0000000000000000e+00  1.0897442991749787e-01 0.0000000000000000e+00 0.0000000000000000e+00  0.0000000000000000e+00 0.0000000000000000e+00 0.0000000000000000e+00  0.0000000000000000e+00 0.0000000000000000e+00 0.0000000000000000e+00  0.0000000000000000e+00 0.0000000000000000e+00 0.0000000000000000e+00  0.0000000000000000e+00 0.0000000000000000e+00 0.0000000000000000e+00  0.0000000000000000e+00 0.0000000000000000e+00 0.0000000000000000e+00  0.0000000000000000e+00 0.0000000000000000e+00 0.0000000000000000e+00  0.0000000000000000e+00 0.0000000000000000e+00 0.0000000000000000e+00  0.0000000000000000e+00 0.0000000000000000e+00 0.0000000000000000e+00  0.0000000000000000e+00 0.0000000000000000e+00 0.0000000000000000e+00  0.0000000000000000e+00 0.0000000000000000e+00 0.0000000000000000e+00  0.0000000000000000e+00 0.0000000000000000e+00 0.0000000000000000e+00  0.0000000000000000e+00 0.0000000000000000e+00 0.0000000000000000e+00  0.0000000000000000e+00 0.0000000000000000e+00 0.0000000000000000e+00  0.0000000000000000e+00 0.0000000000000000e+00 0.0000000000000000e+00  0.0000000000000000e+00 0.0000000000000000e+00 0.0000000000000000e+00  0.0000000000000000e+00 0.0000000000000000e+00 0.0000000000000000e+00  0.0000000000000000e+00 0.0000000000000000e+00 0.0000000000000000e+00  0.0000000000000000e+00 0.0000000000000000e+00 0.0000000000000000e+00  0.0000000000000000e+00 0.0000000000000000e+00 0.0000000000000000e+00  0.0000000000000000e+00 0.0000000000000000e+00 0.0000000000000000e+00  0.0000000000000000e+00 0.0000000000000000e+00 0.0000000000000000e+00  0.0000000000000000e+00 0.0000000000000000e+00 0.0000000000000000e+00  0.0000000000000000e+00 0.0000000000000000e+00 0.0000000000000000e+00  0.0000000000000000e+00 0.0000000000000000e+00 0.0000000000000000e+00  0.0000000000000000e+00 0.0000000000000000e+00 0.0000000000000000e+00  0.0000000000000000e+00 0.0000000000000000e+00 0.0000000000000000e+00  0.0000000000000000e+00 0.0000000000000000e+00 0.0000000000000000e+00  0.0000000000000000e+00 0.0000000000000000e+00 0.0000000000000000e+00  0.0000000000000000e+00 0.0000000000000000e+00 0.0000000000000000e+00  0.0000000000000000e+00 0.0000000000000000e+00 0.0000000000000000e+00  0.0000000000000000e+00 0.0000000000000000e+00 0.0000000000000000e+00  0.0000000000000000e+00 0.0000000000000000e+00 0.0000000000000000e+00  0.0000000000000000e+00 0.0000000000000000e+00 0.0000000000000000e+00  0.0000000000000000e+00 0.0000000000000000e+00 0.0000000000000000e+00  0.0000000000000000e+00 0.0000000000000000e+00 0.0000000000000000e+00  0.0000000000000000e+00 0.0000000000000000e+00 0.0000000000000000e+00  0.0000000000000000e+00 0.0000000000000000e+00 0.0000000000000000e+00  0.0000000000000000e+00 0.0000000000000000e+00 0.0000000000000000e+00  3.9391694177491138e-01 1.2737125690222922e-02 0.0000000000000000e+00  2.7569554085966502e-01 -2.6699060696092941e-03 0.0000000000000000e+00  3.9497615102668104e-01 -9.4572759335235356e-03 0.0000000000000000e+00  0.0000000000000000e+00 0.0000000000000000e+00 0.0000000000000000e+00  0.0000000000000000e+00 0.0000000000000000e+00 0.0000000000000000e+00  0.0000000000000000e+00 0.0000000000000000e+00 0.0000000000000000e+00  0.0000000000000000e+00 0.0000000000000000e+00 0.0000000000000000e+00  0.0000000000000000e+00 0.0000000000000000e+00 0.0000000000000000e+00  0.0000000000000000e+00 0.0000000000000000e+00 0.0000000000000000e+00  0.0000000000000000e+00 0.0000000000000000e+00 0.0000000000000000e+00  0.0000000000000000e+00 0.0000000000000000e+00 0.0000000000000000e+00  0.0000000000000000e+00 0.0000000000000000e+00 0.0000000000000000e+00  0.0000000000000000e+00 0.0000000000000000e+00 0.0000000000000000e+00  0.0000000000000000e+00 0.0000000000000000e+00 0.0000000000000000e+00  0.0000000000000000e+00 0.0000000000000000e+00 0.0000000000000000e+00  0.0000000000000000e+00 0.0000000000000000e+00 0.0000000000000000e+00  0.0000000000000000e+00 0.0000000000000000e+00 0.0000000000000000e+00  0.0000000000000000e+00 0.0000000000000000e+00 0.0000000000000000e+00  0.0000000000000000e+00 0.0000000000000000e+00 0.0000000000000000e+00  0.0000000000000000e+00 0.0000000000000000e+00 0.0000000000000000e+00  0.0000000000000000e+00 0.0000000000000000e+00 0.0000000000000000e+00  0.0000000000000000e+00 0.0000000000000000e+00 0.0000000000000000e+00  0.0000000000000000e+00 0.0000000000000000e+00 0.0000000000000000e+00  0.0000000000000000e+00 0.0000000000000000e+00 0.0000000000000000e+00  0.0000000000000000e+00 0.0000000000000000e+00 0.0000000000000000e+00  0.0000000000000000e+00 0.0000000000000000e+00 0.0000000000000000e+00  0.0000000000000000e+00 0.0000000000000000e+00 0.0000000000000000e+00  0.0000000000000000e+00 0.0000000000000000e+00 0.0000000000000000e+00  0.0000000000000000e+00 0.0000000000000000e+00 0.0000000000000000e+00  0.0000000000000000e+00 0.0000000000000000e+00 0.0000000000000000e+00  0.0000000000000000e+00 0.0000000000000000e+00 0.0000000000000000e+00  0.0000000000000000e+00 0.0000000000000000e+00 0.0000000000000000e+00  0.0000000000000000e+00 0.0000000000000000e+00 0.0000000000000000e+00  0.0000000000000000e+00 0.0000000000000000e+00 0.0000000000000000e+00  0.0000000000000000e+00 0.0000000000000000e+00 0.0000000000000000e+00  0.0000000000000000e+00 0.0000000000000000e+00 0.0000000000000000e+00  0.0000000000000000e+00 0.0000000000000000e+00 0.0000000000000000e+00  0.0000000000000000e+00 0.0000000000000000e+00 0.0000000000000000e+00  0.0000000000000000e+00 0.0000000000000000e+00 0.0000000000000000e+00  0.0000000000000000e+00 0.0000000000000000e+00 0.0000000000000000e+00  0.0000000000000000e+00 0.0000000000000000e+00 0.0000000000000000e+00  0.0000000000000000e+00 0.0000000000000000e+00 0.0000000000000000e+00  0.0000000000000000e+00 0.0000000000000000e+00 0.0000000000000000e+00  0.0000000000000000e+00 0.0000000000000000e+00 0.0000000000000000e+00  0.0000000000000000e+00 0.0000000000000000e+00 0.0000000000000000e+00  0.0000000000000000e+00 0.0000000000000000e+00 0.0000000000000000e+00  0.0000000000000000e+00 0.0000000000000000e+00 0.0000000000000000e+00  0.0000000000000000e+00 0.0000000000000000e+00 0.0000000000000000e+00  0.0000000000000000e+00 0.0000000000000000e+00 0.0000000000000000e+00  0.0000000000000000e+00 0.0000000000000000e+00 0.0000000000000000e+00  0.0000000000000000e+00 0.0000000000000000e+00 0.0000000000000000e+00  0.0000000000000000e+00 0.0000000000000000e+00 0.0000000000000000e+00  0.0000000000000000e+00 0.0000000000000000e+00 0.0000000000000000e+00  0.0000000000000000e+00 0.0000000000000000e+00 0.0000000000000000e+00  0.0000000000000000e+00 0.0000000000000000e+00 0.0000000000000000e+00  0.0000000000000000e+00 0.0000000000000000e+00 0.0000000000000000e+00  0.0000000000000000e+00 0.0000000000000000e+00 0.0000000000000000e+00  0.0000000000000000e+00 0.0000000000000000e+00 0.0000000000000000e+00  0.0000000000000000e+00 0.0000000000000000e+00 0.0000000000000000e+00  0.0000000000000000e+00 0.0000000000000000e+00 0.0000000000000000e+00  0.0000000000000000e+00 0.0000000000000000e+00 0.0000000000000000e+00  0.0000000000000000e+00 0.0000000000000000e+00 0.0000000000000000e+00  0.0000000000000000e+00 0.0000000000000000e+00 0.0000000000000000e+00  0.0000000000000000e+00 0.0000000000000000e+00 0.0000000000000000e+00  0.0000000000000000e+00 0.0000000000000000e+00 0.0000000000000000e+00  0.0000000000000000e+00 0.0000000000000000e+00 0.0000000000000000e+00  0.0000000000000000e+00 0.0000000000000000e+00 0.0000000000000000e+00  0.0000000000000000e+00 0.0000000000000000e+00 0.0000000000000000e+00  0.0000000000000000e+00 0.0000000000000000e+00 0.0000000000000000e+00  0.0000000000000000e+00 0.0000000000000000e+00 0.0000000000000000e+00  0.0000000000000000e+00 0.0000000000000000e+00 0.0000000000000000e+00  0.0000000000000000e+00 0.0000000000000000e+00 0.0000000000000000e+00  0.0000000000000000e+00 0.0000000000000000e+00 0.0000000000000000e+00  0.0000000000000000e+00 0.0000000000000000e+00 0.0000000000000000e+00  0.0000000000000000e+00 0.0000000000000000e+00 0.0000000000000000e+00  0.0000000000000000e+00 0.0000000000000000e+00 0.0000000000000000e+00  0.0000000000000000e+00 0.0000000000000000e+00 0.0000000000000000e+00  0.0000000000000000e+00 0.0000000000000000e+00 0.0000000000000000e+00  0.0000000000000000e+00 0.0000000000000000e+00 0.0000000000000000e+00  0.0000000000000000e+00 0.0000000000000000e+00 0.0000000000000000e+00  0.0000000000000000e+00 0.0000000000000000e+00 0.0000000000000000e+00  2.3842496975885585e-06 -6.2265916480744567e-06 0.0000000000000000e+00  5.1857792411879828e-06 -8.2374255209067313e-06 0.0000000000000000e+00  8.1578372984982778e-06 -1.1055805375257073e-05 0.0000000000000000e+00  1.1431915729387495e-05 -1.4826737337326005e-05 0.0000000000000000e+00  1.4519997595376089e-05 -1.9579925764333858e-05 0.0000000000000000e+00  1.7798339805751955e-05 -2.5435155692729552e-05 0.0000000000000000e+00  2.0766954213572717e-05 -3.2076971469840135e-05 0.0000000000000000e+00  2.3661011595925804e-05 -3.9785032787139194e-05 0.0000000000000000e+00  2.6714988826790721e-05 -4.8315881428156931e-05 0.0000000000000000e+00  2.9364330551819263e-05 -5.7687871603934689e-05 0.0000000000000000e+00  3.2205276953180754e-05 -6.7953107787790756e-05 0.0000000000000000e+00  3.4640221721945918e-05 -7.8976725682168623e-05 0.0000000000000000e+00  3.7183185859589153e-05 -9.0801319713053409e-05 0.0000000000000000e+00  3.9419676233404319e-05 -1.0326600760307469e-04 0.0000000000000000e+00  4.1539985798873403e-05 -1.1650830140663224e-04 0.0000000000000000e+00  4.3728279575254581e-05 -1.3037051245834929e-04 0.0000000000000000e+00  4.5575439218453454e-05 -1.4481506638239723e-04 0.0000000000000000e+00  4.7506016080427485e-05 -1.5991965375750534e-04 0.0000000000000000e+00  4.9116131418276295e-05 -1.7551403354474770e-04 0.0000000000000000e+00  5.0784208684016140e-05 -1.9167627159440346e-04 0.0000000000000000e+00  5.2199508321337943e-05 -2.0828873523674892e-04 0.0000000000000000e+00  5.3599662019719134e-05 -2.2542014649395048e-04 0.0000000000000000e+00  5.4796400149021694e-05 -2.4291560700230241e-04 0.0000000000000000e+00  5.5883191500505429e-05 -2.6086972961671107e-04 0.0000000000000000e+00  5.6968090520554513e-05 -2.7916961939073343e-04 0.0000000000000000e+00  5.7858498799514205e-05 -2.9781574997126846e-04 0.0000000000000000e+00  5.8669440593829355e-05 -3.1685437956404695e-04 0.0000000000000000e+00  5.9347007836786754e-05 -3.3613218490666989e-04 0.0000000000000000e+00  5.9940593998803133e-05 -3.5575681778312359e-04 0.0000000000000000e+00  6.0405922498637214e-05 -3.7558336255892285e-04 0.0000000000000000e+00  6.0787076432085825e-05 -3.9570442726873643e-04 0.0000000000000000e+00  6.1042195635111249e-05 -4.1598113510957419e-04 0.0000000000000000e+00  6.1216418457380730e-05 -4.3650893915434452e-04 0.0000000000000000e+00  6.1264205484529811e-05 -4.5714709264175433e-04 0.0000000000000000e+00  6.1220417674783486e-05 -4.7800888727416162e-04 0.0000000000000000e+00  6.1065000603144419e-05 -4.9894300043687076e-04 0.0000000000000000e+00  6.0820016134315696e-05 -5.2005080144819501e-04 0.0000000000000000e+00  6.0464895083475060e-05 -5.4120042559283521e-04 0.0000000000000000e+00  6.0016962425000408e-05 -5.6249021084721937e-04 0.0000000000000000e+00  5.9458354558767151e-05 -5.8379581116176245e-04 0.0000000000000000e+00  5.8800135576539388e-05 -6.0519529314975826e-04 0.0000000000000000e+00  5.8048708533557201e-05 -6.2660888270952089e-04 0.0000000000000000e+00  5.7187873202725953e-05 -6.4807524841531026e-04 0.0000000000000000e+00  5.6270235554840690e-05 -6.6955415363841747e-04 0.0000000000000000e+00  5.5232002958764170e-05 -6.9101213227723611e-04 0.0000000000000000e+00  5.4144293689455820e-05 -7.1254357691115714e-04 0.0000000000000000e+00  3.8148588939364773e-05 -7.3313449624557087e-04 0.0000000000000000e+00  9.1882724236781111e-06 -7.3071017548930080e-04 0.0000000000000000e+00  -3.7854371809755304e-06 -7.0800956278871830e-04 0.0000000000000000e+00  -2.6469283472896065e-06 -6.8627847462404668e-04 0.0000000000000000e+00  -1.5495674848018534e-06 -6.6451851963253796e-04 0.0000000000000000e+00  -5.4579321944722111e-07 -6.4282357201578190e-04 0.0000000000000000e+00  4.0424534643659608e-07 -6.2115591841867387e-04 0.0000000000000000e+00  1.2622555317334445e-06 -5.9953301286998250e-04 0.0000000000000000e+00  2.0784964383401152e-06 -5.7796310969386968e-04 0.0000000000000000e+00  2.7973587724750513e-06 -5.5642969129121274e-04 0.0000000000000000e+00  3.4805783338560156e-06 -5.3500963413195769e-04 0.0000000000000000e+00  4.0709219425340683e-06 -5.1363104272389285e-04 0.0000000000000000e+00  4.6404825030173638e-06 -4.9239379454746627e-04 0.0000000000000000e+00  5.1101477438855497e-06 -4.7123100400643832e-04 0.0000000000000000e+00  5.5732280614416408e-06 -4.5024855951096104e-04 0.0000000000000000e+00  5.9318721745466149e-06 -4.2938164022453235e-04 0.0000000000000000e+00  6.3009472130271713e-06 -4.0873165035211132e-04 0.0000000000000000e+00  6.5531808305954560e-06 -3.8823647285385381e-04 0.0000000000000000e+00  6.8346996378347588e-06 -3.6799358770896521e-04 0.0000000000000000e+00  6.9843391191782559e-06 -3.4794524735197490e-04 0.0000000000000000e+00  7.1776619869198421e-06 -3.2820028136888865e-04 0.0000000000000000e+00  7.2292645435422300e-06 -3.0870211617389581e-04 0.0000000000000000e+00  7.3484303384200500e-06 -2.8955269689065710e-04 0.0000000000000000e+00  7.3084473733658081e-06 -2.7069926684306517e-04 0.0000000000000000e+00  7.3335273474059147e-06 -2.5223053899830973e-04 0.0000000000000000e+00  7.2290031908917017e-06 -2.3410006600055195e-04 0.0000000000000000e+00  7.0631690970516644e-06 -2.1644280512949656e-04 0.0000000000000000e+00  6.9803941213048974e-06 -1.9914580736846396e-04 0.0000000000000000e+00  6.7669320985835207e-06 -1.8233470578271253e-04 0.0000000000000000e+00  6.5760619790331832e-06 -1.6603716164218353e-04 0.0000000000000000e+00  6.2915836769261946e-06 -1.5022805887025920e-04 0.0000000000000000e+00  6.0249124726458923e-06 -1.3500740749130142e-04 0.0000000000000000e+00  5.6654094209510180e-06 -1.2031609786946957e-04 0.0000000000000000e+00  5.3874347847872208e-06 -1.0635164118181269e-04 0.0000000000000000e+00  4.9396663616733715e-06 -9.2916351259593775e-05 0.0000000000000000e+00  4.4405319771088636e-06 -8.0303783192610409e-05 0.0000000000000000e+00  4.0947027590010777e-06 -6.8269927961253960e-05 0.0000000000000000e+00  3.5965493138533673e-06 -5.7080617244917785e-05 0.0000000000000000e+00  3.1497390472990373e-06 -4.6705143804940416e-05 0.0000000000000000e+00  2.5995216321221989e-06 -3.7131521935776433e-05 0.0000000000000000e+00  2.1885653015475178e-06 -2.8549632837186097e-05 0.0000000000000000e+00  1.5719428803780829e-06 -2.0733076570556302e-05 0.0000000000000000e+00  9.3076421928113443e-07 -1.4029079218311463e-05 0.0000000000000000e+00  5.4116396473547790e-07 -8.1367164408600627e-06 0.0000000000000000e+00  8.1317846320619563e-10 -3.3121339347450371e-06 0.0000000000000000e+00  -2.5913884354304184e-07 4.5076963341023187e-07 0.0000000000000000e+00  -5.4410579151945550e-07 2.9657738413436738e-06 0.0000000000000000e+00  -2.9834498396813905e-07 4.1253033370587848e-06 0.0000000000000000e+00  7.9425871969966936e-07 -1.0992844568325666e-06 0.0000000000000000e+00  2.5886493420177694e-05 -6.9942535311978010e-04 0.0000000000000000e+00  2.8270467115712323e-05 -6.5813720684442737e-04 0.0000000000000000e+00  3.0672254998860562e-05 -5.9084195924958291e-04 0.0000000000000000e+00  4.7699470123254916e-06 -6.3671696405247180e-06 0.0000000000000000e+00  3.1597274342284508e-05 -5.4871895549895428e-04 0.0000000000000000e+00  8.1819152751978737e-06 -1.5449578092567164e-05 0.0000000000000000e+00  3.2558449391875453e-05 -5.0616711779405605e-04 0.0000000000000000e+00  1.3639502332784109e-05 -3.8024101675206564e-05 0.0000000000000000e+00  1.7003951178290957e-05 -5.6725686757166770e-05 0.0000000000000000e+00  3.3201882825115274e-05 -4.6404604799397519e-04 0.0000000000000000e+00  2.3806515298319323e-05 -1.1840019876964646e-04 0.0000000000000000e+00  3.3556116870336903e-05 -3.8170126165028349e-04 0.0000000000000000e+00  1.9712808905850353e-05 -7.7950826210755245e-05 0.0000000000000000e+00  2.6266511822681780e-05 -1.4704976342337991e-04 0.0000000000000000e+00  3.3273952507617693e-05 -3.4179731282166432e-04 0.0000000000000000e+00  3.3533133754251821e-05 -4.2250513170777115e-04 0.0000000000000000e+00  2.8231649272086183e-05 -1.7849055327239758e-04 0.0000000000000000e+00  3.2685080645781011e-05 -3.0298399821052568e-04 0.0000000000000000e+00  2.9536273750649976e-05 -2.1050808147851343e-04 0.0000000000000000e+00  3.2139532189265176e-05 -2.6626413134984246e-04 0.0000000000000000e+00  3.0845221691134112e-05 -2.3684949779407055e-04 0.0000000000000000e+00  2.1988638917899944e-05 -9.6638288937229400e-05 0.0000000000000000e+00  2.8977213358251552e-05 -6.2574512452810726e-04 0.0000000000000000e+00  1.0944216525662301e-05 -2.5364755150586464e-05 0.0000000000000000e+00  1.6988752643276971e-05 -6.7778618061256591e-04 0.0000000000000000e+00  1.5630952184423631e-06 -1.1194540047915449e-06 0.0000000000000000e+00  2.3851483352247576e-05 -5.2649019383727372e-04 0.0000000000000000e+00  2.2669184704322125e-05 -5.6925812080885739e-04 0.0000000000000000e+00  8.8109429692567138e-06 -1.2760434541842369e-05 0.0000000000000000e+00  1.9064178476595250e-05 -4.8489289614966472e-05 0.0000000000000000e+00  2.5662988728582652e-05 -4.0095101163845379e-04 0.0000000000000000e+00  2.4740800562151205e-05 -4.8408711639118382e-04 0.0000000000000000e+00  3.0821543939684908e-05 -1.3365763015458788e-04 0.0000000000000000e+00  2.5712203509264085e-05 -3.6052805637789350e-04 0.0000000000000000e+00  2.2832858296457958e-05 -6.9101621916915740e-05 0.0000000000000000e+00  3.3370203288727547e-05 -1.6394788879351530e-04 0.0000000000000000e+00  2.5488669832040736e-05 -3.2109918690478129e-04 0.0000000000000000e+00  2.5341158443149904e-05 -4.4218793905388459e-04 0.0000000000000000e+00  3.6992099982425240e-05 -1.9649353537626982e-04 0.0000000000000000e+00  2.4995346629622802e-05 -2.8285849396347606e-04 0.0000000000000000e+00  -3.8325957670232658e-09 -1.4693909246421901e-06 0.0000000000000000e+00  -4.6127021918981050e-07 9.5541327537046762e-07 0.0000000000000000e+00  3.1551421323410943e-05 -7.1696163327863971e-04 0.0000000000000000e+00  4.2873230278271999e-06 -5.6374151557702583e-06 0.0000000000000000e+00