<?xml version="1.0"?>
<VTKFile type="UnstructuredGrid"  version="0.1"  >
<UnstructuredGrid>
<Piece  NumberOfPoints="2468" NumberOfCells="4561">
<Points>
<DataArray  type="Float64"  NumberOfComponents="3"  format="ascii">0.6 0.19 0  0.6 0.21 0  0.2489897949 0.21 0  0.2489897949 0.19 0  0.2493229908289237 0.2082001573176357 0  0.2495900850088183 0.2063893249379136 0  0.2497907194850606 0.2045699297044998 0  0.2499246253710791 0.2027444099368486 0  0.249991623208713 0.2009152121623642 0  0.2499916232087138 0.1990847878376834 0  0.2499246253710817 0.1972555900631988 0  0.2497907194850635 0.1954300702955309 0  0.2495900850088215 0.1936106750621115 0  0.2493229908289279 0.1917998426823893 0  0.2509841710653426 0.21 0  0.2529785472306802 0.21 0  0.2549729233960149 0.21 0  0.2569672995613496 0.21 0  0.2589616757266912 0.21 0  0.2609560518920337 0.21 0  0.2629504280573763 0.21 0  0.2649448042227189 0.21 0  0.2669391803880615 0.21 0  0.268933556553404 0.21 0  0.2709279327187466 0.21 0  0.2729223088840813 0.21 0  0.274916685049416 0.21 0  0.2769110612147507 0.21 0  0.2789054373800853 0.21 0  0.28089981354542 0.21 0  0.2828941897107548 0.21 0  0.2848885658760894 0.21 0  0.2868829420414241 0.21 0  0.2888773182067647 0.21 0  0.2908716943721072 0.21 0  0.2928660705374498 0.21 0  0.2948604467027846 0.21 0  0.2968548228681192 0.21 0  0.2988491990334559 0.21 0  0.3008435751987985 0.21 0  0.3028379513641341 0.21 0  0.3048323275294688 0.21 0  0.3068267036948035 0.21 0  0.3088210798601382 0.21 0  0.3108154560254728 0.21 0  0.3128098321908075 0.21 0  0.3148042083561422 0.21 0  0.3167985845214769 0.21 0  0.3187929606868116 0.21 0  0.3207873368521463 0.21 0  0.3227817130174809 0.21 0  0.3247760891828156 0.21 0  0.3267704653481504 0.21 0  0.328764841513486 0.21 0  0.3307592176788285 0.21 0  0.3327535938441652 0.21 0  0.3347479700094969 0.21 0  0.3367423461748237 0.21 0  0.3387367223401584 0.21 0  0.340731098505498 0.21 0  0.3427254746708386 0.21 0  0.3447198508361733 0.21 0  0.346714227001508 0.21 0  0.3487086031668427 0.21 0  0.3507029793321773 0.21 0  0.352697355497512 0.21 0  0.3546917316628467 0.21 0  0.3566861078281814 0.21 0  0.358680483993516 0.21 0  0.3606748601588508 0.21 0  0.3626692363241854 0.21 0  0.3646636124895201 0.21 0  0.3666579886548548 0.21 0  0.3686523648201895 0.21 0  0.3706467409855281 0.21 0  0.3726411171508697 0.21 0  0.3746354933162044 0.21 0  0.3766298694815331 0.21 0  0.3786242456468629 0.21 0  0.3806186218121976 0.21 0  0.3826129979775401 0.21 0  0.3846073741428778 0.21 0  0.3866017503082125 0.21 0  0.3885961264735471 0.21 0  0.3905905026388887 0.21 0  0.3925848788042274 0.21 0  0.394579254969561 0.21 0  0.3965736311348879 0.21 0  0.3985680073002206 0.21 0  0.4005623834655583 0.21 0  0.4025567596309008 0.21 0  0.4045511357962355 0.21 0  0.4065455119615652 0.21 0  0.408539888126894 0.21 0  0.4105342642922287 0.21 0  0.4125286404575703 0.21 0  0.4145230166229089 0.21 0  0.4165173927882426 0.21 0  0.4185117689535695 0.21 0  0.4205061451189022 0.21 0  0.4225005212842398 0.21 0  0.4244948974495824 0.21 0  0.4264892736149171 0.21 0  0.4284836497802518 0.21 0  0.4304780259455904 0.21 0  0.4324724021109408 0.21 0  0.4344667782762913 0.21 0  0.4364611544416378 0.21 0  0.4384555306069814 0.21 0  0.4404499067723318 0.21 0  0.4424442829376882 0.21 0  0.4444386591030436 0.21 0  0.4464330352683941 0.21 0  0.4484274114337366 0.21 0  0.4504217875990841 0.21 0  0.4524161637644346 0.21 0  0.4544105399297851 0.21 0  0.4564049160951217 0.21 0  0.4583992922604564 0.21 0  0.4603936684257931 0.21 0  0.4623880445911435 0.21 0  0.464382420756494 0.21 0  0.4663767969218385 0.21 0  0.4683711730871732 0.21 0  0.4703655492525158 0.21 0  0.4723599254178682 0.21 0  0.4743543015832246 0.21 0  0.476348677748575 0.21 0  0.4783430539139186 0.21 0  0.4803374300792651 0.21 0  0.4823318062446166 0.21 0  0.4843261824099749 0.21 0  0.4863205585753214 0.21 0  0.488314934740661 0.21 0  0.4903093109059957 0.21 0  0.4923036870713462 0.21 0  0.4942980632366967 0.21 0  0.4962924394020432 0.21 0  0.4982868155673779 0.21 0  0.5002811917327195 0.21 0  0.5022755678980699 0.21 0  0.5042699440634263 0.21 0  0.5062643202287689 0.21 0  0.5082586963941114 0.21 0  0.5102530725594541 0.21 0  0.5122474487247966 0.21 0  0.5142418248901234 0.21 0  0.51623620105546 0.21 0  0.5182305772208027 0.21 0  0.5202249533861452 0.21 0  0.5222193295514876 0.21 0  0.5242137057168381 0.21 0  0.5262080818821946 0.21 0  0.5282024580475371 0.21 0  0.5301968342128798 0.21 0  0.5321912103782283 0.21 0  0.5341855865435865 0.21 0  0.5361799627089292 0.21 0  0.5381743388742717 0.21 0  0.5401687150396142 0.21 0  0.5421630912049569 0.21 0  0.5441574673702856 0.21 0  0.5461518435356203 0.21 0  0.5481462197009628 0.21 0  0.5501405958663055 0.21 0  0.552134972031648 0.21 0  0.5541293481969964 0.21 0  0.5561237243623549 0.21 0  0.5581181005276974 0.21 0  0.56011247669304 0.21 0  0.5621068528583865 0.21 0  0.5641012290237448 0.21 0  0.5660956051890893 0.21 0  0.5680899813544399 0.21 0  0.5700843575197982 0.21 0  0.5720787336851566 0.21 0  0.5740731098504912 0.21 0  0.5760674860158239 0.21 0  0.5780618621811666 0.21 0  0.5800562383465091 0.21 0  0.5820506145118518 0.21 0  0.5840449906771983 0.21 0  0.5860393668425565 0.21 0  0.5880337430079011 0.21 0  0.5900281191732437 0.21 0  0.5920224953385882 0.21 0  0.5940168715039466 0.21 0  0.5960112476692931 0.21 0  0.5980056238346416 0.21 0  0.6 0.2080000000000032 0  0.6 0.2060000000000022 0  0.6 0.2040000000000098 0  0.6 0.202000000000026 0  0.6 0.2000000000000271 0  0.6 0.1980000000000173 0  0.6 0.1960000000000119 0  0.6 0.1940000000000087 0  0.6 0.1919999999999967 0  0.598005623834673 0.19 0  0.5960112476693361 0.19 0  0.5940168715039934 0.19 0  0.5920224953386506 0.19 0  0.5900281191733217 0.19 0  0.5880337430079868 0.19 0  0.5860393668426421 0.19 0  0.5840449906772835 0.19 0  0.5820506145119368 0.19 0  0.5800562383466 0.19 0  0.578061862181273 0.19 0  0.5760674860159303 0.19 0  0.5740731098505875 0.19 0  0.5720787336852486 0.19 0  0.5700843575199217 0.19 0  0.5680899813545948 0.19 0  0.5660956051892598 0.19 0  0.5641012290239171 0.19 0  0.5621068528585743 0.19 0  0.5601124766932434 0.19 0  0.5581181005279106 0.19 0  0.5561237243625677 0.19 0  0.5541293481972093 0.19 0  0.5521349720318606 0.19 0  0.5501405958665218 0.19 0  0.5481462197011947 0.19 0  0.5461518435358678 0.19 0  0.5441574673705407 0.19 0  0.5421630912052138 0.19 0  0.5401687150398868 0.19 0  0.5381743388745598 0.19 0  0.536179962709227 0.19 0  0.5341855865438841 0.19 0  0.5321912103785414 0.19 0  0.5301968342132085 0.19 0  0.5282024580478815 0.19 0  0.5262080818825545 0.19 0  0.5242137057172138 0.19 0  0.522219329551871 0.19 0  0.5202249533865302 0.19 0  0.5182305772212032 0.19 0  0.5162362010558763 0.19 0  0.5142418248905493 0.19 0  0.5122474487252223 0.19 0  0.5102530725598953 0.19 0  0.5082586963945683 0.19 0  0.5062643202292374 0.19 0  0.5042699440638947 0.19 0  0.5022755678985519 0.19 0  0.5002811917332171 0.19 0  0.4982868155678891 0.19 0  0.4962924394025542 0.19 0  0.4942980632372194 0.19 0  0.4923036870718845 0.19 0  0.4903093109065496 0.19 0  0.4883149347412147 0.19 0  0.4863205585758799 0.19 0  0.484326182410543 0.19 0  0.4823318062452003 0.19 0  0.4803374300798645 0.19 0  0.4783430539145335 0.19 0  0.4763486777492055 0.19 0  0.4743543015838707 0.19 0  0.4723599254185299 0.19 0  0.4703655492531901 0.19 0  0.4683711730878552 0.19 0  0.4663767969225282 0.19 0  0.4643824207571963 0.19 0  0.4623880445918594 0.19 0  0.4603936684265167 0.19 0  0.4583992922611808 0.19 0  0.456404916095846 0.19 0  0.4544105399305101 0.19 0  0.4524161637651674 0.19 0  0.4504217875998305 0.19 0  0.4484274114344986 0.19 0  0.4464330352691717 0.19 0  0.4444386591038367 0.19 0  0.4424442829384969 0.19 0  0.4404499067731562 0.19 0  0.4384555306078213 0.19 0  0.4364611544424933 0.19 0  0.4344667782771624 0.19 0  0.4324724021118265 0.19 0  0.4304780259464838 0.19 0  0.4284836497811469 0.19 0  0.4264892736158121 0.19 0  0.4244948974504772 0.19 0  0.4225005212851265 0.19 0  0.4205061451197759 0.19 0  0.4185117689544292 0.19 0  0.4165173927890943 0.19 0  0.4145230166237525 0.19 0  0.4125286404584019 0.19 0  0.4105342642930443 0.19 0  0.4085398881276937 0.19 0  0.406545511962349 0.19 0  0.4045511357970032 0.19 0  0.4025567596316526 0.19 0  0.4005623834662941 0.19 0  0.3985680073009454 0.19 0  0.3965736311356046 0.19 0  0.3945792549702697 0.19 0  0.3925848788049211 0.19 0  0.3905905026395704 0.19 0  0.3885961264742218 0.19 0  0.3866017503088869 0.19 0  0.3846073741435519 0.19 0  0.3826129979782112 0.19 0  0.3806186218128605 0.19 0  0.3786242456475099 0.19 0  0.3766298694821642 0.19 0  0.3746354933168195 0.19 0  0.3726411171514689 0.19 0  0.3706467409861113 0.19 0  0.3686523648207567 0.19 0  0.366657988655407 0.19 0  0.3646636124900643 0.19 0  0.3626692363247156 0.19 0  0.360674860159365 0.19 0  0.3586804839940143 0.19 0  0.3566861078286794 0.19 0  0.3546917316633446 0.19 0  0.3526973554980057 0.19 0  0.3507029793326551 0.19 0  0.3487086031673045 0.19 0  0.3467142270019578 0.19 0  0.344719850836615 0.19 0  0.3427254746712722 0.19 0  0.3407310985059295 0.19 0  0.3387367223405868 0.19 0  0.336742346175244 0.19 0  0.3347479700099012 0.19 0  0.3327535938445585 0.19 0  0.3307592176792157 0.19 0  0.328764841513873 0.19 0  0.3267704653485233 0.19 0  0.3247760891831727 0.19 0  0.322781713017822 0.19 0  0.3207873368524713 0.19 0  0.3187929606871208 0.19 0  0.3167985845217701 0.19 0  0.3148042083564194 0.19 0  0.3128098321910688 0.19 0  0.3108154560257231 0.19 0  0.3088210798603803 0.19 0  0.3068267036950376 0.19 0  0.3048323275296948 0.19 0  0.302837951364352 0.19 0  0.3008435751990093 0.19 0  0.2988491990336665 0.19 0  0.2968548228683238 0.19 0  0.294860446702981 0.19 0  0.2928660705376383 0.19 0  0.2908716943722877 0.19 0  0.288877318206937 0.19 0  0.2868829420415864 0.19 0  0.2848885658762357 0.19 0  0.282894189710885 0.19 0  0.2808998135455344 0.19 0  0.2789054373801838 0.19 0  0.2769110612148331 0.19 0  0.2749166850
[...]
<PointData  Vectors="f_17-0"> 
<DataArray  type="Float64"  Name="f_17-0"  NumberOfComponents="3" format="ascii">5.5914172602831828e-05 3.6020299547612914e-03 0.0000000000000000e+00  5.2194729714311866e-05 3.6020339431682862e-03 0.0000000000000000e+00  0.0000000000000000e+00 3.9075172247850376e-08 0.0000000000000000e+00  2.8963392267582292e-04 -8.3071757918252347e-05 0.0000000000000000e+00  0.0000000000000000e+00 0.0000000000000000e+00 0.0000000000000000e+00  -9.8907242389734382e-08 -2.0816892214170321e-06 0.0000000000000000e+00  2.9108010866534474e-06 -2.3896695465291297e-06 0.0000000000000000e+00  0.0000000000000000e+00 0.0000000000000000e+00 0.0000000000000000e+00  1.6380435215055389e-05 -9.5657935639707383e-06 0.0000000000000000e+00  5.8943191104954936e-06 -1.2052220179307189e-05 0.0000000000000000e+00  5.3556102723977403e-05 -5.3560437196156802e-05 0.0000000000000000e+00  1.3560420060148681e-04 -6.1552620711021396e-05 0.0000000000000000e+00  1.9355937098733750e-04 -6.8395517254097083e-05 0.0000000000000000e+00  2.4316635342933504e-04 -7.4541021856227972e-05 0.0000000000000000e+00  0.0000000000000000e+00 3.1453254159147089e-06 0.0000000000000000e+00  -6.6467275182724383e-06 5.0920363236056907e-06 0.0000000000000000e+00  -1.3933006147899600e-05 7.0971892117973489e-06 0.0000000000000000e+00  -2.3226952354120970e-05 1.2883764875442714e-05 0.0000000000000000e+00  -3.2242758316717051e-05 1.8002633868430392e-05 0.0000000000000000e+00  -3.7351975385902643e-05 7.5870197169325971e-07 0.0000000000000000e+00  -1.0104254483876770e-04 7.6592368416136792e-05 0.0000000000000000e+00  -1.3153268072562817e-04 1.9474778505269033e-04 0.0000000000000000e+00  -1.6402674129746073e-04 2.7840980005463726e-04 0.0000000000000000e+00  -1.8858064361331405e-04 3.6742266196386269e-04 0.0000000000000000e+00  -2.1090591392442350e-04 4.5313418194175783e-04 0.0000000000000000e+00  -2.3083460490236688e-04 5.3960093521478528e-04 0.0000000000000000e+00  -2.4877890782619010e-04 6.2707459709629855e-04 0.0000000000000000e+00  -2.6470177103754495e-04 7.1688368756121952e-04 0.0000000000000000e+00  -2.7876256307853345e-04 8.0790600547123441e-04 0.0000000000000000e+00  -2.9059907074535890e-04 9.0138899246291950e-04 0.0000000000000000e+00  -3.0102430572554866e-04 9.9526084882697852e-04 0.0000000000000000e+00  -3.0911209987093396e-04 1.0907609543421009e-03 0.0000000000000000e+00  -3.1534047812742838e-04 1.1864670069430298e-03 0.0000000000000000e+00  -3.1995144592418090e-04 1.2829769766183139e-03 0.0000000000000000e+00  -3.2268018223411532e-04 1.3796253597909878e-03 0.0000000000000000e+00  -3.2403235224579696e-04 1.4751611036220870e-03 0.0000000000000000e+00  -3.2387777178444644e-04 1.5711710577231532e-03 0.0000000000000000e+00  -3.2260284727686668e-04 1.6655206027202322e-03 0.0000000000000000e+00  -3.1983299807924163e-04 1.7595894021875584e-03 0.0000000000000000e+00  -3.1625769311222649e-04 1.8517679454318190e-03 0.0000000000000000e+00  -3.1150225056201088e-04 1.9427315136791607e-03 0.0000000000000000e+00  -3.0561612021260228e-04 2.0313511643657712e-03 0.0000000000000000e+00  -2.9905107642277609e-04 2.1189199928886718e-03 0.0000000000000000e+00  -2.9185684618016240e-04 2.2047860007283118e-03 0.0000000000000000e+00  -2.8373524955922102e-04 2.2880644012050482e-03 0.0000000000000000e+00  -2.7515128842492631e-04 2.3691795987532726e-03 0.0000000000000000e+00  -2.6603512187924354e-04 2.4478793515374151e-03 0.0000000000000000e+00  -2.5595599107054587e-04 2.5245276016809624e-03 0.0000000000000000e+00  -2.4605464269150917e-04 2.5985725370456206e-03 0.0000000000000000e+00  -2.3567807440167310e-04 2.6700578925861924e-03 0.0000000000000000e+00  -2.2546967525241890e-04 2.7393535541037572e-03 0.0000000000000000e+00  -2.1463748089738032e-04 2.8057912225696344e-03 0.0000000000000000e+00  -2.0363946596479049e-04 2.8697371443927610e-03 0.0000000000000000e+00  -1.9298057773124927e-04 2.9308968019518310e-03 0.0000000000000000e+00  -1.8127287420713226e-04 2.9898865523192101e-03 0.0000000000000000e+00  -1.7017069360969174e-04 3.0459877117942550e-03 0.0000000000000000e+00  -1.5856838990702284e-04 3.0993925642227188e-03 0.0000000000000000e+00  -1.4798299500603561e-04 3.1506287152186859e-03 0.0000000000000000e+00  -1.3694553009135687e-04 3.1989824170279815e-03 0.0000000000000000e+00  -1.2586045987998987e-04 3.2452145412744699e-03 0.0000000000000000e+00  -1.1494045043187152e-04 3.2886114985291376e-03 0.0000000000000000e+00  -1.0432975692939213e-04 3.3300586186136333e-03 0.0000000000000000e+00  -9.4074278206109782e-05 3.3688321996663689e-03 0.0000000000000000e+00  -8.3926170004261058e-05 3.4050127766207432e-03 0.0000000000000000e+00  -7.3875325799539412e-05 3.4393877965512554e-03 0.0000000000000000e+00  -6.4042490236686174e-05 3.4712200380541398e-03 0.0000000000000000e+00  -5.4546938468532875e-05 3.5014669418920760e-03 0.0000000000000000e+00  -4.5585480979526577e-05 3.5294110633682682e-03 0.0000000000000000e+00  -3.6686160749552261e-05 3.5550354231142088e-03 0.0000000000000000e+00  -2.8021599205053568e-05 3.5790822014691768e-03 0.0000000000000000e+00  -1.9624219967358327e-05 3.6009837486197442e-03 0.0000000000000000e+00  -1.1620846677415472e-05 3.6215944440248925e-03 0.0000000000000000e+00  -4.0215275319730905e-06 3.6402186811812487e-03 0.0000000000000000e+00  3.2776044020418140e-06 3.6569092916153949e-03 0.0000000000000000e+00  1.0338114770902868e-05 3.6723259594152115e-03 0.0000000000000000e+00  1.7147659844771979e-05 3.6859959418210505e-03 0.0000000000000000e+00  2.3605312789669811e-05 3.6985530468972719e-03 0.0000000000000000e+00  2.9484316879087593e-05 3.7095908934552712e-03 0.0000000000000000e+00  3.5223510422903059e-05 3.7192540087695467e-03 0.0000000000000000e+00  4.0717018243621135e-05 3.7277478513794110e-03 0.0000000000000000e+00  4.5923889535118186e-05 3.7348817536094463e-03 0.0000000000000000e+00  5.0732873352901135e-05 3.7412904324521483e-03 0.0000000000000000e+00  5.5210927987988822e-05 3.7465238533450633e-03 0.0000000000000000e+00  5.9417767131619327e-05 3.7506096445797674e-03 0.0000000000000000e+00  6.3369391153816310e-05 3.7539134103676056e-03 0.0000000000000000e+00  6.7074495323343446e-05 3.7562676270305696e-03 0.0000000000000000e+00  7.0505191355175009e-05 3.7580697575412170e-03 0.0000000000000000e+00  7.3565630319511353e-05 3.7589957065164736e-03 0.0000000000000000e+00  7.6373974734681325e-05 3.7593083058396724e-03 0.0000000000000000e+00  7.8956547468978959e-05 3.7589126280490716e-03 0.0000000000000000e+00  8.1322662288324827e-05 3.7580022043034343e-03 0.0000000000000000e+00  8.3497602739106595e-05 3.7566065043170955e-03 0.0000000000000000e+00  8.5513509828807595e-05 3.7545702704785077e-03 0.0000000000000000e+00  8.7181869622988004e-05 3.7522357147033582e-03 0.0000000000000000e+00  8.8682242251120208e-05 3.7493749695890473e-03 0.0000000000000000e+00  8.9958425043686603e-05 3.7464061104251706e-03 0.0000000000000000e+00  9.1080496992811450e-05 3.7429862657619175e-03 0.0000000000000000e+00  9.2086702673682057e-05 3.7392670109620265e-03 0.0000000000000000e+00  9.2863029651966465e-05 3.7354212682827832e-03 0.0000000000000000e+00  9.3479726465055298e-05 3.7312241325400744e-03 0.0000000000000000e+00  9.3930805816355744e-05 3.7270070562306487e-03 0.0000000000000000e+00  9.4251743527874526e-05 3.7225575403484327e-03 0.0000000000000000e+00  9.4452032937683122e-05 3.7180002972752170e-03 0.0000000000000000e+00  9.4501486643223747e-05 3.7134069290866972e-03 0.0000000000000000e+00  9.4464404796920548e-05 3.7087044716309493e-03 0.0000000000000000e+00  9.4297998384588227e-05 3.7040017726234094e-03 0.0000000000000000e+00  9.4039641475803057e-05 3.6992245163159064e-03 0.0000000000000000e+00  9.3694117303125127e-05 3.6945258606159706e-03 0.0000000000000000e+00  9.3256815639961553e-05 3.6897824047233988e-03 0.0000000000000000e+00  9.2743996581419198e-05 3.6850990297612150e-03 0.0000000000000000e+00  9.2164523406712930e-05 3.6805059584924232e-03 0.0000000000000000e+00  9.1516300674803573e-05 3.6759083594097752e-03 0.0000000000000000e+00  9.0813128189272741e-05 3.6714458810546196e-03 0.0000000000000000e+00  9.0039653927515717e-05 3.6670346145801338e-03 0.0000000000000000e+00  8.9235539460654826e-05 3.6627347885987717e-03 0.0000000000000000e+00  8.8383904217422194e-05 3.6585527899276982e-03 0.0000000000000000e+00  8.7507833187725493e-05 3.6544810185148591e-03 0.0000000000000000e+00  8.6600261911420412e-05 3.6505273666900596e-03 0.0000000000000000e+00  8.5680022124437082e-05 3.6467077094408606e-03 0.0000000000000000e+00  8.4719177024851117e-05 3.6430219163224630e-03 0.0000000000000000e+00  8.3737377011255712e-05 3.6394425506711910e-03 0.0000000000000000e+00  8.2746309450856958e-05 3.6360276645252803e-03 0.0000000000000000e+00  8.1752023437870947e-05 3.6327372777326160e-03 0.0000000000000000e+00  8.0759703002708947e-05 3.6296001616044180e-03 0.0000000000000000e+00  7.9754905654202995e-05 3.6266192164370187e-03 0.0000000000000000e+00  7.8747307051702366e-05 3.6237592433691723e-03 0.0000000000000000e+00  7.7745357052778913e-05 3.6210667111128267e-03 0.0000000000000000e+00  7.6752820332276080e-05 3.6184940663522057e-03 0.0000000000000000e+00  7.5789365253473235e-05 3.6160628853958380e-03 0.0000000000000000e+00  7.4819983272849416e-05 3.6137827365238032e-03 0.0000000000000000e+00  7.3863586461181153e-05 3.6116257849011396e-03 0.0000000000000000e+00  7.2921663092801942e-05 3.6095999578166522e-03 0.0000000000000000e+00  7.2005092635998020e-05 3.6077271459285772e-03 0.0000000000000000e+00  7.1075991943940120e-05 3.6059761298732093e-03 0.0000000000000000e+00  7.0198181620757016e-05 3.6043368701406879e-03 0.0000000000000000e+00  6.9325252627618577e-05 3.6028399286140186e-03 0.0000000000000000e+00  6.8493188930431287e-05 3.6014319492711634e-03 0.0000000000000000e+00  6.7669676883099069e-05 3.6001437234479002e-03 0.0000000000000000e+00  6.6866452606151688e-05 3.5990000525437053e-03 0.0000000000000000e+00  6.6079969623873328e-05 3.5979049084326870e-03 0.0000000000000000e+00  6.5339773664462375e-05 3.5969427226007376e-03 0.0000000000000000e+00  6.4618235284576473e-05 3.5960683314791297e-03 0.0000000000000000e+00  6.3914343893844999e-05 3.5952952927969157e-03 0.0000000000000000e+00  6.3237659838639908e-05 3.5946150304191657e-03 0.0000000000000000e+00  6.2596570290075250e-05 3.5939991202306562e-03 0.0000000000000000e+00  6.1973595873690923e-05 3.5934757092487219e-03 0.0000000000000000e+00  6.1369490055284724e-05 3.5930216983716726e-03 0.0000000000000000e+00  6.0806736989437367e-05 3.5926388441777429e-03 0.0000000000000000e+00  6.0247198498017632e-05 3.5923301877681087e-03 0.0000000000000000e+00  5.9730275710964170e-05 3.5920623485075662e-03 0.0000000000000000e+00  5.9237571051018533e-05 3.5918781655411712e-03 0.0000000000000000e+00  5.8743969692046362e-05 3.5917373152599586e-03 0.0000000000000000e+00  5.8289364086111510e-05 3.5916439960253883e-03 0.0000000000000000e+00  5.7857954043650354e-05 3.5916038244500378e-03 0.0000000000000000e+00  5.7452147752522400e-05 3.5916001384723125e-03 0.0000000000000000e+00  5.7064778604295500e-05 3.5916399841541546e-03 0.0000000000000000e+00  5.6694376032409064e-05 3.5917211907713921e-03 0.0000000000000000e+00  5.6341881517789958e-05 3.5918371687462592e-03 0.0000000000000000e+00  5.6010810232771928e-05 3.5919789769361635e-03 0.0000000000000000e+00  5.5702641353919784e-05 3.5921480194191710e-03 0.0000000000000000e+00  5.5410327970412262e-05 3.5923478859755556e-03 0.0000000000000000e+00  5.5132912488951254e-05 3.5925684032880553e-03 0.0000000000000000e+00  5.4878657661571081e-05 3.5928089649461467e-03 0.0000000000000000e+00  5.4635742405089412e-05 3.5930726922016355e-03 0.0000000000000000e+00  5.4409784392474456e-05 3.5933463056606455e-03 0.0000000000000000e+00  5.4198157622175828e-05 3.5936371809099678e-03 0.0000000000000000e+00  5.3999821460559205e-05 3.5939433345723911e-03 0.0000000000000000e+00  5.3817488434657062e-05 3.5942533083116136e-03 0.0000000000000000e+00  5.3648718954306115e-05 3.5945811625073274e-03 0.0000000000000000e+00  5.3487581249770867e-05 3.5949149916594189e-03 0.0000000000000000e+00  5.3341832289658236e-05 3.5952526193797304e-03 0.0000000000000000e+00  5.3207137409884531e-05 3.5956012427090208e-03 0.0000000000000000e+00  5.3083097114541188e-05 3.5959468552177196e-03 0.0000000000000000e+00  5.2967866210872273e-05 3.5963028459398390e-03 0.0000000000000000e+00  5.2863908424153059e-05 3.5966574956834848e-03 0.0000000000000000e+00  5.2768341416436504e-05 3.5970167519432947e-03 0.0000000000000000e+00  5.2681004875512563e-05 3.5973759793318841e-03 0.0000000000000000e+00  5.2603742298254410e-05 3.5977356243161525e-03 0.0000000000000000e+00  5.2533482685700566e-05 3.5980983281642489e-03 0.0000000000000000e+00  5.2471033598126830e-05 3.5984583927119057e-03 0.0000000000000000e+00  5.2416360877964286e-05 3.5988187841316465e-03 0.0000000000000000e+00  5.2367992510599581e-05 3.5991798801826079e-03 0.0000000000000000e+00  5.2325557480882859e-05 3.5995392653656861e-03 0.0000000000000000e+00  5.2289997695134387e-05 3.5998981530495889e-03 0.0000000000000000e+00  5.2260660994324607e-05 3.6002558263250948e-03 0.0000000000000000e+00  5.2237062843042593e-05 3.6006123910572287e-03 0.0000000000000000e+00  5.2218703555652431e-05 3.6009688196554030e-03 0.0000000000000000e+00  5.2207225966461298e-05 3.6013241088618995e-03 0.0000000000000000e+00  5.2197722778171435e-05 3.6016791291682377e-03 0.0000000000000000e+00  5.2552154713018690e-05 3.6020337836407436e-03 0.0000000000000000e+00  5.2913223940054095e-05 3.6020325688230809e-03 0.0000000000000000e+00  5.3275834582009066e-05 3.6020314983467917e-03 0.0000000000000000e+00  5.3642335672052043e-05 3.6020318299198099e-03 0.0000000000000000e+00  5.4011263022040266e-05 3.6020308539378848e-03 0.0000000000000000e+00  5.4385339380919616e-05 3.6020299599072857e-03 0.0000000000000000e+00  5.4761810071027306e-05 3.6020305651398216e-03 0.0000000000000000e+00  5.5142667787700579e-05 3.6020303937896597e-03 0.0000000000000000e+00  5.5526284088028665e-05 3.6020299589177409e-03 0.0000000000000000e+00  5.5917343429145216e-05 3.6016417758081187e-03 0.0000000000000000e+00  5.5927486706212715e-05 3.6012522594194131e-03 0.0000000000000000e+00  5.5939803073978473e-05 3.6008634762249004e-03 0.0000000000000000e+00  5.5959013811279856e-05 3.6004722445954051e-03 0.0000000000000000e+00  5.5982612126040096e-05 3.6000799588140381e-03 0.0000000000000000e+00  5.6011037281743512e-05 3.5996870953028414e-03 0.0000000000000000e+00  5.6043969018348478e-05 3.5992928420383280e-03 0.0000000000000000e+00  5.6081412845385083e-05 3.5988982890928179e-03 0.0000000000000000e+00  5.6122810661880542e-05 3.5985030048652925e-03 0.0000000000000000e+00  5.6167377537668032e-05 3.5981066023583483e-03 0.0000000000000000e+00  5.6215798673152634e-05 3.5977107119308503e-03 0.0000000000000000e+00  5.6266877295593755e-05 3.5973136039309751e-03 0.0000000000000000e+00  5.6320723060817244e-05 3.5969181898043898e-03 0.0000000000000000e+00  5.6376814978451732e-05 3.5965225954873027e-03 0.0000000000000000e+00  5.6434593133288845e-05 3.5961293264432544e-03 0.0000000000000000e+00  5.6492419873899579e-05 3.5957376963547776e-03 0.0000000000000000e+00  5.6552531364984921e-05 3.5953496576230063e-03 0.0000000000000000e+00  5.6614055944031184e-05 3.5949644555761779e-03 0.0000000000000000e+00  5.6674952765152126e-05 3.5945829946820640e-03 0.0000000000000000e+00  5.6734997176826364e-05 3.5942077206088268e-03 0.0000000000000000e+00  5.6792852088188244e-05 3.5938409932285988e-03 0.0000000000000000e+00  5.6848587734662698e-05 3.5934795170974262e-03 0.0000000000000000e+00  5.6902856627342030e-05 3.5931298053143903e-03 0.0000000000000000e+00  5.6953256794741858e-05 3.5927898488519764e-03 0.0000000000000000e+00  5.6999474222271113e-05 3.5924637956062195e-03 0.0000000000000000e+00  5.7043311537400392e-05 3.5921497998088860e-03 0.0000000000000000e+00  5.7082021951016790e-05 3.5918528807446426e-03 0.0000000000000000e+00  5.7118171064967175e-05 3.5915787130021870e-03 0.0000000000000000e+00  5.7143275716674770e-05 3.5913213509832088e-03 0.0000000000000000e+00  5.7165358746246955e-05 3.5910887719777800e-03 0.0000000000000000e+00  5.7171380230769632e-05 3.5908856500132583e-03 0.0000000000000000e+00  5.7181214130619364e-05 3.5906966290541725e-03 0.0000000000000000e+00  5.7181720059858134e-05 3.5905508635133755e-03 0.0000000000000000e+00  5.7171290925991372e-05 3.5904397116157281e-03 0.0000000000000000e+00  5.7141207049284687e-05 3.5903570494778604e-03 0.0000000000000000e+00  5.7109951679515451e-05 3.5903219620506631e-03 0.0000000000000000e+00  5.7066798998313684e-05 3.5903253575083143e-03 0.0000000000000000e+00  5.7012298473365620e-05 3.5903848317761556e-03 0.0000000000000000e+00  5.6942911541721510e-05 3.5904840121411801e-03 0.0000000000000000e+00  5.6856311124532779e-05 3.5906454207322042e-03 0.0000000000000000e+00  5.6762209250001403e-05 3.5908647211280635e-03 0.0000000000000000e+00  5.6658898460560763e-05 3.5911410186017217e-03 0.0000000000000000e+00  5.6544883828923777e-05 3.5914915267859656e-03 0.0000000000000000e+00  5.6403384327076398e-05 3.5919022145786779e-03 0.0000000000000000e+00  5.6257823823229578e-05 3.5923969072838794e-03 0.0000000000000000e+00  5.6084113981338616e-05 3.5929778551013953e-03 0.0000000000000000e+00  5.5925050780176217e-05 3.5936007007560046e-03 0.0000000000000000e+00  5.5723466670577102e-05 3.5943562182850978e-03 0.0000000000000000e+00  5.5527457291336422e-05 3.5951851409181533e-03 0.0000000000000000e+00  5.5307567874617180e-05 3.5961197988189108e-03 0.0000000000000000e+00  5.5059064565580112e-05 3.5971570048642068e-03 0.0000000000000000e+00  5.4831078584263727e-05 3.5982872280720360e-03 0.0000000000000000e+00  5.4570954458831280e-05 3.5995460646383861e-03 0.0000000000000000e+00  5.4303535320200994e-05 3.6008836747053298e-03 0.0000000000000000e+00  5.4026288606750505e-05 3.6023506868001699e-03 0.0000000000000000e+00  5.3744448983579583e-05 3.6039632354813288e-03 0.0000000000000000e+00  5.3428395136166731e-05 3.6056740201092295e-03 0.0000000000000000e+00  5.3129094356403881e-05 3.6075123104406482e-03 0.0000000000000000e+00  5.2823294545971590e-05 3.6094856346198584e-03 0.0000000000000000e+00  5.2505412145380168e-05 3.6116049585591223e-03 0.0000000000000000e+00  5.2194743866922197e-05 3.6138548998219514e-03 0.0000000000000000e+00  5.1890454204537594e-05 3.6162412774314004e-03 0.0000000000000000e+00  5.1577716763239396e-05 3.6187803896796942e-03 0.0000000000000000e+00  5.1264717078382088e-05 3.6214390070172732e-03 0.0000000000000000e+00  5.0959938028061921e-05 3.6242662104500689e-03 0.0000000000000000e+00  5.0665553069768020e-05 3.6272103930445453e-03 0.0000000000000000e+00  5.0407359381820940e-05 3.6303079084347317e-03 0.0000000000000000e+00  5.0145116714028533e-05 3.6335538651403000e-03 0.0000000000000000e+00  4.9900594417727144e-05 3.6369303451640957e-03 0.0000000000000000e+00  4.9678349669844215e-05 3.6404676861984983e-03 0.0000000000000000e+00  4.9492070205931522e-05 3.6441029580090785e-03 0.0000000000000000e+00  4.9343774843882156e-05 3.6478833960092842e-03 0.0000000000000000e+00  4.9234636192107889e-05 3.6518021181311654e-03 0.0000000000000000e+00  4.9161360778417848e-05 3.6558417143875651e-03 0.0000000000000000e+00  4.9135385980449266e-05 3.6599935781209451e-03 0.0000000000000000e+00  4.9157485597682484e-05 3.6642365838817576e-03 0.0000000000000000e+00  4.9227440876920422e-05 3.6686126778978532e-03 0.0000000000000000e+00  4.9382603315965636e-05 3.6730383717261655e-03 0.0000000000000000e+00  4.9603047565533082e-05 3.6775943497786641e-03 0.0000000000000000e+00  4.9902557794979792e-05 3.6821501781322077e-03 0.0000000000000000e+00  5.0281516494814605e-05 3.6867992971976065e-03 0.0000000000000000e+00  5.0750468055197675e-05 3.6914810683791096e-03 0.0000000000000000e+00  5.1303706694774199e-05 3.6961714102848610e-03 0.0000000000000000e+00  5.1959796782036829e-05 3.7008776196678981e-03 0.0000000000000000e+00  5.2744388756035761e-05 3.7055282248966951e-03 0.0000000000000000e+00  5.36605631