<?xml version="1.0"?>
<VTKFile type="UnstructuredGrid"  version="0.1"  >
<UnstructuredGrid>
<Piece  NumberOfPoints="2468" NumberOfCells="4561">
<Points>
<DataArray  type="Float64"  NumberOfComponents="3"  format="ascii">0.6 0.19 0  0.6 0.21 0  0.2489897949 0.21 0  0.2489897949 0.19 0  0.2493229908289237 0.2082001573176357 0  0.2495900850088183 0.2063893249379136 0  0.2497907194850606 0.2045699297044998 0  0.2499246253710791 0.2027444099368486 0  0.249991623208713 0.2009152121623642 0  0.2499916232087138 0.1990847878376834 0  0.2499246253710817 0.1972555900631988 0  0.2497907194850635 0.1954300702955309 0  0.2495900850088215 0.1936106750621115 0  0.2493229908289279 0.1917998426823893 0  0.2509841710653426 0.21 0  0.2529785472306802 0.21 0  0.2549729233960149 0.21 0  0.2569672995613496 0.21 0  0.2589616757266912 0.21 0  0.2609560518920337 0.21 0  0.2629504280573763 0.21 0  0.2649448042227189 0.21 0  0.2669391803880615 0.21 0  0.268933556553404 0.21 0  0.2709279327187466 0.21 0  0.2729223088840813 0.21 0  0.274916685049416 0.21 0  0.2769110612147507 0.21 0  0.2789054373800853 0.21 0  0.28089981354542 0.21 0  0.2828941897107548 0.21 0  0.2848885658760894 0.21 0  0.2868829420414241 0.21 0  0.2888773182067647 0.21 0  0.2908716943721072 0.21 0  0.2928660705374498 0.21 0  0.2948604467027846 0.21 0  0.2968548228681192 0.21 0  0.2988491990334559 0.21 0  0.3008435751987985 0.21 0  0.3028379513641341 0.21 0  0.3048323275294688 0.21 0  0.3068267036948035 0.21 0  0.3088210798601382 0.21 0  0.3108154560254728 0.21 0  0.3128098321908075 0.21 0  0.3148042083561422 0.21 0  0.3167985845214769 0.21 0  0.3187929606868116 0.21 0  0.3207873368521463 0.21 0  0.3227817130174809 0.21 0  0.3247760891828156 0.21 0  0.3267704653481504 0.21 0  0.328764841513486 0.21 0  0.3307592176788285 0.21 0  0.3327535938441652 0.21 0  0.3347479700094969 0.21 0  0.3367423461748237 0.21 0  0.3387367223401584 0.21 0  0.340731098505498 0.21 0  0.3427254746708386 0.21 0  0.3447198508361733 0.21 0  0.346714227001508 0.21 0  0.3487086031668427 0.21 0  0.3507029793321773 0.21 0  0.352697355497512 0.21 0  0.3546917316628467 0.21 0  0.3566861078281814 0.21 0  0.358680483993516 0.21 0  0.3606748601588508 0.21 0  0.3626692363241854 0.21 0  0.3646636124895201 0.21 0  0.3666579886548548 0.21 0  0.3686523648201895 0.21 0  0.3706467409855281 0.21 0  0.3726411171508697 0.21 0  0.3746354933162044 0.21 0  0.3766298694815331 0.21 0  0.3786242456468629 0.21 0  0.3806186218121976 0.21 0  0.3826129979775401 0.21 0  0.3846073741428778 0.21 0  0.3866017503082125 0.21 0  0.3885961264735471 0.21 0  0.3905905026388887 0.21 0  0.3925848788042274 0.21 0  0.394579254969561 0.21 0  0.3965736311348879 0.21 0  0.3985680073002206 0.21 0  0.4005623834655583 0.21 0  0.4025567596309008 0.21 0  0.4045511357962355 0.21 0  0.4065455119615652 0.21 0  0.408539888126894 0.21 0  0.4105342642922287 0.21 0  0.4125286404575703 0.21 0  0.4145230166229089 0.21 0  0.4165173927882426 0.21 0  0.4185117689535695 0.21 0  0.4205061451189022 0.21 0  0.4225005212842398 0.21 0  0.4244948974495824 0.21 0  0.4264892736149171 0.21 0  0.4284836497802518 0.21 0  0.4304780259455904 0.21 0  0.4324724021109408 0.21 0  0.4344667782762913 0.21 0  0.4364611544416378 0.21 0  0.4384555306069814 0.21 0  0.4404499067723318 0.21 0  0.4424442829376882 0.21 0  0.4444386591030436 0.21 0  0.4464330352683941 0.21 0  0.4484274114337366 0.21 0  0.4504217875990841 0.21 0  0.4524161637644346 0.21 0  0.4544105399297851 0.21 0  0.4564049160951217 0.21 0  0.4583992922604564 0.21 0  0.4603936684257931 0.21 0  0.4623880445911435 0.21 0  0.464382420756494 0.21 0  0.4663767969218385 0.21 0  0.4683711730871732 0.21 0  0.4703655492525158 0.21 0  0.4723599254178682 0.21 0  0.4743543015832246 0.21 0  0.476348677748575 0.21 0  0.4783430539139186 0.21 0  0.4803374300792651 0.21 0  0.4823318062446166 0.21 0  0.4843261824099749 0.21 0  0.4863205585753214 0.21 0  0.488314934740661 0.21 0  0.4903093109059957 0.21 0  0.4923036870713462 0.21 0  0.4942980632366967 0.21 0  0.4962924394020432 0.21 0  0.4982868155673779 0.21 0  0.5002811917327195 0.21 0  0.5022755678980699 0.21 0  0.5042699440634263 0.21 0  0.5062643202287689 0.21 0  0.5082586963941114 0.21 0  0.5102530725594541 0.21 0  0.5122474487247966 0.21 0  0.5142418248901234 0.21 0  0.51623620105546 0.21 0  0.5182305772208027 0.21 0  0.5202249533861452 0.21 0  0.5222193295514876 0.21 0  0.5242137057168381 0.21 0  0.5262080818821946 0.21 0  0.5282024580475371 0.21 0  0.5301968342128798 0.21 0  0.5321912103782283 0.21 0  0.5341855865435865 0.21 0  0.5361799627089292 0.21 0  0.5381743388742717 0.21 0  0.5401687150396142 0.21 0  0.5421630912049569 0.21 0  0.5441574673702856 0.21 0  0.5461518435356203 0.21 0  0.5481462197009628 0.21 0  0.5501405958663055 0.21 0  0.552134972031648 0.21 0  0.5541293481969964 0.21 0  0.5561237243623549 0.21 0  0.5581181005276974 0.21 0  0.56011247669304 0.21 0  0.5621068528583865 0.21 0  0.5641012290237448 0.21 0  0.5660956051890893 0.21 0  0.5680899813544399 0.21 0  0.5700843575197982 0.21 0  0.5720787336851566 0.21 0  0.5740731098504912 0.21 0  0.5760674860158239 0.21 0  0.5780618621811666 0.21 0  0.5800562383465091 0.21 0  0.5820506145118518 0.21 0  0.5840449906771983 0.21 0  0.5860393668425565 0.21 0  0.5880337430079011 0.21 0  0.5900281191732437 0.21 0  0.5920224953385882 0.21 0  0.5940168715039466 0.21 0  0.5960112476692931 0.21 0  0.5980056238346416 0.21 0  0.6 0.2080000000000032 0  0.6 0.2060000000000022 0  0.6 0.2040000000000098 0  0.6 0.202000000000026 0  0.6 0.2000000000000271 0  0.6 0.1980000000000173 0  0.6 0.1960000000000119 0  0.6 0.1940000000000087 0  0.6 0.1919999999999967 0  0.598005623834673 0.19 0  0.5960112476693361 0.19 0  0.5940168715039934 0.19 0  0.5920224953386506 0.19 0  0.5900281191733217 0.19 0  0.5880337430079868 0.19 0  0.5860393668426421 0.19 0  0.5840449906772835 0.19 0  0.5820506145119368 0.19 0  0.5800562383466 0.19 0  0.578061862181273 0.19 0  0.5760674860159303 0.19 0  0.5740731098505875 0.19 0  0.5720787336852486 0.19 0  0.5700843575199217 0.19 0  0.5680899813545948 0.19 0  0.5660956051892598 0.19 0  0.5641012290239171 0.19 0  0.5621068528585743 0.19 0  0.5601124766932434 0.19 0  0.5581181005279106 0.19 0  0.5561237243625677 0.19 0  0.5541293481972093 0.19 0  0.5521349720318606 0.19 0  0.5501405958665218 0.19 0  0.5481462197011947 0.19 0  0.5461518435358678 0.19 0  0.5441574673705407 0.19 0  0.5421630912052138 0.19 0  0.5401687150398868 0.19 0  0.5381743388745598 0.19 0  0.536179962709227 0.19 0  0.5341855865438841 0.19 0  0.5321912103785414 0.19 0  0.5301968342132085 0.19 0  0.5282024580478815 0.19 0  0.5262080818825545 0.19 0  0.5242137057172138 0.19 0  0.522219329551871 0.19 0  0.5202249533865302 0.19 0  0.5182305772212032 0.19 0  0.5162362010558763 0.19 0  0.5142418248905493 0.19 0  0.5122474487252223 0.19 0  0.5102530725598953 0.19 0  0.5082586963945683 0.19 0  0.5062643202292374 0.19 0  0.5042699440638947 0.19 0  0.5022755678985519 0.19 0  0.5002811917332171 0.19 0  0.4982868155678891 0.19 0  0.4962924394025542 0.19 0  0.4942980632372194 0.19 0  0.4923036870718845 0.19 0  0.4903093109065496 0.19 0  0.4883149347412147 0.19 0  0.4863205585758799 0.19 0  0.484326182410543 0.19 0  0.4823318062452003 0.19 0  0.4803374300798645 0.19 0  0.4783430539145335 0.19 0  0.4763486777492055 0.19 0  0.4743543015838707 0.19 0  0.4723599254185299 0.19 0  0.4703655492531901 0.19 0  0.4683711730878552 0.19 0  0.4663767969225282 0.19 0  0.4643824207571963 0.19 0  0.4623880445918594 0.19 0  0.4603936684265167 0.19 0  0.4583992922611808 0.19 0  0.456404916095846 0.19 0  0.4544105399305101 0.19 0  0.4524161637651674 0.19 0  0.4504217875998305 0.19 0  0.4484274114344986 0.19 0  0.4464330352691717 0.19 0  0.4444386591038367 0.19 0  0.4424442829384969 0.19 0  0.4404499067731562 0.19 0  0.4384555306078213 0.19 0  0.4364611544424933 0.19 0  0.4344667782771624 0.19 0  0.4324724021118265 0.19 0  0.4304780259464838 0.19 0  0.4284836497811469 0.19 0  0.4264892736158121 0.19 0  0.4244948974504772 0.19 0  0.4225005212851265 0.19 0  0.4205061451197759 0.19 0  0.4185117689544292 0.19 0  0.4165173927890943 0.19 0  0.4145230166237525 0.19 0  0.4125286404584019 0.19 0  0.4105342642930443 0.19 0  0.4085398881276937 0.19 0  0.406545511962349 0.19 0  0.4045511357970032 0.19 0  0.4025567596316526 0.19 0  0.4005623834662941 0.19 0  0.3985680073009454 0.19 0  0.3965736311356046 0.19 0  0.3945792549702697 0.19 0  0.3925848788049211 0.19 0  0.3905905026395704 0.19 0  0.3885961264742218 0.19 0  0.3866017503088869 0.19 0  0.3846073741435519 0.19 0  0.3826129979782112 0.19 0  0.3806186218128605 0.19 0  0.3786242456475099 0.19 0  0.3766298694821642 0.19 0  0.3746354933168195 0.19 0  0.3726411171514689 0.19 0  0.3706467409861113 0.19 0  0.3686523648207567 0.19 0  0.366657988655407 0.19 0  0.3646636124900643 0.19 0  0.3626692363247156 0.19 0  0.360674860159365 0.19 0  0.3586804839940143 0.19 0  0.3566861078286794 0.19 0  0.3546917316633446 0.19 0  0.3526973554980057 0.19 0  0.3507029793326551 0.19 0  0.3487086031673045 0.19 0  0.3467142270019578 0.19 0  0.344719850836615 0.19 0  0.3427254746712722 0.19 0  0.3407310985059295 0.19 0  0.3387367223405868 0.19 0  0.336742346175244 0.19 0  0.3347479700099012 0.19 0  0.3327535938445585 0.19 0  0.3307592176792157 0.19 0  0.328764841513873 0.19 0  0.3267704653485233 0.19 0  0.3247760891831727 0.19 0  0.322781713017822 0.19 0  0.3207873368524713 0.19 0  0.3187929606871208 0.19 0  0.3167985845217701 0.19 0  0.3148042083564194 0.19 0  0.3128098321910688 0.19 0  0.3108154560257231 0.19 0  0.3088210798603803 0.19 0  0.3068267036950376 0.19 0  0.3048323275296948 0.19 0  0.302837951364352 0.19 0  0.3008435751990093 0.19 0  0.2988491990336665 0.19 0  0.2968548228683238 0.19 0  0.294860446702981 0.19 0  0.2928660705376383 0.19 0  0.2908716943722877 0.19 0  0.288877318206937 0.19 0  0.2868829420415864 0.19 0  0.2848885658762357 0.19 0  0.282894189710885 0.19 0  0.2808998135455344 0.19 0  0.2789054373801838 0.19 0  0.2769110612148331 0.19 0  0.2749166850
[...]
<PointData  Vectors="f_17-0"> 
<DataArray  type="Float64"  Name="f_17-0"  NumberOfComponents="3" format="ascii">8.6137785152666534e-05 5.1831368761164247e-03 0.0000000000000000e+00  8.0953673638448377e-05 5.1831414675987987e-03 0.0000000000000000e+00  0.0000000000000000e+00 4.5555026836690094e-08 0.0000000000000000e+00  3.8738507728171539e-04 -1.1150721154844361e-04 0.0000000000000000e+00  0.0000000000000000e+00 0.0000000000000000e+00 0.0000000000000000e+00  -1.2765086385702448e-07 -2.8339347042671103e-06 0.0000000000000000e+00  4.1274354423610394e-06 -3.3201213240004600e-06 0.0000000000000000e+00  0.0000000000000000e+00 0.0000000000000000e+00 0.0000000000000000e+00  2.2351145672601728e-05 -1.2833455905487596e-05 0.0000000000000000e+00  8.0102949302093622e-06 -1.6119470025234316e-05 0.0000000000000000e+00  7.1975681051354406e-05 -7.1950283101659507e-05 0.0000000000000000e+00  1.8191537601003978e-04 -8.2699840655780138e-05 0.0000000000000000e+00  2.5930800449213608e-04 -9.1904351468419411e-05 0.0000000000000000e+00  3.2545593133040011e-04 -1.0012529832103475e-04 0.0000000000000000e+00  0.0000000000000000e+00 4.0971982586165440e-06 0.0000000000000000e+00  -8.7229915177586906e-06 6.5252322447737928e-06 0.0000000000000000e+00  -1.8338502918508619e-05 9.0779722454234057e-06 0.0000000000000000e+00  -3.0621539660649756e-05 1.6633571391617132e-05 0.0000000000000000e+00  -4.2692522248423757e-05 2.3312497423055948e-05 0.0000000000000000e+00  -4.9732259874280336e-05 7.8727527237960284e-07 0.0000000000000000e+00  -1.3414857878778905e-04 1.0138589450276474e-04 0.0000000000000000e+00  -1.7543734946339967e-04 2.5702073468804798e-04 0.0000000000000000e+00  -2.1959721496874065e-04 3.6753435461612930e-04 0.0000000000000000e+00  -2.5339060661016904e-04 4.8576216825918354e-04 0.0000000000000000e+00  -2.8442517609923365e-04 6.0003067203921018e-04 0.0000000000000000e+00  -3.1223053280754682e-04 7.1566117748150858e-04 0.0000000000000000e+00  -3.3752278003073237e-04 8.3311133345596975e-04 0.0000000000000000e+00  -3.6011635905082261e-04 9.5398322160926592e-04 0.0000000000000000e+00  -3.8036345552226118e-04 1.0768951529194113e-03 0.0000000000000000e+00  -3.9771664620038037e-04 1.2036393758152232e-03 0.0000000000000000e+00  -4.1321648619192932e-04 1.3311364532988864e-03 0.0000000000000000e+00  -4.2554485304766503e-04 1.4611057591521781e-03 0.0000000000000000e+00  -4.3547151199543974e-04 1.5919419833277781e-03 0.0000000000000000e+00  -4.4326132553523481e-04 1.7242354253108852e-03 0.0000000000000000e+00  -4.4859902327686464e-04 1.8571259792633272e-03 0.0000000000000000e+00  -4.5197251217052857e-04 1.9889416757176395e-03 0.0000000000000000e+00  -4.5344227582641431e-04 2.1217589314908710e-03 0.0000000000000000e+00  -4.5326873110919228e-04 2.2527430834149709e-03 0.0000000000000000e+00  -4.5113433564685466e-04 2.3837521477025215e-03 0.0000000000000000e+00  -4.4782481135000187e-04 2.5125413078749994e-03 0.0000000000000000e+00  -4.4287669618806264e-04 2.6400934388448680e-03 0.0000000000000000e+00  -4.3636307304797874e-04 2.7650233062951140e-03 0.0000000000000000e+00  -4.2891407564960758e-04 2.8886252655071333e-03 0.0000000000000000e+00  -4.2049833580670926e-04 3.0102893262226268e-03 0.0000000000000000e+00  -4.1082397531684892e-04 3.1288361290398910e-03 0.0000000000000000e+00  -4.0039163418916196e-04 3.2447423747601206e-03 0.0000000000000000e+00  -3.8917011066141367e-04 3.3576628092883993e-03 0.0000000000000000e+00  -3.7661293303005428e-04 3.4680919444680493e-03 0.0000000000000000e+00  -3.6415826532039375e-04 3.5751755340582359e-03 0.0000000000000000e+00  -3.5097739730665273e-04 3.6791025180510305e-03 0.0000000000000000e+00  -3.3791044121358555e-04 3.7801601638947561e-03 0.0000000000000000e+00  -3.2393178362505077e-04 3.8775941199078326e-03 0.0000000000000000e+00  -3.0963892750836860e-04 3.9718144518008378e-03 0.0000000000000000e+00  -2.9567776516438741e-04 4.0623784699106488e-03 0.0000000000000000e+00  -2.8025268965591738e-04 4.1501479000151274e-03 0.0000000000000000e+00  -2.6552683051692962e-04 4.2340527963391121e-03 0.0000000000000000e+00  -2.5004429777273116e-04 4.3144464421016552e-03 0.0000000000000000e+00  -2.3582925863408318e-04 4.3918963153382557e-03 0.0000000000000000e+00  -2.2090479182278362e-04 4.4655029315425849e-03 0.0000000000000000e+00  -2.0583745912759575e-04 4.5362569976558379e-03 0.0000000000000000e+00  -1.9091668673126719e-04 4.6031768473737264e-03 0.0000000000000000e+00  -1.7633153613836035e-04 4.6673987631294716e-03 0.0000000000000000e+00  -1.6213524896398028e-04 4.7279688221728887e-03 0.0000000000000000e+00  -1.4800290118991509e-04 4.7849560808851050e-03 0.0000000000000000e+00  -1.3392009009224079e-04 4.8394645188708629e-03 0.0000000000000000e+00  -1.2007064041908768e-04 4.8904202301040499e-03 0.0000000000000000e+00  -1.0661153729024310e-04 4.9391244878037276e-03 0.0000000000000000e+00  -9.3822433328742691e-05 4.9845655147336947e-03 0.0000000000000000e+00  -8.1039002905005129e-05 5.0267286774253149e-03 0.0000000000000000e+00  -6.8509756243652150e-05 5.0666566323134014e-03 0.0000000000000000e+00  -5.6295792361003438e-05 5.1034955938898752e-03 0.0000000000000000e+00  -4.4572298092630705e-05 5.1384356693336460e-03 0.0000000000000000e+00  -3.3354644977424529e-05 5.1704840896241522e-03 0.0000000000000000e+00  -2.2497105368031664e-05 5.1997042784558160e-03 0.0000000000000000e+00  -1.1909448502721443e-05 5.2270623911061329e-03 0.0000000000000000e+00  -1.6301023468167298e-06 5.2518149672385189e-03 0.0000000000000000e+00  8.1920264186043432e-06 5.2748698120887155e-03 0.0000000000000000e+00  1.7227366846550031e-05 5.2956410414919317e-03 0.0000000000000000e+00  2.6132348321410032e-05 5.3143147074010038e-03 0.0000000000000000e+00  3.4729759733914410e-05 5.3312189464659989e-03 0.0000000000000000e+00  4.2947761506633766e-05 5.3460159896933897e-03 0.0000000000000000e+00  5.0625030166540480e-05 5.3596534391203545e-03 0.0000000000000000e+00  5.7857769885549814e-05 5.3714351396095270e-03 0.0000000000000000e+00  6.4735136489804196e-05 5.3813981947447792e-03 0.0000000000000000e+00  7.1280977224458779e-05 5.3901233008114609e-03 0.0000000000000000e+00  7.7489088574709975e-05 5.3972977096506773e-03 0.0000000000000000e+00  8.3315580460119950e-05 5.4035280515071166e-03 0.0000000000000000e+00  8.8609186771824791e-05 5.4083230784654490e-03 0.0000000000000000e+00  9.3560369089801032e-05 5.4120694711951595e-03 0.0000000000000000e+00  9.8201391522010657e-05 5.4146343882152149e-03 0.0000000000000000e+00  1.0252664394084189e-04 5.4162831483777207e-03 0.0000000000000000e+00  1.0658967334370446e-04 5.4170515426322507e-03 0.0000000000000000e+00  1.1045571059764935e-04 5.4167196436176361e-03 0.0000000000000000e+00  1.1377403613715835e-04 5.4157916798568450e-03 0.0000000000000000e+00  1.1686081227452644e-04 5.4139240482305329e-03 0.0000000000000000e+00  1.1959038315252701e-04 5.4117669477848343e-03 0.0000000000000000e+00  1.2210832907822436e-04 5.4087742386820488e-03 0.0000000000000000e+00  1.2448565694437268e-04 5.4051924756561495e-03 0.0000000000000000e+00  1.2647599667401621e-04 5.4012723161989823e-03 0.0000000000000000e+00  1.2822702291202337e-04 5.3966557065650896e-03 0.0000000000000000e+00  1.2969601083974525e-04 5.3918988770801264e-03 0.0000000000000000e+00  1.3097580122560016e-04 5.3866278630478230e-03 0.0000000000000000e+00  1.3206767506176862e-04 5.3810585677389880e-03 0.0000000000000000e+00  1.3289413044788851e-04 5.3753174685915979e-03 0.0000000000000000e+00  1.3361156125747881e-04 5.3692775722262564e-03 0.0000000000000000e+00  1.3409103189843992e-04 5.3630938480205611e-03 0.0000000000000000e+00  1.3442584083271967e-04 5.3566799244224705e-03 0.0000000000000000e+00  1.3460637258530281e-04 5.3502732375680937e-03 0.0000000000000000e+00  1.3465147919771309e-04 5.3436654539124112e-03 0.0000000000000000e+00  1.3453795270811704e-04 5.3370436172610267e-03 0.0000000000000000e+00  1.3428689979511183e-04 5.3304580386217305e-03 0.0000000000000000e+00  1.3392766382797297e-04 5.3237566292580266e-03 0.0000000000000000e+00  1.3344810639096498e-04 5.3171695095634609e-03 0.0000000000000000e+00  1.3286378387446956e-04 5.3105581402449970e-03 0.0000000000000000e+00  1.3218938868914904e-04 5.3040461070584643e-03 0.0000000000000000e+00  1.3141922139366606e-04 5.2976079052579209e-03 0.0000000000000000e+00  1.3058975192517487e-04 5.2912554668812836e-03 0.0000000000000000e+00  1.2968705584982571e-04 5.2850266865623217e-03 0.0000000000000000e+00  1.2872927860627478e-04 5.2789253413004561e-03 0.0000000000000000e+00  1.2769322517491754e-04 5.2729642634472863e-03 0.0000000000000000e+00  1.2660361597825048e-04 5.2671067490455466e-03 0.0000000000000000e+00  1.2547657443347373e-04 5.2614376362314069e-03 0.0000000000000000e+00  1.2432027437617716e-04 5.2559268779970606e-03 0.0000000000000000e+00  1.2313849208158076e-04 5.2505949022320780e-03 0.0000000000000000e+00  1.2191565370920381e-04 5.2454605163822282e-03 0.0000000000000000e+00  1.2066766495989483e-04 5.2404704745733334e-03 0.0000000000000000e+00  1.1940701213957071e-04 5.2357004758482786e-03 0.0000000000000000e+00  1.1813988857301397e-04 5.2310985324311443e-03 0.0000000000000000e+00  1.1689097481727479e-04 5.2266866251410695e-03 0.0000000000000000e+00  1.1561425673896610e-04 5.2224844587287567e-03 0.0000000000000000e+00  1.1433721328629887e-04 5.2184500875163608e-03 0.0000000000000000e+00  1.1306659518311025e-04 5.2146088143808621e-03 0.0000000000000000e+00  1.1181530362887578e-04 5.2109918973735096e-03 0.0000000000000000e+00  1.1052876054707296e-04 5.2075485586695900e-03 0.0000000000000000e+00  1.0930186366484329e-04 5.2042824491767854e-03 0.0000000000000000e+00  1.0806640073232388e-04 5.2012257321211609e-03 0.0000000000000000e+00  1.0688063461337149e-04 5.1983186358608565e-03 0.0000000000000000e+00  1.0569221621993871e-04 5.1955903693218083e-03 0.0000000000000000e+00  1.0451933992716143e-04 5.1930975393297968e-03 0.0000000000000000e+00  1.0336328162917502e-04 5.1906846276314521e-03 0.0000000000000000e+00  1.0226776252334536e-04 5.1884875650972592e-03 0.0000000000000000e+00  1.0118813302377458e-04 5.1864408361763058e-03 0.0000000000000000e+00  1.0012270702992179e-04 5.1845660246723473e-03 0.0000000000000000e+00  9.9090961709861664e-05 5.1828474144796832e-03 0.0000000000000000e+00  9.8107640232591986e-05 5.1812467987169854e-03 0.0000000000000000e+00  9.7142204527403463e-05 5.1798072046892541e-03 0.0000000000000000e+00  9.6198224785069250e-05 5.1784932950036605e-03 0.0000000000000000e+00  9.5314822475607304e-05 5.1773131709123418e-03 0.0000000000000000e+00  9.4423401118481841e-05 5.1762652950706235e-03 0.0000000000000000e+00  9.3599755546944612e-05 5.1753037234363464e-03 0.0000000000000000e+00  9.2807856984435775e-05 5.1744983928418368e-03 0.0000000000000000e+00  9.2002603000672809e-05 5.1737779756666430e-03 0.0000000000000000e+00  9.1261298084979923e-05 5.1731559773515066e-03 0.0000000000000000e+00  9.0552299608582650e-05 5.1726399202102280e-03 0.0000000000000000e+00  8.9882960580994173e-05 5.1722027384409220e-03 0.0000000000000000e+00  8.9238026101443220e-05 5.1718575289865457e-03 0.0000000000000000e+00  8.8616386045256248e-05 5.1715973883333967e-03 0.0000000000000000e+00  8.8020136184746871e-05 5.1714176221480989e-03 0.0000000000000000e+00  8.7459789458655191e-05 5.1712977869850345e-03 0.0000000000000000e+00  8.6936815246219933e-05 5.1712409956653051e-03 0.0000000000000000e+00  8.6437086093522217e-05 5.1712549386516730e-03 0.0000000000000000e+00  8.5959901074477519e-05 5.1713204388903243e-03 0.0000000000000000e+00  8.5524000042003391e-05 5.1714384981458687e-03 0.0000000000000000e+00  8.5101488629791845e-05 5.1716115372444447e-03 0.0000000000000000e+00  8.4710572834044488e-05 5.1718180449572921e-03 0.0000000000000000e+00  8.4342072126930039e-05 5.1720676952482078e-03 0.0000000000000000e+00  8.3995571829177350e-05 5.1723618699478901e-03 0.0000000000000000e+00  8.3679295863424143e-05 5.1726730785734048e-03 0.0000000000000000e+00  8.3385721748646812e-05 5.1730310704974185e-03 0.0000000000000000e+00  8.3101665685270879e-05 5.1734105823671153e-03 0.0000000000000000e+00  8.2848736455072412e-05 5.1738087538263262e-03 0.0000000000000000e+00  8.2614382380249513e-05 5.1742386415875481e-03 0.0000000000000000e+00  8.2400764105891675e-05 5.1746700952716995e-03 0.0000000000000000e+00  8.2201624200841386e-05 5.1751307257116826e-03 0.0000000000000000e+00  8.2024562580700218e-05 5.1755961920543223e-03 0.0000000000000000e+00  8.1860037651590347e-05 5.1760788090740410e-03 0.0000000000000000e+00  8.1713258273152223e-05 5.1765664860910750e-03 0.0000000000000000e+00  8.1585364749426855e-05 5.1770617278685616e-03 0.0000000000000000e+00  8.1468755477624361e-05 5.1775678531423633e-03 0.0000000000000000e+00  8.1367781105319987e-05 5.1780719323364990e-03 0.0000000000000000e+00  8.1280210673760441e-05 5.1785806568315704e-03 0.0000000000000000e+00  8.1203941783954210e-05 5.1790937917260459e-03 0.0000000000000000e+00  8.1138803991555197e-05 5.1796045437921424e-03 0.0000000000000000e+00  8.1085605713828189e-05 5.1801160348934807e-03 0.0000000000000000e+00  8.1043043949023812e-05 5.1806251026781033e-03 0.0000000000000000e+00  8.1009852672589121e-05 5.1811322829302493e-03 0.0000000000000000e+00  8.0985052165839775e-05 5.1816386732606171e-03 0.0000000000000000e+00  8.0969854946439412e-05 5.1821411526589119e-03 0.0000000000000000e+00  8.0957549997315978e-05 5.1826421967566946e-03 0.0000000000000000e+00  8.1456397484846958e-05 5.1831408704727053e-03 0.0000000000000000e+00  8.1962478169829360e-05 5.1831378275824800e-03 0.0000000000000000e+00  8.2469380274696849e-05 5.1831351550133469e-03 0.0000000000000000e+00  8.2979510994721600e-05 5.1831344688002788e-03 0.0000000000000000e+00  8.3492798932071100e-05 5.1831328545902458e-03 0.0000000000000000e+00  8.4012296689992379e-05 5.1831321651043287e-03 0.0000000000000000e+00  8.4534501879383864e-05 5.1831341459013030e-03 0.0000000000000000e+00  8.5063791370171239e-05 5.1831354425134549e-03 0.0000000000000000e+00  8.5597652202702585e-05 5.1831364646937649e-03 0.0000000000000000e+00  8.6141474908482983e-05 5.1825966412283268e-03 0.0000000000000000e+00  8.6153394896188774e-05 5.1820532462074484e-03 0.0000000000000000e+00  8.6167349205965715e-05 5.1815093689285613e-03 0.0000000000000000e+00  8.6188459916463605e-05 5.1809604464337347e-03 0.0000000000000000e+00  8.6213148554304013e-05 5.1804093843617009e-03 0.0000000000000000e+00  8.6241027202136434e-05 5.1798574427258945e-03 0.0000000000000000e+00  8.6271705551562407e-05 5.1793022477549747e-03 0.0000000000000000e+00  8.6304410222995552e-05 5.1787487378420856e-03 0.0000000000000000e+00  8.6337958397861124e-05 5.1781938283858289e-03 0.0000000000000000e+00  8.6372308429209709e-05 5.1776410484328968e-03 0.0000000000000000e+00  8.6407238778703761e-05 5.1770931883213783e-03 0.0000000000000000e+00  8.6439451229771542e-05 5.1765441606846860e-03 0.0000000000000000e+00  8.6470719574243795e-05 5.1760069516670077e-03 0.0000000000000000e+00  8.6499874500433208e-05 5.1754716279093418e-03 0.0000000000000000e+00  8.6525815419392492e-05 5.1749498941364965e-03 0.0000000000000000e+00  8.6542295638950941e-05 5.1744376959167492e-03 0.0000000000000000e+00  8.6560750629718699e-05 5.1739403528875032e-03 0.0000000000000000e+00  8.6575520841238564e-05 5.1734565874041296e-03 0.0000000000000000e+00  8.6581656302443005e-05 5.1729883206472239e-03 0.0000000000000000e+00  8.6579931666290325e-05 5.1725430308209898e-03 0.0000000000000000e+00  8.6567854982593363e-05 5.1721260844804747e-03 0.0000000000000000e+00  8.6546980572307320e-05 5.1717276911328039e-03 0.0000000000000000e+00  8.6517996364998955e-05 5.1713643477657376e-03 0.0000000000000000e+00  8.6476603120407732e-05 5.1710318199093492e-03 0.0000000000000000e+00  8.6422235621248783e-05 5.1707380514831739e-03 0.0000000000000000e+00  8.6360155906150355e-05 5.1704802052002976e-03 0.0000000000000000e+00  8.6285776477113243e-05 5.1702666344268858e-03 0.0000000000000000e+00  8.6204182316354129e-05 5.1701110489498475e-03 0.0000000000000000e+00  8.6096512206665411e-05 5.1699986179342631e-03 0.0000000000000000e+00  8.5982634235897936e-05 5.1699470964528434e-03 0.0000000000000000e+00  8.5834365048237859e-05 5.1699654074439392e-03 0.0000000000000000e+00  8.5697274725687433e-05 5.1700164765101590e-03 0.0000000000000000e+00  8.5539616132254031e-05 5.1701672888765709e-03 0.0000000000000000e+00  8.5362175598953591e-05 5.1703922427724742e-03 0.0000000000000000e+00  8.5146398182249394e-05 5.1706833102060073e-03 0.0000000000000000e+00  8.4932676160926165e-05 5.1710715440849890e-03 0.0000000000000000e+00  8.4700094960599631e-05 5.1715420237741184e-03 0.0000000000000000e+00  8.4447245281345893e-05 5.1721248862225920e-03 0.0000000000000000e+00  8.4170033395940651e-05 5.1727906665796674e-03 0.0000000000000000e+00  8.3864731518216453e-05 5.1735763406967660e-03 0.0000000000000000e+00  8.3551600559360760e-05 5.1744755468996709e-03 0.0000000000000000e+00  8.3226106665547223e-05 5.1754822058130284e-03 0.0000000000000000e+00  8.2889136503646316e-05 5.1766287230805919e-03 0.0000000000000000e+00  8.2507237012589921e-05 5.1778839755005444e-03 0.0000000000000000e+00  8.2126054914606858e-05 5.1792926032461365e-03 0.0000000000000000e+00  8.1702789412401453e-05 5.1808541942664748e-03 0.0000000000000000e+00  8.1312860851894201e-05 5.1824907836378626e-03 0.0000000000000000e+00  8.0858783443230135e-05 5.1843550205265057e-03 0.0000000000000000e+00  8.0422804246980587e-05 5.1863427726905357e-03 0.0000000000000000e+00  7.9955714307806023e-05 5.1885088908854033e-03 0.0000000000000000e+00  7.9451831760715704e-05 5.1908465535931651e-03 0.0000000000000000e+00  7.8990414007225869e-05 5.1933317894440343e-03 0.0000000000000000e+00  7.8489462519891880e-05 5.1960225865119577e-03 0.0000000000000000e+00  7.7988762599382703e-05 5.1988397390765701e-03 0.0000000000000000e+00  7.7482747583968486e-05 5.2018596616886081e-03 0.0000000000000000e+00  7.6981964783345527e-05 5.2051015523199356e-03 0.0000000000000000e+00  7.6441439632271745e-05 5.2084904707556589e-03 0.0000000000000000e+00  7.5940706406989823e-05 5.2120650800364576e-03 0.0000000000000000e+00  7.5445978676808262e-05 5.2158430424323029e-03 0.0000000000000000e+00  7.4945693427762566e-05 5.2198329406481928e-03 0.0000000000000000e+00  7.4471136133071516e-05 5.2239999494780491e-03 0.0000000000000000e+00  7.4023478807032792e-05 5.2283590827387275e-03 0.0000000000000000e+00  7.3583984634974185e-05 5.2329203774375607e-03 0.0000000000000000e+00  7.3161851846795413e-05 5.2376494599743299e-03 0.0000000000000000e+00  7.2768707663975235e-05 5.2425997301088854e-03 0.0000000000000000e+00  7.2409921483245439e-05 5.2476914335454075e-03 0.0000000000000000e+00  7.2120241979796790e-05 5.2529737896399691e-03 0.0000000000000000e+00  7.1854019262494615e-05 5.2584316500185382e-03 0.0000000000000000e+00  7.1633784075842281e-05 5.2640542727803953e-03 0.0000000000000000e+00  7.1464678516556016e-05 5.2698615001775277e-03 0.0000000000000000e+00  7.1369259823307970e-05 5.2757665121997100e-03 0.0000000000000000e+00  7.1350903840491288e-05 5.2818188913648012e-03 0.0000000000000000e+00  7.1414860194899662e-05 5.2880065003409289e-03 0.0000000000000000e+00  7.1560925642054487e-05 5.2943213652244603e-03 0.0000000000000000e+00  7.1791413332077282e-05 5.3007241438146301e-03 0.0000000000000000e+00  7.2118218468180710e-05 5.3071667542553382e-03 0.0000000000000000e+00  7.2555369051949955e-05 5.3137365001767320e-03 0.0000000000000000e+00  7.3123115146304043e-05 5.3202775954499628e-03 0.0000000000000000e+00  7.3817160990796582e-05 5.3269224304122349e-03 0.0000000000000000e+00  7.4631792892545739e-05 5.3334684530823703e-03 0.0000000000000000e+00  7.5600956096561156e-05 5.3400657100911696e-03 0.0000000000000000e+00  7.6717472836366880e-05 5.3465733588868034e-03 0.0000000000000000e+00  7.8008862810094546e-05 5.3529906771002190e-03 0.0000000000000000e+00  7.9434724739319771e-05 5.3593275046466982e-03 0.0000000000000000e+00  8.1061689222061464e-05 5.3654199716078772e-03 0.0000000000000000e+00  8.29393