<?xml version="1.0"?>
<VTKFile type="UnstructuredGrid"  version="0.1"  >
<UnstructuredGrid>
<Piece  NumberOfPoints="2468" NumberOfCells="4561">
<Points>
<DataArray  type="Float64"  NumberOfComponents="3"  format="ascii">0.6 0.19 0  0.6 0.21 0  0.2489897949 0.21 0  0.2489897949 0.19 0  0.2493229908289237 0.2082001573176357 0  0.2495900850088183 0.2063893249379136 0  0.2497907194850606 0.2045699297044998 0  0.2499246253710791 0.2027444099368486 0  0.249991623208713 0.2009152121623642 0  0.2499916232087138 0.1990847878376834 0  0.2499246253710817 0.1972555900631988 0  0.2497907194850635 0.1954300702955309 0  0.2495900850088215 0.1936106750621115 0  0.2493229908289279 0.1917998426823893 0  0.2509841710653426 0.21 0  0.2529785472306802 0.21 0  0.2549729233960149 0.21 0  0.2569672995613496 0.21 0  0.2589616757266912 0.21 0  0.2609560518920337 0.21 0  0.2629504280573763 0.21 0  0.2649448042227189 0.21 0  0.2669391803880615 0.21 0  0.268933556553404 0.21 0  0.2709279327187466 0.21 0  0.2729223088840813 0.21 0  0.274916685049416 0.21 0  0.2769110612147507 0.21 0  0.2789054373800853 0.21 0  0.28089981354542 0.21 0  0.2828941897107548 0.21 0  0.2848885658760894 0.21 0  0.2868829420414241 0.21 0  0.2888773182067647 0.21 0  0.2908716943721072 0.21 0  0.2928660705374498 0.21 0  0.2948604467027846 0.21 0  0.2968548228681192 0.21 0  0.2988491990334559 0.21 0  0.3008435751987985 0.21 0  0.3028379513641341 0.21 0  0.3048323275294688 0.21 0  0.3068267036948035 0.21 0  0.3088210798601382 0.21 0  0.3108154560254728 0.21 0  0.3128098321908075 0.21 0  0.3148042083561422 0.21 0  0.3167985845214769 0.21 0  0.3187929606868116 0.21 0  0.3207873368521463 0.21 0  0.3227817130174809 0.21 0  0.3247760891828156 0.21 0  0.3267704653481504 0.21 0  0.328764841513486 0.21 0  0.3307592176788285 0.21 0  0.3327535938441652 0.21 0  0.3347479700094969 0.21 0  0.3367423461748237 0.21 0  0.3387367223401584 0.21 0  0.340731098505498 0.21 0  0.3427254746708386 0.21 0  0.3447198508361733 0.21 0  0.346714227001508 0.21 0  0.3487086031668427 0.21 0  0.3507029793321773 0.21 0  0.352697355497512 0.21 0  0.3546917316628467 0.21 0  0.3566861078281814 0.21 0  0.358680483993516 0.21 0  0.3606748601588508 0.21 0  0.3626692363241854 0.21 0  0.3646636124895201 0.21 0  0.3666579886548548 0.21 0  0.3686523648201895 0.21 0  0.3706467409855281 0.21 0  0.3726411171508697 0.21 0  0.3746354933162044 0.21 0  0.3766298694815331 0.21 0  0.3786242456468629 0.21 0  0.3806186218121976 0.21 0  0.3826129979775401 0.21 0  0.3846073741428778 0.21 0  0.3866017503082125 0.21 0  0.3885961264735471 0.21 0  0.3905905026388887 0.21 0  0.3925848788042274 0.21 0  0.394579254969561 0.21 0  0.3965736311348879 0.21 0  0.3985680073002206 0.21 0  0.4005623834655583 0.21 0  0.4025567596309008 0.21 0  0.4045511357962355 0.21 0  0.4065455119615652 0.21 0  0.408539888126894 0.21 0  0.4105342642922287 0.21 0  0.4125286404575703 0.21 0  0.4145230166229089 0.21 0  0.4165173927882426 0.21 0  0.4185117689535695 0.21 0  0.4205061451189022 0.21 0  0.4225005212842398 0.21 0  0.4244948974495824 0.21 0  0.4264892736149171 0.21 0  0.4284836497802518 0.21 0  0.4304780259455904 0.21 0  0.4324724021109408 0.21 0  0.4344667782762913 0.21 0  0.4364611544416378 0.21 0  0.4384555306069814 0.21 0  0.4404499067723318 0.21 0  0.4424442829376882 0.21 0  0.4444386591030436 0.21 0  0.4464330352683941 0.21 0  0.4484274114337366 0.21 0  0.4504217875990841 0.21 0  0.4524161637644346 0.21 0  0.4544105399297851 0.21 0  0.4564049160951217 0.21 0  0.4583992922604564 0.21 0  0.4603936684257931 0.21 0  0.4623880445911435 0.21 0  0.464382420756494 0.21 0  0.4663767969218385 0.21 0  0.4683711730871732 0.21 0  0.4703655492525158 0.21 0  0.4723599254178682 0.21 0  0.4743543015832246 0.21 0  0.476348677748575 0.21 0  0.4783430539139186 0.21 0  0.4803374300792651 0.21 0  0.4823318062446166 0.21 0  0.4843261824099749 0.21 0  0.4863205585753214 0.21 0  0.488314934740661 0.21 0  0.4903093109059957 0.21 0  0.4923036870713462 0.21 0  0.4942980632366967 0.21 0  0.4962924394020432 0.21 0  0.4982868155673779 0.21 0  0.5002811917327195 0.21 0  0.5022755678980699 0.21 0  0.5042699440634263 0.21 0  0.5062643202287689 0.21 0  0.5082586963941114 0.21 0  0.5102530725594541 0.21 0  0.5122474487247966 0.21 0  0.5142418248901234 0.21 0  0.51623620105546 0.21 0  0.5182305772208027 0.21 0  0.5202249533861452 0.21 0  0.5222193295514876 0.21 0  0.5242137057168381 0.21 0  0.5262080818821946 0.21 0  0.5282024580475371 0.21 0  0.5301968342128798 0.21 0  0.5321912103782283 0.21 0  0.5341855865435865 0.21 0  0.5361799627089292 0.21 0  0.5381743388742717 0.21 0  0.5401687150396142 0.21 0  0.5421630912049569 0.21 0  0.5441574673702856 0.21 0  0.5461518435356203 0.21 0  0.5481462197009628 0.21 0  0.5501405958663055 0.21 0  0.552134972031648 0.21 0  0.5541293481969964 0.21 0  0.5561237243623549 0.21 0  0.5581181005276974 0.21 0  0.56011247669304 0.21 0  0.5621068528583865 0.21 0  0.5641012290237448 0.21 0  0.5660956051890893 0.21 0  0.5680899813544399 0.21 0  0.5700843575197982 0.21 0  0.5720787336851566 0.21 0  0.5740731098504912 0.21 0  0.5760674860158239 0.21 0  0.5780618621811666 0.21 0  0.5800562383465091 0.21 0  0.5820506145118518 0.21 0  0.5840449906771983 0.21 0  0.5860393668425565 0.21 0  0.5880337430079011 0.21 0  0.5900281191732437 0.21 0  0.5920224953385882 0.21 0  0.5940168715039466 0.21 0  0.5960112476692931 0.21 0  0.5980056238346416 0.21 0  0.6 0.2080000000000032 0  0.6 0.2060000000000022 0  0.6 0.2040000000000098 0  0.6 0.202000000000026 0  0.6 0.2000000000000271 0  0.6 0.1980000000000173 0  0.6 0.1960000000000119 0  0.6 0.1940000000000087 0  0.6 0.1919999999999967 0  0.598005623834673 0.19 0  0.5960112476693361 0.19 0  0.5940168715039934 0.19 0  0.5920224953386506 0.19 0  0.5900281191733217 0.19 0  0.5880337430079868 0.19 0  0.5860393668426421 0.19 0  0.5840449906772835 0.19 0  0.5820506145119368 0.19 0  0.5800562383466 0.19 0  0.578061862181273 0.19 0  0.5760674860159303 0.19 0  0.5740731098505875 0.19 0  0.5720787336852486 0.19 0  0.5700843575199217 0.19 0  0.5680899813545948 0.19 0  0.5660956051892598 0.19 0  0.5641012290239171 0.19 0  0.5621068528585743 0.19 0  0.5601124766932434 0.19 0  0.5581181005279106 0.19 0  0.5561237243625677 0.19 0  0.5541293481972093 0.19 0  0.5521349720318606 0.19 0  0.5501405958665218 0.19 0  0.5481462197011947 0.19 0  0.5461518435358678 0.19 0  0.5441574673705407 0.19 0  0.5421630912052138 0.19 0  0.5401687150398868 0.19 0  0.5381743388745598 0.19 0  0.536179962709227 0.19 0  0.5341855865438841 0.19 0  0.5321912103785414 0.19 0  0.5301968342132085 0.19 0  0.5282024580478815 0.19 0  0.5262080818825545 0.19 0  0.5242137057172138 0.19 0  0.522219329551871 0.19 0  0.5202249533865302 0.19 0  0.5182305772212032 0.19 0  0.5162362010558763 0.19 0  0.5142418248905493 0.19 0  0.5122474487252223 0.19 0  0.5102530725598953 0.19 0  0.5082586963945683 0.19 0  0.5062643202292374 0.19 0  0.5042699440638947 0.19 0  0.5022755678985519 0.19 0  0.5002811917332171 0.19 0  0.4982868155678891 0.19 0  0.4962924394025542 0.19 0  0.4942980632372194 0.19 0  0.4923036870718845 0.19 0  0.4903093109065496 0.19 0  0.4883149347412147 0.19 0  0.4863205585758799 0.19 0  0.484326182410543 0.19 0  0.4823318062452003 0.19 0  0.4803374300798645 0.19 0  0.4783430539145335 0.19 0  0.4763486777492055 0.19 0  0.4743543015838707 0.19 0  0.4723599254185299 0.19 0  0.4703655492531901 0.19 0  0.4683711730878552 0.19 0  0.4663767969225282 0.19 0  0.4643824207571963 0.19 0  0.4623880445918594 0.19 0  0.4603936684265167 0.19 0  0.4583992922611808 0.19 0  0.456404916095846 0.19 0  0.4544105399305101 0.19 0  0.4524161637651674 0.19 0  0.4504217875998305 0.19 0  0.4484274114344986 0.19 0  0.4464330352691717 0.19 0  0.4444386591038367 0.19 0  0.4424442829384969 0.19 0  0.4404499067731562 0.19 0  0.4384555306078213 0.19 0  0.4364611544424933 0.19 0  0.4344667782771624 0.19 0  0.4324724021118265 0.19 0  0.4304780259464838 0.19 0  0.4284836497811469 0.19 0  0.4264892736158121 0.19 0  0.4244948974504772 0.19 0  0.4225005212851265 0.19 0  0.4205061451197759 0.19 0  0.4185117689544292 0.19 0  0.4165173927890943 0.19 0  0.4145230166237525 0.19 0  0.4125286404584019 0.19 0  0.4105342642930443 0.19 0  0.4085398881276937 0.19 0  0.406545511962349 0.19 0  0.4045511357970032 0.19 0  0.4025567596316526 0.19 0  0.4005623834662941 0.19 0  0.3985680073009454 0.19 0  0.3965736311356046 0.19 0  0.3945792549702697 0.19 0  0.3925848788049211 0.19 0  0.3905905026395704 0.19 0  0.3885961264742218 0.19 0  0.3866017503088869 0.19 0  0.3846073741435519 0.19 0  0.3826129979782112 0.19 0  0.3806186218128605 0.19 0  0.3786242456475099 0.19 0  0.3766298694821642 0.19 0  0.3746354933168195 0.19 0  0.3726411171514689 0.19 0  0.3706467409861113 0.19 0  0.3686523648207567 0.19 0  0.366657988655407 0.19 0  0.3646636124900643 0.19 0  0.3626692363247156 0.19 0  0.360674860159365 0.19 0  0.3586804839940143 0.19 0  0.3566861078286794 0.19 0  0.3546917316633446 0.19 0  0.3526973554980057 0.19 0  0.3507029793326551 0.19 0  0.3487086031673045 0.19 0  0.3467142270019578 0.19 0  0.344719850836615 0.19 0  0.3427254746712722 0.19 0  0.3407310985059295 0.19 0  0.3387367223405868 0.19 0  0.336742346175244 0.19 0  0.3347479700099012 0.19 0  0.3327535938445585 0.19 0  0.3307592176792157 0.19 0  0.328764841513873 0.19 0  0.3267704653485233 0.19 0  0.3247760891831727 0.19 0  0.322781713017822 0.19 0  0.3207873368524713 0.19 0  0.3187929606871208 0.19 0  0.3167985845217701 0.19 0  0.3148042083564194 0.19 0  0.3128098321910688 0.19 0  0.3108154560257231 0.19 0  0.3088210798603803 0.19 0  0.3068267036950376 0.19 0  0.3048323275296948 0.19 0  0.302837951364352 0.19 0  0.3008435751990093 0.19 0  0.2988491990336665 0.19 0  0.2968548228683238 0.19 0  0.294860446702981 0.19 0  0.2928660705376383 0.19 0  0.2908716943722877 0.19 0  0.288877318206937 0.19 0  0.2868829420415864 0.19 0  0.2848885658762357 0.19 0  0.282894189710885 0.19 0  0.2808998135455344 0.19 0  0.2789054373801838 0.19 0  0.2769110612148331 0.19 0  0.2749166850
[...]
<PointData  Vectors="f_17-0"> 
<DataArray  type="Float64"  Name="f_17-0"  NumberOfComponents="3" format="ascii">7.0355629676650637e-05 4.3571452457242124e-03 0.0000000000000000e+00  6.5753349484526529e-05 4.3571495650369801e-03 0.0000000000000000e+00  0.0000000000000000e+00 4.2355838771297535e-08 0.0000000000000000e+00  3.3722749431681789e-04 -9.6910302133440817e-05 0.0000000000000000e+00  0.0000000000000000e+00 0.0000000000000000e+00 0.0000000000000000e+00  -1.1310828911627559e-07 -2.4469475213010530e-06 0.0000000000000000e+00  3.4976987325730195e-06 -2.8399272380771804e-06 0.0000000000000000e+00  0.0000000000000000e+00 0.0000000000000000e+00 0.0000000000000000e+00  1.9277005446544395e-05 -1.1156254179798570e-05 0.0000000000000000e+00  6.9212179077090747e-06 -1.4033115055351354e-05 0.0000000000000000e+00  6.2516667236731384e-05 -6.2507930197767232e-05 0.0000000000000000e+00  1.5813982362398399e-04 -7.1842053702926919e-05 0.0000000000000000e+00  2.2556151107921198e-04 -7.9834253509231207e-05 0.0000000000000000e+00  2.8322669439694221e-04 -8.6990599756776543e-05 0.0000000000000000e+00  0.0000000000000000e+00 3.6111916244832784e-06 0.0000000000000000e+00  -7.6615495109629101e-06 5.7960352807086864e-06 0.0000000000000000e+00  -1.6085059504620536e-05 8.0706024481093543e-06 0.0000000000000000e+00  -2.6838017064501236e-05 1.4722901255467295e-05 0.0000000000000000e+00  -3.7341257181706684e-05 2.0605479382296547e-05 0.0000000000000000e+00  -4.3385604933777650e-05 7.7770224063967553e-07 0.0000000000000000e+00  -1.1718570366931369e-04 8.8689857487437342e-05 0.0000000000000000e+00  -1.5292081336997431e-04 2.2515313117236517e-04 0.0000000000000000e+00  -1.9107689505869590e-04 3.2192432018273494e-04 0.0000000000000000e+00  -2.2010464810151871e-04 4.2518367487922074e-04 0.0000000000000000e+00  -2.4663951236484640e-04 5.2481017587799209e-04 0.0000000000000000e+00  -2.7037235652038841e-04 6.2547872417193927e-04 0.0000000000000000e+00  -2.9185902732564592e-04 7.2753772661262250e-04 0.0000000000000000e+00  -3.1099379065648762e-04 8.3245346648982564e-04 0.0000000000000000e+00  -3.2802603243380172e-04 9.3897382081381770e-04 0.0000000000000000e+00  -3.4250486846368501e-04 1.0486080041454166e-03 0.0000000000000000e+00  -3.5535571538246037e-04 1.1588017104708478e-03 0.0000000000000000e+00  -3.6546344513643597e-04 1.2710268133433763e-03 0.0000000000000000e+00  -3.7344431511820520e-04 1.3837623907249539e-03 0.0000000000000000e+00  -3.7955325480740920e-04 1.4976089810391953e-03 0.0000000000000000e+00  -3.8349941103116080e-04 1.6118050666292293e-03 0.0000000000000000e+00  -3.8578566587185167e-04 1.7248938859618754e-03 0.0000000000000000e+00  -3.8636734897771845e-04 1.8387028961228515e-03 0.0000000000000000e+00  -3.8557755812072228e-04 1.9507544536038759e-03 0.0000000000000000e+00  -3.8306349089036791e-04 2.0626617373872757e-03 0.0000000000000000e+00  -3.7956612240467956e-04 2.1725072797704240e-03 0.0000000000000000e+00  -3.7466600493592407e-04 2.2811140911787671e-03 0.0000000000000000e+00  -3.6842376899546880e-04 2.3872235089081335e-03 0.0000000000000000e+00  -3.6137777668969500e-04 2.4921437625962440e-03 0.0000000000000000e+00  -3.5354113829841419e-04 2.5952345900941151e-03 0.0000000000000000e+00  -3.4461514267383552e-04 2.6954665336242608e-03 0.0000000000000000e+00  -3.3508629653966447e-04 2.7932925414137521e-03 0.0000000000000000e+00  -3.2490159280469362e-04 2.8884149308089852e-03 0.0000000000000000e+00  -3.1357242171213160e-04 2.9812614578754752e-03 0.0000000000000000e+00  -3.0238850179813463e-04 3.0711355808053548e-03 0.0000000000000000e+00  -2.9060902563326070e-04 3.1581479524626409e-03 0.0000000000000000e+00  -2.7897470694454314e-04 3.2426347372590762e-03 0.0000000000000000e+00  -2.6657764884305821e-04 3.3238806355870183e-03 0.0000000000000000e+00  -2.5394489230709413e-04 3.4022760472644589e-03 0.0000000000000000e+00  -2.4165165090808468e-04 3.4774552202149070e-03 0.0000000000000000e+00  -2.2810759253392168e-04 3.5501538145630740e-03 0.0000000000000000e+00  -2.1521881053355153e-04 3.6194841278178800e-03 0.0000000000000000e+00  -2.0170674651714737e-04 3.6857142937068948e-03 0.0000000000000000e+00  -1.8933791579029956e-04 3.7493961717266779e-03 0.0000000000000000e+00  -1.7639411222788564e-04 3.8097228326035033e-03 0.0000000000000000e+00  -1.6335861805885063e-04 3.8675690250378641e-03 0.0000000000000000e+00  -1.5048169338828759e-04 3.9220902606314084e-03 0.0000000000000000e+00  -1.3792980342054042e-04 3.9742969598147168e-03 0.0000000000000000e+00  -1.2575278578029887e-04 4.0233517570222753e-03 0.0000000000000000e+00  -1.1366471649731709e-04 4.0693309106546926e-03 0.0000000000000000e+00  -1.0165343150128403e-04 4.1131756303454314e-03 0.0000000000000000e+00  -8.9869936455463226e-05 4.1539863097346192e-03 0.0000000000000000e+00  -7.8452190479714887e-05 4.1928888123116473e-03 0.0000000000000000e+00  -6.7637192809984222e-05 4.2290229395449686e-03 0.0000000000000000e+00  -5.6859643870651015e-05 4.2623725409105129e-03 0.0000000000000000e+00  -4.6328873240307132e-05 4.2938256629231732e-03 0.0000000000000000e+00  -3.6090764113859455e-05 4.3226775496190088e-03 0.0000000000000000e+00  -2.6295785067948399e-05 4.3499460902507048e-03 0.0000000000000000e+00  -1.6956578733761301e-05 4.3747919364534420e-03 0.0000000000000000e+00  -7.9489819526892055e-06 4.3972734453937047e-03 0.0000000000000000e+00  8.0230706886320666e-07 4.4181977287151529e-03 0.0000000000000000e+00  9.2729857338325857e-06 4.4369634130961566e-03 0.0000000000000000e+00  1.7339044872134282e-05 4.4543369473483540e-03 0.0000000000000000e+00  2.4724108265962316e-05 4.4698252974445249e-03 0.0000000000000000e+00  3.1971182318020418e-05 4.4835939017475717e-03 0.0000000000000000e+00  3.8940815947576740e-05 4.4959062396730184e-03 0.0000000000000000e+00  4.5577552479079034e-05 4.5065029314603636e-03 0.0000000000000000e+00  5.1745927669958605e-05 4.5161687834918939e-03 0.0000000000000000e+00  5.7526988215129435e-05 4.5243367157931907e-03 0.0000000000000000e+00  6.2994524249197453e-05 4.5310390701611726e-03 0.0000000000000000e+00  6.8168255400258493e-05 4.5367432531073122e-03 0.0000000000000000e+00  7.3050394851410574e-05 4.5412144662622693e-03 0.0000000000000000e+00  7.7605432742460992e-05 4.5449501688221176e-03 0.0000000000000000e+00  8.1711223698622659e-05 4.5475463408834044e-03 0.0000000000000000e+00  8.5519977351654380e-05 4.5493255560789224e-03 0.0000000000000000e+00  8.9061140280351008e-05 4.5501742836399958e-03 0.0000000000000000e+00  9.2337609983853203e-05 4.5503215778386384e-03 0.0000000000000000e+00  9.5387570221205960e-05 4.5498004945867445e-03 0.0000000000000000e+00  9.8258253952210572e-05 4.5484240082518130e-03 0.0000000000000000e+00  1.0068617387845884e-04 4.5466127808222612e-03 0.0000000000000000e+00  1.0291439977872363e-04 4.5440832701466108e-03 0.0000000000000000e+00  1.0485522569201389e-04 4.5413643864920805e-03 0.0000000000000000e+00  1.0661309496874815e-04 4.5380168400771907e-03 0.0000000000000000e+00  1.0824135172583904e-04 4.5342370254227117e-03 0.0000000000000000e+00  1.0956583726472618e-04 4.5302359739259222e-03 0.0000000000000000e+00  1.1069201104663444e-04 4.5257254629347014e-03 0.0000000000000000e+00  1.1159786228466568e-04 4.5211426626418092e-03 0.0000000000000000e+00  1.1234448309072315e-04 4.5161998852233792e-03 0.0000000000000000e+00  1.1293805201162211e-04 4.5110644635037523e-03 0.0000000000000000e+00  1.1332718905188480e-04 4.5058336324820302e-03 0.0000000000000000e+00  1.1361749223024091e-04 4.5004091765753233e-03 0.0000000000000000e+00  1.1372796249513652e-04 4.4949229693248723e-03 0.0000000000000000e+00  1.1372103676136223e-04 4.4892932691527315e-03 0.0000000000000000e+00  1.1359542751150815e-04 4.4837140470501543e-03 0.0000000000000000e+00  1.1335640699072385e-04 4.4780217385250766e-03 0.0000000000000000e+00  1.1300382692614207e-04 4.4723596682507910e-03 0.0000000000000000e+00  1.1255204967671049e-04 4.4667676956212481e-03 0.0000000000000000e+00  1.1201232908950742e-04 4.4611234050126753e-03 0.0000000000000000e+00  1.1138778833922938e-04 4.4556097242701258e-03 0.0000000000000000e+00  1.1067576810857789e-04 4.4501166252065546e-03 0.0000000000000000e+00  1.0990655563579615e-04 4.4447334639798313e-03 0.0000000000000000e+00  1.0906747302511512e-04 4.4394532409503199e-03 0.0000000000000000e+00  1.0818805398010858e-04 4.4342764118037569e-03 0.0000000000000000e+00  1.0725809006302924e-04 4.4292240614411246e-03 0.0000000000000000e+00  1.0629672966859852e-04 4.4243074167835015e-03 0.0000000000000000e+00  1.0527710460047180e-04 4.4195319294866352e-03 0.0000000000000000e+00  1.0422171583467718e-04 4.4148652252912557e-03 0.0000000000000000e+00  1.0314449950668805e-04 4.4103788550409126e-03 0.0000000000000000e+00  1.0205266141408055e-04 4.4060357883153097e-03 0.0000000000000000e+00  1.0095093654953924e-04 4.4018621887742257e-03 0.0000000000000000e+00  9.9823894712108705e-05 4.3978679165158664e-03 0.0000000000000000e+00  9.8684238433298027e-05 4.3940087822200054e-03 0.0000000000000000e+00  9.7542398276983586e-05 4.3903454452020388e-03 0.0000000000000000e+00  9.6403352864311709e-05 4.3868268575484610e-03 0.0000000000000000e+00  9.5289589716728780e-05 4.3834754815026428e-03 0.0000000000000000e+00  9.4160160129196991e-05 4.3803056047820449e-03 0.0000000000000000e+00  9.3038330289185798e-05 4.3772823333458359e-03 0.0000000000000000e+00  9.1927865025148004e-05 4.3744214006224474e-03 0.0000000000000000e+00  9.0840926003172962e-05 4.3717494595780365e-03 0.0000000000000000e+00  8.9731148387805893e-05 4.3692257863685267e-03 0.0000000000000000e+00  8.8677913289623186e-05 4.3668459359326390e-03 0.0000000000000000e+00  8.7623839030678361e-05 4.3646421709788641e-03 0.0000000000000000e+00  8.6615751664603305e-05 4.3625565741282008e-03 0.0000000000000000e+00  8.5611595924204437e-05 4.3606202780521594e-03 0.0000000000000000e+00  8.4626262418488645e-05 4.3588726547029071e-03 0.0000000000000000e+00  8.3658246667665248e-05 4.3571887497668152e-03 0.0000000000000000e+00  8.2744142925013221e-05 4.3556780567359727e-03 0.0000000000000000e+00  8.1848070780226332e-05 4.3542851116034117e-03 0.0000000000000000e+00  8.0968689662947371e-05 4.3530273745774088e-03 0.0000000000000000e+00  8.0120175963017281e-05 4.3518928878905272e-03 0.0000000000000000e+00  7.9313939168657778e-05 4.3508480420586275e-03 0.0000000000000000e+00  7.8526282644601707e-05 4.3499283535079645e-03 0.0000000000000000e+00  7.7759190654961923e-05 4.3491046450372549e-03 0.0000000000000000e+00  7.7043077420656922e-05 4.3483814494281112e-03 0.0000000000000000e+00  7.6325406894284324e-05 4.3477599508279412e-03 0.0000000000000000e+00  7.5662571256395020e-05 4.3472002083624001e-03 0.0000000000000000e+00  7.5027962792850313e-05 4.3467581469844715e-03 0.0000000000000000e+00  7.4387043768303439e-05 4.3463787563070688e-03 0.0000000000000000e+00  7.3797116702645620e-05 4.3460703518957439e-03 0.0000000000000000e+00  7.3235042597668176e-05 4.3458395520041366e-03 0.0000000000000000e+00  7.2705431228907268e-05 4.3456646455700626e-03 0.0000000000000000e+00  7.2197403933666165e-05 4.3455555108208267e-03 0.0000000000000000e+00  7.1709600359361739e-05 4.3455078629949621e-03 0.0000000000000000e+00  7.1243457064591452e-05 4.3455156832189045e-03 0.0000000000000000e+00  7.0805635113817383e-05 4.3455647886226304e-03 0.0000000000000000e+00  7.0397651421281863e-05 4.3456573600154378e-03 0.0000000000000000e+00  7.0009185276090395e-05 4.3457988552067723e-03 0.0000000000000000e+00  6.9639340029865567e-05 4.3459748895357756e-03 0.0000000000000000e+00  6.9301138248284097e-05 4.3461855065110386e-03 0.0000000000000000e+00  6.8975491800872036e-05 4.3464336461835704e-03 0.0000000000000000e+00  6.8673579115122757e-05 4.3467020394486093e-03 0.0000000000000000e+00  6.8389894055910887e-05 4.3469993057112435e-03 0.0000000000000000e+00  6.8123597380928251e-05 4.3473247903225631e-03 0.0000000000000000e+00  6.7879855479543452e-05 4.3476598416162093e-03 0.0000000000000000e+00  6.7653971043540875e-05 4.3480256481881587e-03 0.0000000000000000e+00  6.7436744079687550e-05 4.3484042242986345e-03 0.0000000000000000e+00  6.7242053011783281e-05 4.3487930189698510e-03 0.0000000000000000e+00  6.7061928884944806e-05 4.3492019529062361e-03 0.0000000000000000e+00  6.6897041001709372e-05 4.3496097047877784e-03 0.0000000000000000e+00  6.6743613239079682e-05 4.3500361321220518e-03 0.0000000000000000e+00  6.6606353164759636e-05 4.3504637725448386e-03 0.0000000000000000e+00  6.6479464598141871e-05 4.3509014707890379e-03 0.0000000000000000e+00  6.6365057052403687e-05 4.3513412726769981e-03 0.0000000000000000e+00  6.6264714877114849e-05 4.3517845192979389e-03 0.0000000000000000e+00  6.6173364156808947e-05 4.3522342082094297e-03 0.0000000000000000e+00  6.6093321733113220e-05 4.3526814100215286e-03 0.0000000000000000e+00  6.6023624803736609e-05 4.3531307624926864e-03 0.0000000000000000e+00  6.5962491416191434e-05 4.3535823827495568e-03 0.0000000000000000e+00  6.5909617693176361e-05 4.3540319419553631e-03 0.0000000000000000e+00  6.5865910248078552e-05 4.3544814946896108e-03 0.0000000000000000e+00  6.5830420883765216e-05 4.3549292723776773e-03 0.0000000000000000e+00  6.5802322552202522e-05 4.3553755709556871e-03 0.0000000000000000e+00  6.5780898752330666e-05 4.3558214399700198e-03 0.0000000000000000e+00  6.5767635802030242e-05 4.3562649553098368e-03 0.0000000000000000e+00  6.5756771773104421e-05 4.3567076997780702e-03 0.0000000000000000e+00  6.6198286444084752e-05 4.3571492168773089e-03 0.0000000000000000e+00  6.6646813530471286e-05 4.3571472023192720e-03 0.0000000000000000e+00  6.7096603623368245e-05 4.3571454302425748e-03 0.0000000000000000e+00  6.7550075855041055e-05 4.3571453350361574e-03 0.0000000000000000e+00  6.8006330670428362e-05 4.3571440692036128e-03 0.0000000000000000e+00  6.8468283907768235e-05 4.3571432451753956e-03 0.0000000000000000e+00  6.8932811746550752e-05 4.3571444477150797e-03 0.0000000000000000e+00  6.9402959400432387e-05 4.3571448977199828e-03 0.0000000000000000e+00  6.9876691498775646e-05 4.3571450734824135e-03 0.0000000000000000e+00  7.0359085820607153e-05 4.3566661444140843e-03 0.0000000000000000e+00  7.0370191524491449e-05 4.3561849019746685e-03 0.0000000000000000e+00  7.0383456357851445e-05 4.3557038902510949e-03 0.0000000000000000e+00  7.0403869164075642e-05 4.3552192650896408e-03 0.0000000000000000e+00  7.0428413777251812e-05 4.3547330904071917e-03 0.0000000000000000e+00  7.0457181171196663e-05 4.3542461831904966e-03 0.0000000000000000e+00  7.0489820917969163e-05 4.3537570405923678e-03 0.0000000000000000e+00  7.0525993415722208e-05 4.3532684152676688e-03 0.0000000000000000e+00  7.0564869037559211e-05 4.3527787255933795e-03 0.0000000000000000e+00  7.0605953548455479e-05 4.3522892569772126e-03 0.0000000000000000e+00  7.0649546791139636e-05 4.3518021610794598e-03 0.0000000000000000e+00  7.0693543124587807e-05 4.3513137945075005e-03 0.0000000000000000e+00  7.0738736641211543e-05 4.3508314699524661e-03 0.0000000000000000e+00  7.0784331429064442e-05 4.3503497863485738e-03 0.0000000000000000e+00  7.0829504126827871e-05 4.3498752889820792e-03 0.0000000000000000e+00  7.0870610058084809e-05 4.3494057892260731e-03 0.0000000000000000e+00  7.0913863327323710e-05 4.3489447655886623e-03 0.0000000000000000e+00  7.0956305412932564e-05 4.3484912018682221e-03 0.0000000000000000e+00  7.0994597261403087e-05 4.3480464775204099e-03 0.0000000000000000e+00  7.1028930692577528e-05 4.3476152673875114e-03 0.0000000000000000e+00  7.1057426753514750e-05 4.3472012988646320e-03 0.0000000000000000e+00  7.1080798688454299e-05 4.3467983702913660e-03 0.0000000000000000e+00  7.1099691660493763e-05 4.3464174935638504e-03 0.0000000000000000e+00  7.1110868134446168e-05 4.3460556651135655e-03 0.0000000000000000e+00  7.1113842313612395e-05 4.3457187724163559e-03 0.0000000000000000e+00  7.1111956374887193e-05 4.3454044888695427e-03 0.0000000000000000e+00  7.1101605332281814e-05 4.3451194728200077e-03 0.0000000000000000e+00  7.1086468655312532e-05 4.3448729700755594e-03 0.0000000000000000e+00  7.1053403324299128e-05 4.3446551095603888e-03 0.0000000000000000e+00  7.1015694564235157e-05 4.3444782696200708e-03 0.0000000000000000e+00  7.0953424439197150e-05 4.3443491567204838e-03 0.0000000000000000e+00  7.0898127833680962e-05 4.3442425680443337e-03 0.0000000000000000e+00  7.0828224749137914e-05 4.3442048798921539e-03 0.0000000000000000e+00  7.0743093240743289e-05 4.3442199258646357e-03 0.0000000000000000e+00  7.0629501327059839e-05 4.3442805008990009e-03 0.0000000000000000e+00  7.0515947003038093e-05 4.3444115581730116e-03 0.0000000000000000e+00  7.0386963601741721e-05 4.3446011407306971e-03 0.0000000000000000e+00  7.0242269670264468e-05 4.3448728919798559e-03 0.0000000000000000e+00  7.0077993591323841e-05 4.3452042204333323e-03 0.0000000000000000e+00  6.9891099993501203e-05 4.3456246759468768e-03 0.0000000000000000e+00  6.9696152005454263e-05 4.3461288989997439e-03 0.0000000000000000e+00  6.9490225215683302e-05 4.3467137528379746e-03 0.0000000000000000e+00  6.9272717308751673e-05 4.3474035473379247e-03 0.0000000000000000e+00  6.9019190622273945e-05 4.3481765034037445e-03 0.0000000000000000e+00  6.8763353649446687e-05 4.3490661510371727e-03 0.0000000000000000e+00  6.8472296202562360e-05 4.3500737312461334e-03 0.0000000000000000e+00  6.8204316539692623e-05 4.3511388602982979e-03 0.0000000000000000e+00  6.7882888652622813e-05 4.3523821362816744e-03 0.0000000000000000e+00  6.7572521489705486e-05 4.3537228934159124e-03 0.0000000000000000e+00  6.7234193843021320e-05 4.3552042985645400e-03 0.0000000000000000e+00  6.6862639811857843e-05 4.3568214771888252e-03 0.0000000000000000e+00  6.6521653786063030e-05 4.3585583747482873e-03 0.0000000000000000e+00  6.6144114954163222e-05 4.3604614602431617e-03 0.0000000000000000e+00  6.5762181216390416e-05 4.3624665074479645e-03 0.0000000000000000e+00  6.5371916397857969e-05 4.3646370170982414e-03 0.0000000000000000e+00  6.4981005091485427e-05 4.3669909932314696e-03 0.0000000000000000e+00  6.4552242114167068e-05 4.3694676117425561e-03 0.0000000000000000e+00  6.4150631745682433e-05 4.3721011875532574e-03 0.0000000000000000e+00  6.3747597795345233e-05 4.3749038557839483e-03 0.0000000000000000e+00  6.3334758876093977e-05 4.3778859263153939e-03 0.0000000000000000e+00  6.2937270303151034e-05 4.3810231397331100e-03 0.0000000000000000e+00  6.2555118767026134e-05 4.3843254426982033e-03 0.0000000000000000e+00  6.2171285493368595e-05 4.3878070061121174e-03 0.0000000000000000e+00  6.1794688725049185e-05 4.3914329331528404e-03 0.0000000000000000e+00  6.1435422174172246e-05 4.3952558488139365e-03 0.0000000000000000e+00  6.1097132742406993e-05 4.3992102814314074e-03 0.0000000000000000e+00  6.0810335910870912e-05 4.4033393363793073e-03 0.0000000000000000e+00  6.0531075436733629e-05 4.4076335497768345e-03 0.0000000000000000e+00  6.0282208627950619e-05 4.4120774230647685e-03 0.0000000000000000e+00  6.0068666276729808e-05 4.4166978131306945e-03 0.0000000000000000e+00  5.9908415614113013e-05 4.4214194036874665e-03 0.0000000000000000e+00  5.9804107230592954e-05 4.4262920471441992e-03 0.0000000000000000e+00  5.9758687529247489e-05 4.4313063372767277e-03 0.0000000000000000e+00  5.9770067442566111e-05 4.4364482755586054e-03 0.0000000000000000e+00  5.9846116488695157e-05 4.4416958000061818e-03 0.0000000000000000e+00  5.9992415026510850e-05 4.4470155798118681e-03 0.0000000000000000e+00  6.0214808406643415e-05 4.4524702523155921e-03 0.0000000000000000e+00  6.0544539957150045e-05 4.4579427076183870e-03 0.0000000000000000e+00  6.0967691610259569e-05 4.4635382810483014e-03 0.0000000000000000e+00  6.1490129190790155e-05 4.4690915278579532e-03 0.0000000000000000e+00  6.2126574033268220e-05 4.4747230264801565e-03 0.0000000000000000e+00  6.2880277438317689e-05 4.4803358985162902e-03 0.0000000000000000e+00  6.3759571715895014e-05 4.4859152960517587e-03 0.0000000000000000e+00  6.4758356160603064e-05 4.4914697893643678e-03 0.0000000000000000e+00  6.5920527253823276e-05 4.4968862338069723e-03 0.0000000000000000e+00  6.7269138