<?xml version="1.0"?>
<VTKFile type="UnstructuredGrid"  version="0.1"  >
<UnstructuredGrid>
<Piece  NumberOfPoints="1419" NumberOfCells="2698">
<Points>
<DataArray  type="Float64"  NumberOfComponents="3"  format="ascii">0 0 0  0 0.41 0  2.5 0 0  2.5 0.41 0  0.6 0.19 0  0.6 0.21 0  0.25 0.2 0  0.15 0.2 0  0.2489897948556636 0.21 0  0.2489897948556636 0.19 0  0.6 0.2 0  0 0.3807142857143437 0  0 0.3514285714286952 0  0 0.3221428571430699 0  0 0.29285714285744 0  0 0.2635714285718054 0  0 0.2342857142861561 0  0 0.2050000000005308 0  0 0.175714285714732 0  0 0.1464285714289574 0  0 0.1171428571431897 0  0 0.08785714285737878 0  0 0.05857142857161107 0  0 0.02928571428580012 0  0.03015443760436003 0 0  0.06140001986583606 0 0  0.09377624077125973 0 0  0.1273239957535082 0 0  0.1620856860351972 0 0  0.1981052433264291 0 0  0.235428184091502 0 0  0.2741016576309132 0 0  0.3141745521465447 0 0  0.3556974926295285 0 0  0.3987229542472677 0 0  0.4433053055141081 0 0  0.4895008759286886 0 0  0.5373680609405097 0 0  0.5869673343216626 0 0  0.6383613676634521 0 0  0.6916151138468254 0 0  0.7467958595648856 0 0  0.8039733463919316 0 0  0.8632198139502143 0 0  0.9246101326867038 0 0  0.9882218810934433 0 0  1.054135445558498 0 0  1.122434100542598 0 0  1.193204177141305 0 0  1.266535089879536 0 0  1.342519516046404 0 0  1.421253448503939 0 0  1.502836389106271 0 0  1.587371439758838 0 0  1.674965418777374 0 0  1.765729001825544 0 0  1.859776908880082 0 0  1.957227977487062 0 0  2.058205329869943 0 0  2.162836591189951 0 0  2.271253957290865 0 0  2.383594446803425 0 0  2.5 0.1024999999997612 0  2.5 0.2049999999994743 0  2.5 0.3074999999997183 0  2.383594446803656 0.41 0  2.271253957291315 0.41 0  2.162836591190598 0.41 0  2.058205329870775 0.41 0  1.957227977488067 0.41 0  1.859776908881246 0.41 0  1.765729001826854 0.41 0  1.674965418778818 0.41 0  1.58737143976041 0.41 0  1.502836389107956 0.41 0  1.421253448505726 0.41 0  1.342519516048286 0.41 0  1.266535089881505 0.41 0  1.193204177143353 0.41 0  1.122434100544716 0.41 0  1.05413544556068 0.41 0  0.9882218810956305 0.41 0  0.9246101326886647 0.41 0  0.8632198139519631 0.41 0  0.8039733463934788 0.41 0  0.7467958595662458 0.41 0  0.6916151138480078 0.41 0  0.6383613676644679 0.41 0  0.5869673343225223 0.41 0  0.5373680609412221 0.41 0  0.4895008759292634 0.41 0  0.4433053055145528 0.41 0  0.3987229542475914 0.41 0  0.3556974926297398 0.41 0  0.3141745521466497 0.41 0  0.2741016576310038 0.41 0  0.2354281840915826 0.41 0  0.1981052433265003 0.41 0  0.1620856860352591 0.41 0  0.1273239957535623 0.41 0  0.09377624077128965 0.41 0  0.06140001986584975 0.41 0  0.03015443760436654 0.41 0  0.2497468076502589 0.2050254481002335 0  0.2497468076502614 0.1949745518997913 0  0.2469965252529372 0.1829317073451959 0  0.2439893735792749 0.1762316384219906 0  0.2400332147834255 0.1700443375285386 0  0.2352133972704371 0.1645032867342007 0  0.2296339016332438 0.1597280261969788 0  0.2234150974217223 0.1558215752574715 0  0.2166911463437691 0.1528682099456123 0  0.2096071079204251 0.1509316448471593 0  0.2023158100364996 0.1500536585536553 0  0.194974551899914 0.1502531923497262 0  0.1877417105387872 0.1515259415822739 0  0.1807733240461124 0.153844448527136 0  0.1742197252835808 0.15715869474974 0  0.1682222986673531 0.1613971801805478 0  0.162910430003803 0.1664684656256651 0  0.1583987151779087 0.1722631454351573 0  0.1547844879126891 0.178656207771761 0  0.1521457199348551 0.1855097315605723 0  0.1505393388476355 0.1926758619366523 0  0.1505393388476328 0.2073241380633295 0  0.1521457199348437 0.2144902684393899 0  0.1547844879126531 0.221343792228163 0  0.1583987151778488 0.2277368545647528 0  0.1629104300036858 0.2335315343742052 0  0.1682222986671726 0.2386028198193036 0  0.1742197252833576 0.2428413052501257 0  0.1807733240458683 0.2461555514727623 0  0.1877417105384929 0.2484740584176516 0  0.1949745518995776 0.2497468076502398 0  0.202315810036185 0.2499463414463592 0  0.2096071079201568 0.2490683551528932 0  0.2166911463435495 0.2471317900544655 0  0.2234150974215506 0.2441784247426195 0  0.2296339016331197 0.2402719738031125 0  0.2352133972703547 0.2354967132658811 0  0.2400332147833751 0.2299556624715287 0  0.2439893735792577 0.2237683615780412 0  0.246996525252926 0.2170682926548348 0  0.25645809709277 0.21 0  0.2639263993298655 0.21 0  0.271394701566961 0.21 0  0.2788630038040554 0.21 0  0.2863313060411479 0.21 0  0.2937996082782405 0.21 0  0.301267910515333 0.21 0  0.3087362127524279 0.21 0  0.3162045149895234 0.21 0  0.3236728172265972 0.21 0  0.3311411194636928 0.21 0  0.3386094217007701 0.21 0  0.3460777239378666 0.21 0  0.3535460261749672 0.21 0  0.3610143284120516 0.21 0  0.3684826306491596 0.21 0  0.3759509328862226 0.21 0  0.383419235123329 0.21 0  0.3908875373604028 0.21 0  0.3983558395975142 0.21 0  0.4058241418345938 0.21 0  0.4132924440716992 0.21 0  0.4207607463087888 0.21 0  0.4282290485459029 0.21 0  0.4356973507830418 0.21 0  0.4431656530201649 0.21 0  0.4506339552573136 0.21 0  0.4581022574944306 0.21 0  0.4655705597315852 0.21 0  0.4730388619686996 0.21 0  0.480507164205851 0.21 0  0.4879754664429498 0.21 0  0.4954437686800938 0.21 0  0.502912070917267 0.21 0  0.5103803731544119 0.21 0  0.5178486753915261 0.21 0  0.5253169776286404 0.21 0  0.5327852798657868 0.21 0  0.5402535821029386 0.21 0  0.54772188434007 0.21 0  0.5551901865771842 0.21 0  0.5626584888143201 0.21 0  0.5701267910514778 0.21 0  0.5775950932886138 0.21 0  0.5850633955257281 0.21 0  0.5925316977628483 0.21 0  0.6 0.2050000000000054 0  0.6 0.1950000000000217 0  0.5925316977628897 0.19 0  0.5850633955257988 0.19 0  0.5775950932887378 0.19 0  0.5701267910515998 0.19 0  0.5626584888145268 0.19 0  0.5551901865773963 0.19 0  0.547721884340339 0.19 0  0.5402535821032429 0.19 0  0.5327852798661811 0.19 0  0.5253169776290537 0.19 0  0.5178486753919799 0.19 0  0.5103803731549078 0.19 0  0.502912070917822 0.19 0  0.4954437686807294 0.19 0  0.4879754664436223 0.19 0  0.4805071642065402 0.19 0  0.4730388619694271 0.19 0  0.4655705597323621 0.19 0  0.4581022574952563 0.19 0  0.4506339552581777 0.19 0  0.4431656530210671 0.19 0  0.4356973507839815 0.19 0  0.4282290485468779 0.19 0  0.4207607463097617 0.19 0  0.4132924440726327 0.19 0  0.4058241418354857 0.19 0  0.3983558395983636 0.19 0  0.3908875373612097 0.19 0  0.3834192351240934 0.19 0  0.3759509328869369 0.19 0  0.3684826306498175 0.19 0  0.361014328412667 0.19 0  0.3535460261755617 0.19 0  0.3460777239384295 0.19 0  0.3386094217012945 0.19 0  0.3311411194641595 0.19 0  0.3236728172270245 0.19 0  0.3162045149898895 0.19 0  0.3087362127527544 0.19 0  0.3012679105156187 0.19 0  0.2937996082784807 0.19 0  0.2863313060413428 0.19 0  0.2788630038042048 0.19 0  0.2713947015670686 0.19 0  0.2639263993299336 0.19 0  0.2564580970927985 0.19 0  0.2607803159922026 0.2000727136295815 0  0.5887803774232762 0.2001272386983733 0  0.5745072403740523 0.2002044435018727 0  0.5511891430099709 0.2001122610077113 0  0.2751288526855082 0.20000000000002 0  0.5365194309847112 0.1999999999999436 0  0.2894621222999649 0.1998691686390484 0  0.5215828265105155 0.1999999999999228 0  0.3127789816668748 0.1998657885438805 0  0.3274069683451451 0.2000000000000796 0  0.5066462220363641 0.199999999999908 0  0.3650630746574081 0.199866017807523 0  0.476773013087985 0.1999999999998713 0  0.3417402379596385 0.1998691686391011 0  0.3796850840047755 0.200000000000134 0  0.4618364086138087 0.1999999999998546 0  0.4917096175621762 0.1999999999998808 0  0.3946216884789568 0.2000000000001512 0  0.446899804139621 0.1999999999998389 0  0.4089549580935208 0.1998691686391595 0  0.4322718174608562 0.200127451265745 0  0.4201487168029707 0.1999966199048527 0  0.3528922713220932 0.2000185703532356 0  0.5633122436674589 0.1999814296467508 0  0.3006558810093873 0.1999966199048318 0  0.5815926498168407 0.1966545283159175 0  0.2677053789419034 0.1964246479135325 0  0.5290511287476175 0.1970915826863981 0  0.5439877332217911 0.197091582686394 0  0.2825131256993216 0.2035478995978015 0  0.3199386661080599 0.202908417313604 0  0.4842413153250809 0.1970915826863873 0  0.5141145242734466 0.1970915826863843 0  0.3722167817676917 0.2029084173136195 0  0.4693047108508938 0.1970915826863783 0  0.3348752705822316 0.202908417313609 0  0.3871533862418661 0.2029084173136212 0  0.4543681063767183 0.1970915826863795 0  0.4991779197992749 0.1970915826863902 0  0.4020059614928624 0.203547899597858 0  0.4394315019025246 0.1970915826863714 0  0.2550657455369551 0.2034088125358657 0  0.2548908499171161 0.1966940311614271 0  0.5946539510196798 0.2024302972968126 0  0.267698176732111 0.2039977513680092 0  0.4261685417851465 0.196409292431739 0  0.3590076176283495 0.196411355804271 0  0.5571672426447437 0.2036011176410121 0  0.3066757059912147 0.1964092924317024 0  0.594380730180568 0.1966558399668133 0  0.4842413153245942 0.2040749161535287 0  0.4693047108503577 0.2040749161535231 0  0.3871533862424271 0.1959250838464788 0  0.372246743208829 0.1959123236376545 0  0.5141145242731028 0.2040749161535395 0  0.4543681063761134 0.2040749161535186 0  0.4019979587101454 0.1959834479682427 0  0.4394608940728603 0.2040870543693135 0  0.5439623148931173 0.2040856076781014 0  0.5290511287473298 0.2040749161535501 0  0.4991779197988497 0.2040749161535382 0  0.3347912413592433 0.1959225448935183 0  0.3199680582793816 0.1959123018030061 0  0.2825051229162361 0.1959834479681729 0  0.3590471196690275 0.2036304442587945 0  0.5571594006495384 0.1963685282145804 0  0.3067669986803285 0.203627750582736 0  0.4262598344738712 0.2036568242185335 0  0.5814408164431408 0.2041285596160068 0  0.5688286748170428 0.1961819304477386 0  0.4145905603063645 0.2038180695522843 0  0.3473758401724931 0.2038180695522752 0  0.2950977245128307 0.2038180695522663 0  0.5688286748170693 0.203818069552238 0  0.2950977245127906 0.1961819304477774 0  0.3473758401723931 0.1961819304478349 0  0.4145905603061963 0.1961819304479011 0  0.2601812407614425 0.2056861609747042
[...]
<PointData  Vectors="f_40-1"> 
<DataArray  type="Float64"  Name="f_40-1"  NumberOfComponents="3" format="ascii">0.0000000000000000e+00 0.0000000000000000e+00 0.0000000000000000e+00  0.0000000000000000e+00 0.0000000000000000e+00 0.0000000000000000e+00  0.0000000000000000e+00 0.0000000000000000e+00 0.0000000000000000e+00  0.0000000000000000e+00 0.0000000000000000e+00 0.0000000000000000e+00  7.1281206928210118e-06 -1.6165867307146951e-04 0.0000000000000000e+00  1.9750523693378870e-05 -1.6373118381753465e-04 0.0000000000000000e+00  0.0000000000000000e+00 0.0000000000000000e+00 0.0000000000000000e+00  0.0000000000000000e+00 0.0000000000000000e+00 0.0000000000000000e+00  0.0000000000000000e+00 0.0000000000000000e+00 0.0000000000000000e+00  0.0000000000000000e+00 0.0000000000000000e+00 0.0000000000000000e+00  1.3076564800365866e-05 -1.6269113257577942e-04 0.0000000000000000e+00  0.0000000000000000e+00 0.0000000000000000e+00 0.0000000000000000e+00  0.0000000000000000e+00 0.0000000000000000e+00 0.0000000000000000e+00  0.0000000000000000e+00 0.0000000000000000e+00 0.0000000000000000e+00  0.0000000000000000e+00 0.0000000000000000e+00 0.0000000000000000e+00  0.0000000000000000e+00 0.0000000000000000e+00 0.0000000000000000e+00  0.0000000000000000e+00 0.0000000000000000e+00 0.0000000000000000e+00  0.0000000000000000e+00 0.0000000000000000e+00 0.0000000000000000e+00  0.0000000000000000e+00 0.0000000000000000e+00 0.0000000000000000e+00  0.0000000000000000e+00 0.0000000000000000e+00 0.0000000000000000e+00  0.0000000000000000e+00 0.0000000000000000e+00 0.0000000000000000e+00  0.0000000000000000e+00 0.0000000000000000e+00 0.0000000000000000e+00  0.0000000000000000e+00 0.0000000000000000e+00 0.0000000000000000e+00  0.0000000000000000e+00 0.0000000000000000e+00 0.0000000000000000e+00  0.0000000000000000e+00 0.0000000000000000e+00 0.0000000000000000e+00  0.0000000000000000e+00 0.0000000000000000e+00 0.0000000000000000e+00  0.0000000000000000e+00 0.0000000000000000e+00 0.0000000000000000e+00  0.0000000000000000e+00 0.0000000000000000e+00 0.0000000000000000e+00  0.0000000000000000e+00 0.0000000000000000e+00 0.0000000000000000e+00  0.0000000000000000e+00 0.0000000000000000e+00 0.0000000000000000e+00  0.0000000000000000e+00 0.0000000000000000e+00 0.0000000000000000e+00  0.0000000000000000e+00 0.0000000000000000e+00 0.0000000000000000e+00  0.0000000000000000e+00 0.0000000000000000e+00 0.0000000000000000e+00  0.0000000000000000e+00 0.0000000000000000e+00 0.0000000000000000e+00  0.0000000000000000e+00 0.0000000000000000e+00 0.0000000000000000e+00  0.0000000000000000e+00 0.0000000000000000e+00 0.0000000000000000e+00  0.0000000000000000e+00 0.0000000000000000e+00 0.0000000000000000e+00  0.0000000000000000e+00 0.0000000000000000e+00 0.0000000000000000e+00  0.0000000000000000e+00 0.0000000000000000e+00 0.0000000000000000e+00  0.0000000000000000e+00 0.0000000000000000e+00 0.0000000000000000e+00  0.0000000000000000e+00 0.0000000000000000e+00 0.0000000000000000e+00  0.0000000000000000e+00 0.0000000000000000e+00 0.0000000000000000e+00  0.0000000000000000e+00 0.0000000000000000e+00 0.0000000000000000e+00  0.0000000000000000e+00 0.0000000000000000e+00 0.0000000000000000e+00  0.0000000000000000e+00 0.0000000000000000e+00 0.0000000000000000e+00  0.0000000000000000e+00 0.0000000000000000e+00 0.0000000000000000e+00  0.0000000000000000e+00 0.0000000000000000e+00 0.0000000000000000e+00  0.0000000000000000e+00 0.0000000000000000e+00 0.0000000000000000e+00  0.0000000000000000e+00 0.0000000000000000e+00 0.0000000000000000e+00  0.0000000000000000e+00 0.0000000000000000e+00 0.0000000000000000e+00  0.0000000000000000e+00 0.0000000000000000e+00 0.0000000000000000e+00  0.0000000000000000e+00 0.0000000000000000e+00 0.0000000000000000e+00  0.0000000000000000e+00 0.0000000000000000e+00 0.0000000000000000e+00  0.0000000000000000e+00 0.0000000000000000e+00 0.0000000000000000e+00  0.0000000000000000e+00 0.0000000000000000e+00 0.0000000000000000e+00  0.0000000000000000e+00 0.0000000000000000e+00 0.0000000000000000e+00  0.0000000000000000e+00 0.0000000000000000e+00 0.0000000000000000e+00  0.0000000000000000e+00 0.0000000000000000e+00 0.0000000000000000e+00  0.0000000000000000e+00 0.0000000000000000e+00 0.0000000000000000e+00  0.0000000000000000e+00 0.0000000000000000e+00 0.0000000000000000e+00  0.0000000000000000e+00 0.0000000000000000e+00 0.0000000000000000e+00  0.0000000000000000e+00 0.0000000000000000e+00 0.0000000000000000e+00  0.0000000000000000e+00 0.0000000000000000e+00 0.0000000000000000e+00  0.0000000000000000e+00 0.0000000000000000e+00 0.0000000000000000e+00  0.0000000000000000e+00 0.0000000000000000e+00 0.0000000000000000e+00  0.0000000000000000e+00 0.0000000000000000e+00 0.0000000000000000e+00  0.0000000000000000e+00 0.0000000000000000e+00 0.0000000000000000e+00  0.0000000000000000e+00 0.0000000000000000e+00 0.0000000000000000e+00  0.0000000000000000e+00 0.0000000000000000e+00 0.0000000000000000e+00  0.0000000000000000e+00 0.0000000000000000e+00 0.0000000000000000e+00  0.0000000000000000e+00 0.0000000000000000e+00 0.0000000000000000e+00  0.0000000000000000e+00 0.0000000000000000e+00 0.0000000000000000e+00  0.0000000000000000e+00 0.0000000000000000e+00 0.0000000000000000e+00  0.0000000000000000e+00 0.0000000000000000e+00 0.0000000000000000e+00  0.0000000000000000e+00 0.0000000000000000e+00 0.0000000000000000e+00  0.0000000000000000e+00 0.0000000000000000e+00 0.0000000000000000e+00  0.0000000000000000e+00 0.0000000000000000e+00 0.0000000000000000e+00  0.0000000000000000e+00 0.0000000000000000e+00 0.0000000000000000e+00  0.0000000000000000e+00 0.0000000000000000e+00 0.0000000000000000e+00  0.0000000000000000e+00 0.0000000000000000e+00 0.0000000000000000e+00  0.0000000000000000e+00 0.0000000000000000e+00 0.0000000000000000e+00  0.0000000000000000e+00 0.0000000000000000e+00 0.0000000000000000e+00  0.0000000000000000e+00 0.0000000000000000e+00 0.0000000000000000e+00  0.0000000000000000e+00 0.0000000000000000e+00 0.0000000000000000e+00  0.0000000000000000e+00 0.0000000000000000e+00 0.0000000000000000e+00  0.0000000000000000e+00 0.0000000000000000e+00 0.0000000000000000e+00  0.0000000000000000e+00 0.0000000000000000e+00 0.0000000000000000e+00  0.0000000000000000e+00 0.0000000000000000e+00 0.0000000000000000e+00  0.0000000000000000e+00 0.0000000000000000e+00 0.0000000000000000e+00  0.0000000000000000e+00 0.0000000000000000e+00 0.0000000000000000e+00  0.0000000000000000e+00 0.0000000000000000e+00 0.0000000000000000e+00  0.0000000000000000e+00 0.0000000000000000e+00 0.0000000000000000e+00  0.0000000000000000e+00 0.0000000000000000e+00 0.0000000000000000e+00  0.0000000000000000e+00 0.0000000000000000e+00 0.0000000000000000e+00  0.0000000000000000e+00 0.0000000000000000e+00 0.0000000000000000e+00  0.0000000000000000e+00 0.0000000000000000e+00 0.0000000000000000e+00  0.0000000000000000e+00 0.0000000000000000e+00 0.0000000000000000e+00  0.0000000000000000e+00 0.0000000000000000e+00 0.0000000000000000e+00  0.0000000000000000e+00 0.0000000000000000e+00 0.0000000000000000e+00  0.0000000000000000e+00 0.0000000000000000e+00 0.0000000000000000e+00  0.0000000000000000e+00 0.0000000000000000e+00 0.0000000000000000e+00  0.0000000000000000e+00 0.0000000000000000e+00 0.0000000000000000e+00  0.0000000000000000e+00 0.0000000000000000e+00 0.0000000000000000e+00  0.0000000000000000e+00 0.0000000000000000e+00 0.0000000000000000e+00  0.0000000000000000e+00 0.0000000000000000e+00 0.0000000000000000e+00  0.0000000000000000e+00 0.0000000000000000e+00 0.0000000000000000e+00  0.0000000000000000e+00 0.0000000000000000e+00 0.0000000000000000e+00  0.0000000000000000e+00 0.0000000000000000e+00 0.0000000000000000e+00  0.0000000000000000e+00 0.0000000000000000e+00 0.0000000000000000e+00  0.0000000000000000e+00 0.0000000000000000e+00 0.0000000000000000e+00  0.0000000000000000e+00 0.0000000000000000e+00 0.0000000000000000e+00  0.0000000000000000e+00 0.0000000000000000e+00 0.0000000000000000e+00  0.0000000000000000e+00 0.0000000000000000e+00 0.0000000000000000e+00  0.0000000000000000e+00 0.0000000000000000e+00 0.0000000000000000e+00  0.0000000000000000e+00 0.0000000000000000e+00 0.0000000000000000e+00  0.0000000000000000e+00 0.0000000000000000e+00 0.0000000000000000e+00  0.0000000000000000e+00 0.0000000000000000e+00 0.0000000000000000e+00  0.0000000000000000e+00 0.0000000000000000e+00 0.0000000000000000e+00  0.0000000000000000e+00 0.0000000000000000e+00 0.0000000000000000e+00  0.0000000000000000e+00 0.0000000000000000e+00 0.0000000000000000e+00  0.0000000000000000e+00 0.0000000000000000e+00 0.0000000000000000e+00  0.0000000000000000e+00 0.0000000000000000e+00 0.0000000000000000e+00  0.0000000000000000e+00 0.0000000000000000e+00 0.0000000000000000e+00  0.0000000000000000e+00 0.0000000000000000e+00 0.0000000000000000e+00  0.0000000000000000e+00 0.0000000000000000e+00 0.0000000000000000e+00  0.0000000000000000e+00 0.0000000000000000e+00 0.0000000000000000e+00  0.0000000000000000e+00 0.0000000000000000e+00 0.0000000000000000e+00  0.0000000000000000e+00 0.0000000000000000e+00 0.0000000000000000e+00  0.0000000000000000e+00 0.0000000000000000e+00 0.0000000000000000e+00  0.0000000000000000e+00 0.0000000000000000e+00 0.0000000000000000e+00  0.0000000000000000e+00 0.0000000000000000e+00 0.0000000000000000e+00  0.0000000000000000e+00 0.0000000000000000e+00 0.0000000000000000e+00  0.0000000000000000e+00 0.0000000000000000e+00 0.0000000000000000e+00  0.0000000000000000e+00 0.0000000000000000e+00 0.0000000000000000e+00  0.0000000000000000e+00 0.0000000000000000e+00 0.0000000000000000e+00  0.0000000000000000e+00 0.0000000000000000e+00 0.0000000000000000e+00  0.0000000000000000e+00 0.0000000000000000e+00 0.0000000000000000e+00  0.0000000000000000e+00 0.0000000000000000e+00 0.0000000000000000e+00  0.0000000000000000e+00 0.0000000000000000e+00 0.0000000000000000e+00  0.0000000000000000e+00 0.0000000000000000e+00 0.0000000000000000e+00  0.0000000000000000e+00 0.0000000000000000e+00 0.0000000000000000e+00  0.0000000000000000e+00 0.0000000000000000e+00 0.0000000000000000e+00  0.0000000000000000e+00 0.0000000000000000e+00 0.0000000000000000e+00  1.0485972640249612e-06 -2.1438175690242605e-06 0.0000000000000000e+00  1.9261220744706114e-06 -2.7097262592086133e-06 0.0000000000000000e+00  3.0009791507797354e-06 -3.2950951147008599e-06 0.0000000000000000e+00  4.1158917200799229e-06 -4.1134501085566806e-06 0.0000000000000000e+00  5.2150375052448027e-06 -5.1707231410940057e-06 0.0000000000000000e+00  6.2918503725160631e-06 -6.4550192878693381e-06 0.0000000000000000e+00  7.3419922091444837e-06 -7.9577893940138724e-06 0.0000000000000000e+00  8.3640695817290249e-06 -9.6728988493952846e-06 0.0000000000000000e+00  9.3549810757561339e-06 -1.1593579006242742e-05 0.0000000000000000e+00  1.0312487237256923e-05 -1.3711932923150666e-05 0.0000000000000000e+00  1.1235450108881053e-05 -1.6020758968911616e-05 0.0000000000000000e+00  1.2122148702818459e-05 -1.8511434174363443e-05 0.0000000000000000e+00  1.2971741423220094e-05 -2.1176326224461993e-05 0.0000000000000000e+00  1.3782894557699923e-05 -2.4006333607626750e-05 0.0000000000000000e+00  1.4556177065796210e-05 -2.6993425702778096e-05 0.0000000000000000e+00  1.5290110194197098e-05 -3.0129500455800399e-05 0.0000000000000000e+00  1.5984630210168940e-05 -3.3405338132721376e-05 0.0000000000000000e+00  1.6639693949041522e-05 -3.6813214874401022e-05 0.0000000000000000e+00  1.7255229354271198e-05 -4.0344113031792089e-05 0.0000000000000000e+00  1.7831298453292126e-05 -4.3990568870282807e-05 0.0000000000000000e+00  1.8368035495752101e-05 -4.7744100781330278e-05 0.0000000000000000e+00  1.8865564685428849e-05 -5.1597328203163541e-05 0.0000000000000000e+00  1.9323932762542801e-05 -5.5542266242852388e-05 0.0000000000000000e+00  1.9744281640526292e-05 -5.9571911466665668e-05 0.0000000000000000e+00  2.0126057052926609e-05 -6.3679622802652696e-05 0.0000000000000000e+00  2.0469877071027012e-05 -6.7858233580625436e-05 0.0000000000000000e+00  2.0776098281058868e-05 -7.2101524888668086e-05 0.0000000000000000e+00  2.1045174157290090e-05 -7.6403325822043167e-05 0.0000000000000000e+00  2.1277398724445621e-05 -8.0757896960819325e-05 0.0000000000000000e+00  2.1473258342618337e-05 -8.5159785084249525e-05 0.0000000000000000e+00  2.1633062358207164e-05 -8.9603821543452681e-05 0.0000000000000000e+00  2.1757240098710877e-05 -9.4085241334882638e-05 0.0000000000000000e+00  2.1846145866039276e-05 -9.8599540249698895e-05 0.0000000000000000e+00  2.1900130354464738e-05 -1.0314253074712794e-04 0.0000000000000000e+00  2.1919471094710020e-05 -1.0771044288355276e-04 0.0000000000000000e+00  2.1904555678944176e-05 -1.1229970086934130e-04 0.0000000000000000e+00  2.1855588997052760e-05 -1.1690709459935684e-04 0.0000000000000000e+00  2.1772834365044057e-05 -1.2152970411054268e-04 0.0000000000000000e+00  2.1656431345997593e-05 -1.2616487539023917e-04 0.0000000000000000e+00  2.1506494334067824e-05 -1.3081029119024797e-04 0.0000000000000000e+00  2.1323062334309713e-05 -1.3546383675472250e-04 0.0000000000000000e+00  2.1105917108739336e-05 -1.4012355674199956e-04 0.0000000000000000e+00  2.0854897442106107e-05 -1.4478761360273948e-04 0.0000000000000000e+00  2.0569402663906608e-05 -1.4945308652335092e-04 0.0000000000000000e+00  2.0255495546419391e-05 -1.5411546286237050e-04 0.0000000000000000e+00  1.9949733185949092e-05 -1.5879582894143116e-04 0.0000000000000000e+00  1.6294020218161919e-05 -1.6320008433332291e-04 0.0000000000000000e+00  9.9916022278231838e-06 -1.6218753208921733e-04 0.0000000000000000e+00  7.3421728435450721e-06 -1.5716686381520804e-04 0.0000000000000000e+00  7.6489398786334584e-06 -1.5242971322054403e-04 0.0000000000000000e+00  7.9707164454823150e-06 -1.4767688141085691e-04 0.0000000000000000e+00  8.2668969999823484e-06 -1.4293357446505702e-04 0.0000000000000000e+00  8.5317335176448635e-06 -1.3819732143023218e-04 0.0000000000000000e+00  8.7661889066126075e-06 -1.3346742544037731e-04 0.0000000000000000e+00  8.9713537701664691e-06 -1.2874490772191526e-04 0.0000000000000000e+00  9.1481928660503003e-06 -1.2403152864724404e-04 0.0000000000000000e+00  9.2972029997569502e-06 -1.1932900649646721e-04 0.0000000000000000e+00  9.4192131275328162e-06 -1.1463980300977091e-04 0.0000000000000000e+00  9.5146626159659506e-06 -1.0996615750795022e-04 0.0000000000000000e+00  9.5842930978837609e-06 -1.0531121333653727e-04 0.0000000000000000e+00  9.6285215545352980e-06 -1.0067779016671863e-04 0.0000000000000000e+00  9.6480348083921507e-06 -9.6069708956829621e-05 0.0000000000000000e+00  9.6432186816667290e-06 -9.1490381001417474e-05 0.0000000000000000e+00  9.6147280024640590e-06 -8.6944334175589855e-05 0.0000000000000000e+00  9.5629256588100304e-06 -8.2435575776224624e-05 0.0000000000000000e+00  9.4884389718904803e-06 -7.7969362986581993e-05 0.0000000000000000e+00  9.3916272847084790e-06 -7.3550318064050289e-05 0.0000000000000000e+00  9.2730935203436849e-06 -6.9184404505538650e-05 0.0000000000000000e+00  9.1331767925228300e-06 -6.4876840739228460e-05 0.0000000000000000e+00  8.9724395883870787e-06 -6.0634267104168593e-05 0.0000000000000000e+00  8.7912687658909170e-06 -5.6462557489874085e-05 0.0000000000000000e+00  8.5904166366606549e-06 -5.2369064887399971e-05 0.0000000000000000e+00  8.3694436885821826e-06 -4.8360419469734092e-05 0.0000000000000000e+00  8.1295597689471216e-06 -4.4443680334514034e-05 0.0000000000000000e+00  7.8710583792641928e-06 -4.0626739443714444e-05 0.0000000000000000e+00  7.5941967109676777e-06 -3.6917357629507638e-05 0.0000000000000000e+00  7.2994656074488745e-06 -3.3323559666175043e-05 0.0000000000000000e+00  6.9872038515730410e-06 -2.9853610761770762e-05 0.0000000000000000e+00  6.6578785629910618e-06 -2.6515913980838132e-05 0.0000000000000000e+00  6.3119102281965378e-06 -2.3318938414719286e-05 0.0000000000000000e+00  5.9500378030343012e-06 -2.0271780044318278e-05 0.0000000000000000e+00  5.5717432972048128e-06 -1.7382866122174209e-05 0.0000000000000000e+00  5.1784620284747107e-06 -1.4660582189605814e-05 0.0000000000000000e+00  4.7706686127728625e-06 -1.2114136377241027e-05 0.0000000000000000e+00  4.3488247762436057e-06 -9.7520595178631255e-06 0.0000000000000000e+00  3.9139116700154093e-06 -7.5829723137403321e-06 0.0000000000000000e+00  3.4667611148947228e-06 -5.6150607306281989e-06 0.0000000000000000e+00  3.0089691685620401e-06 -3.8569979550528625e-06 0.0000000000000000e+00  2.5410263962963026e-06 -2.3162887342221888e-06 0.0000000000000000e+00  2.0650571231920359e-06 -1.0001740460216199e-06 0.0000000000000000e+00  1.5831949047740921e-06 8.5891290604622803e-08 0.0000000000000000e+00  1.1010817843728494e-06 9.4239581815677356e-07 0.0000000000000000e+00  6.7256094110048437e-07 1.5513136160981412e-06 0.0000000000000000e+00  4.4164869155013530e-07 1.6976573545183424e-06 0.0000000000000000e+00  7.8768616211305866e-07 -2.6965572015750427e-07 0.0000000000000000e+00  1.3765596115162821e-05 -1.5562473613074269e-04 0.0000000000000000e+00  1.4467195010835705e-05 -1.4663552486139856e-04 0.0000000000000000e+00  1.5170227916688247e-05 -1.3195945714020599e-04 0.0000000000000000e+00  2.4302102512526353e-06 -1.4243880708431726e-06 0.0000000000000000e+00  1.5420754666355382e-05 -1.2275484059793453e-04 0.0000000000000000e+00  3.9193021429187701e-06 -3.4417540237340443e-06 0.0000000000000000e+00  1.5626242351635802e-05 -1.1344049557118795e-04 0.0000000000000000e+00  6.2359448555819011e-06 -8.5231801288938458e-06 0.0000000000000000e+00  7.6291666193176559e-06 -1.2764515731930367e-05 0.0000000000000000e+00  1.5711274991881052e-05 -1.0419318235708775e-04 0.0000000000000000e+00  1.0627123941603949e-05 -2.6744069983897299e-05 0.0000000000000000e+00  1.5524695568883120e-05 -8.6006569974193551e-05 0.0000000000000000e+00  8.8237827569678536e-06 -1.7567109672156566e-05 0.0000000000000000e+00  1.1683700285531432e-05 -3.3256316554438974e-05 0.0000000000000000e+00  1.5254545512211859e-05 -7.7133517383422585e-05 0.0000000000000000e+00  1.5677137884700662e-05 -9.5038366521710166e-05 0.0000000000000000e+00  1.2593184079440272e-05 -4.0388813162112278e-05 0.0000000000000000e+00  1.4867117201692623e-05 -6.8460207052806641e-05 0.0000000000000000e+00  1.3290441963626397e-05 -4.7631367404353928e-05 0.0000000000000000e+00  1.4444822474249876e-05 -6.0223729195040588e-05 0.0000000000000000e+00  1.3879494331559694e-05 -5.3574476891932972e-05 0.0000000000000000e+00  9.7774256660201673e-06 -2.1791155827825214e-05 0.0000000000000000e+00  1.4731878007677883e-05 -1.3956634933122059e-04 0.0000000000000000e+00  5.0812661979875270e-06 -5.6457282775607222e-06 0.0000000000000000e+00  1.1939141363696452e-05 -1.5079644819857293e-04 0.0000000000000000e+00  1.3422105059476187e-06 5.0644367241976807e-08 0.0000000000000000e+00  1.3732284223751007e-05 -1.1776659039920516e-04 0.0000000000000000e+00  1.3456273464263586e-05 -1.2712578731494085e-04 0.0000000000000000e+00  3.7201777829391237e-06 -3.1303201302142823e-06 0.0000000000000000e+00  7.7771630936077314e-06 -1.1108396773712741e-05 0.0000000000000000e+00  1.3866340609482770e-05 -9.0124762991851550e-05 0.0000000000000000e+00  1.3891043440388032e-05 -1.0846392279596916e-04 0.0000000000000000e+00  1.2470109610998881e-05 -3.0405306997570876e-05 0.0000000000000000e+00  1.3686616239181910e-05 -8.1149239985085642e-05 0.0000000000000000e+00  9.2639173854751493e-06 -1.5770479129807874e-05 0.0000000000000000e+00  1.3536329458736212e-05 -3.7271817833562322e-05 0.0000000000000000e+00  1.3397389794744375e-05 -7.2352442084513570e-05 0.0000000000000000e+00  1.3935054125490968e-05 -9.9240677718005852e-05 0.0000000000000000e+00  1.4795420376692272e-05 -4.4682482142347284e-05 0.0000000000000000e+00  1.3000037038605782e-05 -6.3777961418820379e-05 0.0000000000000000e+00  2.5509622292768738e-07 -6.4628724758613385e-07 0.0000000000000000e+00  9.9560003906537499e-08 5.1289633567452012e-07 0.0000000000000000e+00  1.4900040700607828e-05 -1.5951257942740135e-04 0.0000000000000000e+00  1.9404886463771147e-06 -1.5969322173460638e-06 0.0000000000000000e+00  1.2188663140