<?xml version="1.0"?>
<VTKFile type="UnstructuredGrid"  version="0.1"  >
<UnstructuredGrid>
<Piece  NumberOfPoints="1419" NumberOfCells="2698">
<Points>
<DataArray  type="Float64"  NumberOfComponents="3"  format="ascii">0 0 0  0 0.41 0  2.5 0 0  2.5 0.41 0  0.6 0.19 0  0.6 0.21 0  0.25 0.2 0  0.15 0.2 0  0.2489897948556636 0.21 0  0.2489897948556636 0.19 0  0.6 0.2 0  0 0.3807142857143437 0  0 0.3514285714286952 0  0 0.3221428571430699 0  0 0.29285714285744 0  0 0.2635714285718054 0  0 0.2342857142861561 0  0 0.2050000000005308 0  0 0.175714285714732 0  0 0.1464285714289574 0  0 0.1171428571431897 0  0 0.08785714285737878 0  0 0.05857142857161107 0  0 0.02928571428580012 0  0.03015443760436003 0 0  0.06140001986583606 0 0  0.09377624077125973 0 0  0.1273239957535082 0 0  0.1620856860351972 0 0  0.1981052433264291 0 0  0.235428184091502 0 0  0.2741016576309132 0 0  0.3141745521465447 0 0  0.3556974926295285 0 0  0.3987229542472677 0 0  0.4433053055141081 0 0  0.4895008759286886 0 0  0.5373680609405097 0 0  0.5869673343216626 0 0  0.6383613676634521 0 0  0.6916151138468254 0 0  0.7467958595648856 0 0  0.8039733463919316 0 0  0.8632198139502143 0 0  0.9246101326867038 0 0  0.9882218810934433 0 0  1.054135445558498 0 0  1.122434100542598 0 0  1.193204177141305 0 0  1.266535089879536 0 0  1.342519516046404 0 0  1.421253448503939 0 0  1.502836389106271 0 0  1.587371439758838 0 0  1.674965418777374 0 0  1.765729001825544 0 0  1.859776908880082 0 0  1.957227977487062 0 0  2.058205329869943 0 0  2.162836591189951 0 0  2.271253957290865 0 0  2.383594446803425 0 0  2.5 0.1024999999997612 0  2.5 0.2049999999994743 0  2.5 0.3074999999997183 0  2.383594446803656 0.41 0  2.271253957291315 0.41 0  2.162836591190598 0.41 0  2.058205329870775 0.41 0  1.957227977488067 0.41 0  1.859776908881246 0.41 0  1.765729001826854 0.41 0  1.674965418778818 0.41 0  1.58737143976041 0.41 0  1.502836389107956 0.41 0  1.421253448505726 0.41 0  1.342519516048286 0.41 0  1.266535089881505 0.41 0  1.193204177143353 0.41 0  1.122434100544716 0.41 0  1.05413544556068 0.41 0  0.9882218810956305 0.41 0  0.9246101326886647 0.41 0  0.8632198139519631 0.41 0  0.8039733463934788 0.41 0  0.7467958595662458 0.41 0  0.6916151138480078 0.41 0  0.6383613676644679 0.41 0  0.5869673343225223 0.41 0  0.5373680609412221 0.41 0  0.4895008759292634 0.41 0  0.4433053055145528 0.41 0  0.3987229542475914 0.41 0  0.3556974926297398 0.41 0  0.3141745521466497 0.41 0  0.2741016576310038 0.41 0  0.2354281840915826 0.41 0  0.1981052433265003 0.41 0  0.1620856860352591 0.41 0  0.1273239957535623 0.41 0  0.09377624077128965 0.41 0  0.06140001986584975 0.41 0  0.03015443760436654 0.41 0  0.2497468076502589 0.2050254481002335 0  0.2497468076502614 0.1949745518997913 0  0.2469965252529372 0.1829317073451959 0  0.2439893735792749 0.1762316384219906 0  0.2400332147834255 0.1700443375285386 0  0.2352133972704371 0.1645032867342007 0  0.2296339016332438 0.1597280261969788 0  0.2234150974217223 0.1558215752574715 0  0.2166911463437691 0.1528682099456123 0  0.2096071079204251 0.1509316448471593 0  0.2023158100364996 0.1500536585536553 0  0.194974551899914 0.1502531923497262 0  0.1877417105387872 0.1515259415822739 0  0.1807733240461124 0.153844448527136 0  0.1742197252835808 0.15715869474974 0  0.1682222986673531 0.1613971801805478 0  0.162910430003803 0.1664684656256651 0  0.1583987151779087 0.1722631454351573 0  0.1547844879126891 0.178656207771761 0  0.1521457199348551 0.1855097315605723 0  0.1505393388476355 0.1926758619366523 0  0.1505393388476328 0.2073241380633295 0  0.1521457199348437 0.2144902684393899 0  0.1547844879126531 0.221343792228163 0  0.1583987151778488 0.2277368545647528 0  0.1629104300036858 0.2335315343742052 0  0.1682222986671726 0.2386028198193036 0  0.1742197252833576 0.2428413052501257 0  0.1807733240458683 0.2461555514727623 0  0.1877417105384929 0.2484740584176516 0  0.1949745518995776 0.2497468076502398 0  0.202315810036185 0.2499463414463592 0  0.2096071079201568 0.2490683551528932 0  0.2166911463435495 0.2471317900544655 0  0.2234150974215506 0.2441784247426195 0  0.2296339016331197 0.2402719738031125 0  0.2352133972703547 0.2354967132658811 0  0.2400332147833751 0.2299556624715287 0  0.2439893735792577 0.2237683615780412 0  0.246996525252926 0.2170682926548348 0  0.25645809709277 0.21 0  0.2639263993298655 0.21 0  0.271394701566961 0.21 0  0.2788630038040554 0.21 0  0.2863313060411479 0.21 0  0.2937996082782405 0.21 0  0.301267910515333 0.21 0  0.3087362127524279 0.21 0  0.3162045149895234 0.21 0  0.3236728172265972 0.21 0  0.3311411194636928 0.21 0  0.3386094217007701 0.21 0  0.3460777239378666 0.21 0  0.3535460261749672 0.21 0  0.3610143284120516 0.21 0  0.3684826306491596 0.21 0  0.3759509328862226 0.21 0  0.383419235123329 0.21 0  0.3908875373604028 0.21 0  0.3983558395975142 0.21 0  0.4058241418345938 0.21 0  0.4132924440716992 0.21 0  0.4207607463087888 0.21 0  0.4282290485459029 0.21 0  0.4356973507830418 0.21 0  0.4431656530201649 0.21 0  0.4506339552573136 0.21 0  0.4581022574944306 0.21 0  0.4655705597315852 0.21 0  0.4730388619686996 0.21 0  0.480507164205851 0.21 0  0.4879754664429498 0.21 0  0.4954437686800938 0.21 0  0.502912070917267 0.21 0  0.5103803731544119 0.21 0  0.5178486753915261 0.21 0  0.5253169776286404 0.21 0  0.5327852798657868 0.21 0  0.5402535821029386 0.21 0  0.54772188434007 0.21 0  0.5551901865771842 0.21 0  0.5626584888143201 0.21 0  0.5701267910514778 0.21 0  0.5775950932886138 0.21 0  0.5850633955257281 0.21 0  0.5925316977628483 0.21 0  0.6 0.2050000000000054 0  0.6 0.1950000000000217 0  0.5925316977628897 0.19 0  0.5850633955257988 0.19 0  0.5775950932887378 0.19 0  0.5701267910515998 0.19 0  0.5626584888145268 0.19 0  0.5551901865773963 0.19 0  0.547721884340339 0.19 0  0.5402535821032429 0.19 0  0.5327852798661811 0.19 0  0.5253169776290537 0.19 0  0.5178486753919799 0.19 0  0.5103803731549078 0.19 0  0.502912070917822 0.19 0  0.4954437686807294 0.19 0  0.4879754664436223 0.19 0  0.4805071642065402 0.19 0  0.4730388619694271 0.19 0  0.4655705597323621 0.19 0  0.4581022574952563 0.19 0  0.4506339552581777 0.19 0  0.4431656530210671 0.19 0  0.4356973507839815 0.19 0  0.4282290485468779 0.19 0  0.4207607463097617 0.19 0  0.4132924440726327 0.19 0  0.4058241418354857 0.19 0  0.3983558395983636 0.19 0  0.3908875373612097 0.19 0  0.3834192351240934 0.19 0  0.3759509328869369 0.19 0  0.3684826306498175 0.19 0  0.361014328412667 0.19 0  0.3535460261755617 0.19 0  0.3460777239384295 0.19 0  0.3386094217012945 0.19 0  0.3311411194641595 0.19 0  0.3236728172270245 0.19 0  0.3162045149898895 0.19 0  0.3087362127527544 0.19 0  0.3012679105156187 0.19 0  0.2937996082784807 0.19 0  0.2863313060413428 0.19 0  0.2788630038042048 0.19 0  0.2713947015670686 0.19 0  0.2639263993299336 0.19 0  0.2564580970927985 0.19 0  0.2607803159922026 0.2000727136295815 0  0.5887803774232762 0.2001272386983733 0  0.5745072403740523 0.2002044435018727 0  0.5511891430099709 0.2001122610077113 0  0.2751288526855082 0.20000000000002 0  0.5365194309847112 0.1999999999999436 0  0.2894621222999649 0.1998691686390484 0  0.5215828265105155 0.1999999999999228 0  0.3127789816668748 0.1998657885438805 0  0.3274069683451451 0.2000000000000796 0  0.5066462220363641 0.199999999999908 0  0.3650630746574081 0.199866017807523 0  0.476773013087985 0.1999999999998713 0  0.3417402379596385 0.1998691686391011 0  0.3796850840047755 0.200000000000134 0  0.4618364086138087 0.1999999999998546 0  0.4917096175621762 0.1999999999998808 0  0.3946216884789568 0.2000000000001512 0  0.446899804139621 0.1999999999998389 0  0.4089549580935208 0.1998691686391595 0  0.4322718174608562 0.200127451265745 0  0.4201487168029707 0.1999966199048527 0  0.3528922713220932 0.2000185703532356 0  0.5633122436674589 0.1999814296467508 0  0.3006558810093873 0.1999966199048318 0  0.5815926498168407 0.1966545283159175 0  0.2677053789419034 0.1964246479135325 0  0.5290511287476175 0.1970915826863981 0  0.5439877332217911 0.197091582686394 0  0.2825131256993216 0.2035478995978015 0  0.3199386661080599 0.202908417313604 0  0.4842413153250809 0.1970915826863873 0  0.5141145242734466 0.1970915826863843 0  0.3722167817676917 0.2029084173136195 0  0.4693047108508938 0.1970915826863783 0  0.3348752705822316 0.202908417313609 0  0.3871533862418661 0.2029084173136212 0  0.4543681063767183 0.1970915826863795 0  0.4991779197992749 0.1970915826863902 0  0.4020059614928624 0.203547899597858 0  0.4394315019025246 0.1970915826863714 0  0.2550657455369551 0.2034088125358657 0  0.2548908499171161 0.1966940311614271 0  0.5946539510196798 0.2024302972968126 0  0.267698176732111 0.2039977513680092 0  0.4261685417851465 0.196409292431739 0  0.3590076176283495 0.196411355804271 0  0.5571672426447437 0.2036011176410121 0  0.3066757059912147 0.1964092924317024 0  0.594380730180568 0.1966558399668133 0  0.4842413153245942 0.2040749161535287 0  0.4693047108503577 0.2040749161535231 0  0.3871533862424271 0.1959250838464788 0  0.372246743208829 0.1959123236376545 0  0.5141145242731028 0.2040749161535395 0  0.4543681063761134 0.2040749161535186 0  0.4019979587101454 0.1959834479682427 0  0.4394608940728603 0.2040870543693135 0  0.5439623148931173 0.2040856076781014 0  0.5290511287473298 0.2040749161535501 0  0.4991779197988497 0.2040749161535382 0  0.3347912413592433 0.1959225448935183 0  0.3199680582793816 0.1959123018030061 0  0.2825051229162361 0.1959834479681729 0  0.3590471196690275 0.2036304442587945 0  0.5571594006495384 0.1963685282145804 0  0.3067669986803285 0.203627750582736 0  0.4262598344738712 0.2036568242185335 0  0.5814408164431408 0.2041285596160068 0  0.5688286748170428 0.1961819304477386 0  0.4145905603063645 0.2038180695522843 0  0.3473758401724931 0.2038180695522752 0  0.2950977245128307 0.2038180695522663 0  0.5688286748170693 0.203818069552238 0  0.2950977245127906 0.1961819304477774 0  0.3473758401723931 0.1961819304478349 0  0.4145905603061963 0.1961819304479011 0  0.2601812407614425 0.2056861609747042
[...]
<PointData  Vectors="f_40-0"> 
<DataArray  type="Float64"  Name="f_40-0"  NumberOfComponents="3" format="ascii">0.0000000000000000e+00 0.0000000000000000e+00 0.0000000000000000e+00  0.0000000000000000e+00 0.0000000000000000e+00 0.0000000000000000e+00  0.0000000000000000e+00 0.0000000000000000e+00 0.0000000000000000e+00  0.0000000000000000e+00 0.0000000000000000e+00 0.0000000000000000e+00  1.9714954133117036e-05 6.3609065151205954e-04 0.0000000000000000e+00  -2.7641709551419876e-05 6.3611461484922396e-04 0.0000000000000000e+00  0.0000000000000000e+00 0.0000000000000000e+00 0.0000000000000000e+00  0.0000000000000000e+00 0.0000000000000000e+00 0.0000000000000000e+00  0.0000000000000000e+00 0.0000000000000000e+00 0.0000000000000000e+00  0.0000000000000000e+00 0.0000000000000000e+00 0.0000000000000000e+00  -3.9438352113409140e-06 6.3609227321686146e-04 0.0000000000000000e+00  7.9591836734548407e-02 0.0000000000000000e+00 0.0000000000000000e+00  1.4693877550994527e-01 0.0000000000000000e+00 0.0000000000000000e+00  2.0204081632617479e-01 0.0000000000000000e+00 0.0000000000000000e+00  2.4489795918330076e-01 0.0000000000000000e+00 0.0000000000000000e+00  2.7551020408131754e-01 0.0000000000000000e+00 0.0000000000000000e+00  2.9387755102022350e-01 0.0000000000000000e+00 0.0000000000000000e+00  3.0000000000000004e-01 0.0000000000000000e+00 0.0000000000000000e+00  2.9387755102059482e-01 0.0000000000000000e+00 0.0000000000000000e+00  2.7551020408195548e-01 0.0000000000000000e+00 0.0000000000000000e+00  2.4489795918409071e-01 0.0000000000000000e+00 0.0000000000000000e+00  2.0204081632692525e-01 0.0000000000000000e+00 0.0000000000000000e+00  1.4693877551058568e-01 0.0000000000000000e+00 0.0000000000000000e+00  7.9591836734909230e-02 0.0000000000000000e+00 0.0000000000000000e+00  0.0000000000000000e+00 0.0000000000000000e+00 0.0000000000000000e+00  0.0000000000000000e+00 0.0000000000000000e+00 0.0000000000000000e+00  0.0000000000000000e+00 0.0000000000000000e+00 0.0000000000000000e+00  0.0000000000000000e+00 0.0000000000000000e+00 0.0000000000000000e+00  0.0000000000000000e+00 0.0000000000000000e+00 0.0000000000000000e+00  0.0000000000000000e+00 0.0000000000000000e+00 0.0000000000000000e+00  0.0000000000000000e+00 0.0000000000000000e+00 0.0000000000000000e+00  0.0000000000000000e+00 0.0000000000000000e+00 0.0000000000000000e+00  0.0000000000000000e+00 0.0000000000000000e+00 0.0000000000000000e+00  0.0000000000000000e+00 0.0000000000000000e+00 0.0000000000000000e+00  0.0000000000000000e+00 0.0000000000000000e+00 0.0000000000000000e+00  0.0000000000000000e+00 0.0000000000000000e+00 0.0000000000000000e+00  0.0000000000000000e+00 0.0000000000000000e+00 0.0000000000000000e+00  0.0000000000000000e+00 0.0000000000000000e+00 0.0000000000000000e+00  0.0000000000000000e+00 0.0000000000000000e+00 0.0000000000000000e+00  0.0000000000000000e+00 0.0000000000000000e+00 0.0000000000000000e+00  0.0000000000000000e+00 0.0000000000000000e+00 0.0000000000000000e+00  0.0000000000000000e+00 0.0000000000000000e+00 0.0000000000000000e+00  0.0000000000000000e+00 0.0000000000000000e+00 0.0000000000000000e+00  0.0000000000000000e+00 0.0000000000000000e+00 0.0000000000000000e+00  0.0000000000000000e+00 0.0000000000000000e+00 0.0000000000000000e+00  0.0000000000000000e+00 0.0000000000000000e+00 0.0000000000000000e+00  0.0000000000000000e+00 0.0000000000000000e+00 0.0000000000000000e+00  0.0000000000000000e+00 0.0000000000000000e+00 0.0000000000000000e+00  0.0000000000000000e+00 0.0000000000000000e+00 0.0000000000000000e+00  0.0000000000000000e+00 0.0000000000000000e+00 0.0000000000000000e+00  0.0000000000000000e+00 0.0000000000000000e+00 0.0000000000000000e+00  0.0000000000000000e+00 0.0000000000000000e+00 0.0000000000000000e+00  0.0000000000000000e+00 0.0000000000000000e+00 0.0000000000000000e+00  0.0000000000000000e+00 0.0000000000000000e+00 0.0000000000000000e+00  0.0000000000000000e+00 0.0000000000000000e+00 0.0000000000000000e+00  0.0000000000000000e+00 0.0000000000000000e+00 0.0000000000000000e+00  0.0000000000000000e+00 0.0000000000000000e+00 0.0000000000000000e+00  0.0000000000000000e+00 0.0000000000000000e+00 0.0000000000000000e+00  0.0000000000000000e+00 0.0000000000000000e+00 0.0000000000000000e+00  0.0000000000000000e+00 0.0000000000000000e+00 0.0000000000000000e+00  0.0000000000000000e+00 0.0000000000000000e+00 0.0000000000000000e+00  0.0000000000000000e+00 0.0000000000000000e+00 0.0000000000000000e+00  2.3735287085609202e-01 -1.2293523299532045e-03 0.0000000000000000e+00  2.5475812182895546e-01 5.6967573682983408e-04 0.0000000000000000e+00  2.3791921099329019e-01 6.9027865198371735e-04 0.0000000000000000e+00  0.0000000000000000e+00 0.0000000000000000e+00 0.0000000000000000e+00  0.0000000000000000e+00 0.0000000000000000e+00 0.0000000000000000e+00  0.0000000000000000e+00 0.0000000000000000e+00 0.0000000000000000e+00  0.0000000000000000e+00 0.0000000000000000e+00 0.0000000000000000e+00  0.0000000000000000e+00 0.0000000000000000e+00 0.0000000000000000e+00  0.0000000000000000e+00 0.0000000000000000e+00 0.0000000000000000e+00  0.0000000000000000e+00 0.0000000000000000e+00 0.0000000000000000e+00  0.0000000000000000e+00 0.0000000000000000e+00 0.0000000000000000e+00  0.0000000000000000e+00 0.0000000000000000e+00 0.0000000000000000e+00  0.0000000000000000e+00 0.0000000000000000e+00 0.0000000000000000e+00  0.0000000000000000e+00 0.0000000000000000e+00 0.0000000000000000e+00  0.0000000000000000e+00 0.0000000000000000e+00 0.0000000000000000e+00  0.0000000000000000e+00 0.0000000000000000e+00 0.0000000000000000e+00  0.0000000000000000e+00 0.0000000000000000e+00 0.0000000000000000e+00  0.0000000000000000e+00 0.0000000000000000e+00 0.0000000000000000e+00  0.0000000000000000e+00 0.0000000000000000e+00 0.0000000000000000e+00  0.0000000000000000e+00 0.0000000000000000e+00 0.0000000000000000e+00  0.0000000000000000e+00 0.0000000000000000e+00 0.0000000000000000e+00  0.0000000000000000e+00 0.0000000000000000e+00 0.0000000000000000e+00  0.0000000000000000e+00 0.0000000000000000e+00 0.0000000000000000e+00  0.0000000000000000e+00 0.0000000000000000e+00 0.0000000000000000e+00  0.0000000000000000e+00 0.0000000000000000e+00 0.0000000000000000e+00  0.0000000000000000e+00 0.0000000000000000e+00 0.0000000000000000e+00  0.0000000000000000e+00 0.0000000000000000e+00 0.0000000000000000e+00  0.0000000000000000e+00 0.0000000000000000e+00 0.0000000000000000e+00  0.0000000000000000e+00 0.0000000000000000e+00 0.0000000000000000e+00  0.0000000000000000e+00 0.0000000000000000e+00 0.0000000000000000e+00  0.0000000000000000e+00 0.0000000000000000e+00 0.0000000000000000e+00  0.0000000000000000e+00 0.0000000000000000e+00 0.0000000000000000e+00  0.0000000000000000e+00 0.0000000000000000e+00 0.0000000000000000e+00  0.0000000000000000e+00 0.0000000000000000e+00 0.0000000000000000e+00  0.0000000000000000e+00 0.0000000000000000e+00 0.0000000000000000e+00  0.0000000000000000e+00 0.0000000000000000e+00 0.0000000000000000e+00  0.0000000000000000e+00 0.0000000000000000e+00 0.0000000000000000e+00  0.0000000000000000e+00 0.0000000000000000e+00 0.0000000000000000e+00  0.0000000000000000e+00 0.0000000000000000e+00 0.0000000000000000e+00  0.0000000000000000e+00 0.0000000000000000e+00 0.0000000000000000e+00  0.0000000000000000e+00 0.0000000000000000e+00 0.0000000000000000e+00  0.0000000000000000e+00 0.0000000000000000e+00 0.0000000000000000e+00  0.0000000000000000e+00 0.0000000000000000e+00 0.0000000000000000e+00  0.0000000000000000e+00 0.0000000000000000e+00 0.0000000000000000e+00  0.0000000000000000e+00 0.0000000000000000e+00 0.0000000000000000e+00  0.0000000000000000e+00 0.0000000000000000e+00 0.0000000000000000e+00  0.0000000000000000e+00 0.0000000000000000e+00 0.0000000000000000e+00  0.0000000000000000e+00 0.0000000000000000e+00 0.0000000000000000e+00  0.0000000000000000e+00 0.0000000000000000e+00 0.0000000000000000e+00  0.0000000000000000e+00 0.0000000000000000e+00 0.0000000000000000e+00  0.0000000000000000e+00 0.0000000000000000e+00 0.0000000000000000e+00  0.0000000000000000e+00 0.0000000000000000e+00 0.0000000000000000e+00  0.0000000000000000e+00 0.0000000000000000e+00 0.0000000000000000e+00  0.0000000000000000e+00 0.0000000000000000e+00 0.0000000000000000e+00  0.0000000000000000e+00 0.0000000000000000e+00 0.0000000000000000e+00  0.0000000000000000e+00 0.0000000000000000e+00 0.0000000000000000e+00  0.0000000000000000e+00 0.0000000000000000e+00 0.0000000000000000e+00  0.0000000000000000e+00 0.0000000000000000e+00 0.0000000000000000e+00  0.0000000000000000e+00 0.0000000000000000e+00 0.0000000000000000e+00  0.0000000000000000e+00 0.0000000000000000e+00 0.0000000000000000e+00  0.0000000000000000e+00 0.0000000000000000e+00 0.0000000000000000e+00  0.0000000000000000e+00 0.0000000000000000e+00 0.0000000000000000e+00  0.0000000000000000e+00 0.0000000000000000e+00 0.0000000000000000e+00  0.0000000000000000e+00 0.0000000000000000e+00 0.0000000000000000e+00  0.0000000000000000e+00 0.0000000000000000e+00 0.0000000000000000e+00  0.0000000000000000e+00 0.0000000000000000e+00 0.0000000000000000e+00  0.0000000000000000e+00 0.0000000000000000e+00 0.0000000000000000e+00  0.0000000000000000e+00 0.0000000000000000e+00 0.0000000000000000e+00  0.0000000000000000e+00 0.0000000000000000e+00 0.0000000000000000e+00  0.0000000000000000e+00 0.0000000000000000e+00 0.0000000000000000e+00  0.0000000000000000e+00 0.0000000000000000e+00 0.0000000000000000e+00  0.0000000000000000e+00 0.0000000000000000e+00 0.0000000000000000e+00  0.0000000000000000e+00 0.0000000000000000e+00 0.0000000000000000e+00  0.0000000000000000e+00 0.0000000000000000e+00 0.0000000000000000e+00  0.0000000000000000e+00 0.0000000000000000e+00 0.0000000000000000e+00  0.0000000000000000e+00 0.0000000000000000e+00 0.0000000000000000e+00  0.0000000000000000e+00 0.0000000000000000e+00 0.0000000000000000e+00  0.0000000000000000e+00 0.0000000000000000e+00 0.0000000000000000e+00  0.0000000000000000e+00 0.0000000000000000e+00 0.0000000000000000e+00  0.0000000000000000e+00 0.0000000000000000e+00 0.0000000000000000e+00  0.0000000000000000e+00 0.0000000000000000e+00 0.0000000000000000e+00  -1.5728228717267787e-06 1.2544155619427373e-06 0.0000000000000000e+00  -3.1693451827611837e-06 3.0164143392388151e-06 0.0000000000000000e+00  -4.7380348665416905e-06 5.8521481585462692e-06 0.0000000000000000e+00  -6.2414378495834596e-06 9.7448367902332798e-06 0.0000000000000000e+00  -7.6782467583507775e-06 1.4641743040865504e-05 0.0000000000000000e+00  -9.0494647030467299e-06 2.0493812153284374e-05 0.0000000000000000e+00  -1.0355491712605176e-05 2.7248612983648165e-05 0.0000000000000000e+00  -1.1603637268532424e-05 3.4860389729773635e-05 0.0000000000000000e+00  -1.2789542123129502e-05 4.3284769444108744e-05 0.0000000000000000e+00  -1.3916432142126952e-05 5.2472532353133325e-05 0.0000000000000000e+00  -1.4985742479975253e-05 6.2382976879175018e-05 0.0000000000000000e+00  -1.5999113087749337e-05 7.2969903311886797e-05 0.0000000000000000e+00  -1.6957149724111941e-05 8.4194868896228704e-05 0.0000000000000000e+00  -1.7860052049798071e-05 9.6014152474431334e-05 0.0000000000000000e+00  -1.8713732212614151e-05 1.0839070718020532e-04 0.0000000000000000e+00  -1.9514670977191126e-05 1.2128840836183931e-04 0.0000000000000000e+00  -2.0265654511015027e-05 1.3466776126885738e-04 0.0000000000000000e+00  -2.0967975067490811e-05 1.4849629608967372e-04 0.0000000000000000e+00  -2.1623265422104766e-05 1.6273742571431735e-04 0.0000000000000000e+00  -2.2232666427938797e-05 1.7736139845901463e-04 0.0000000000000000e+00  -2.2797920729201640e-05 1.9233518813640350e-04 0.0000000000000000e+00  -2.3320149273410388e-05 2.0763056572114621e-04 0.0000000000000000e+00  -2.3800329594965628e-05 2.2321741665532897e-04 0.0000000000000000e+00  -2.4243179392291574e-05 2.3907022176181675e-04 0.0000000000000000e+00  -2.4647176722589819e-05 2.5516448678628364e-04 0.0000000000000000e+00  -2.5015175700190061e-05 2.7147488613658448e-04 0.0000000000000000e+00  -2.5348871943732320e-05 2.8797926965907339e-04 0.0000000000000000e+00  -2.5650368436997914e-05 3.0465650165960713e-04 0.0000000000000000e+00  -2.5921270661080260e-05 3.2148699094014364e-04 0.0000000000000000e+00  -2.6163754845149037e-05 3.3845243067237200e-04 0.0000000000000000e+00  -2.6379454991884348e-05 3.5553606571470803e-04 0.0000000000000000e+00  -2.6570571367003262e-05 3.7272237689288623e-04 0.0000000000000000e+00  -2.6738709874301370e-05 3.8999733553186228e-04 0.0000000000000000e+00  -2.6886039409172394e-05 4.0734813126965723e-04 0.0000000000000000e+00  -2.7014129594194201e-05 4.2476331417200892e-04 0.0000000000000000e+00  -2.7125033483758865e-05 4.4223261884147576e-04 0.0000000000000000e+00  -2.7220231576864198e-05 4.5974702858982255e-04 0.0000000000000000e+00  -2.7301634315904938e-05 4.7729860001422789e-04 0.0000000000000000e+00  -2.7370583277560518e-05 4.9488051258874365e-04 0.0000000000000000e+00  -2.7428782735282828e-05 5.1248689324379776e-04 0.0000000000000000e+00  -2.7477346599167486e-05 5.3011285089325105e-04 0.0000000000000000e+00  -2.7517633863669426e-05 5.4775403607476656e-04 0.0000000000000000e+00  -2.7550956932012399e-05 5.6540749644468991e-04 0.0000000000000000e+00  -2.7577816647541990e-05 5.8307023826003235e-04 0.0000000000000000e+00  -2.7599442705389875e-05 6.0073975586826802e-04 0.0000000000000000e+00  -2.7618316048657011e-05 6.1841574852501517e-04 0.0000000000000000e+00  -1.5783437432150477e-05 6.3609984946572866e-04 0.0000000000000000e+00  7.8882947331538354e-06 6.3608847103842879e-04 0.0000000000000000e+00  1.9724781066490371e-05 6.1841098644681888e-04 0.0000000000000000e+00  1.9730433551399194e-05 6.0073060458032466e-04 0.0000000000000000e+00  1.9733979561619687e-05 5.8305485345095623e-04 0.0000000000000000e+00  1.9736934097130102e-05 5.6538623416589042e-04 0.0000000000000000e+00  1.9739006611402186e-05 5.4772679064723226e-04 0.0000000000000000e+00  1.9740052868577830e-05 5.3007934561253851e-04 0.0000000000000000e+00  1.9738981110902966e-05 5.1244673000869353e-04 0.0000000000000000e+00  1.9734874716730984e-05 4.9483347547276801e-04 0.0000000000000000e+00  1.9727035872283577e-05 4.7724410630462958e-04 0.0000000000000000e+00  1.9714112824399510e-05 4.5968497640589426e-04 0.0000000000000000e+00  1.9695226434136669e-05 4.4216233356433432e-04 0.0000000000000000e+00  1.9668787344121987e-05 4.2468480607828641e-04 0.0000000000000000e+00  1.9633781578640779e-05 4.0726066608448271e-04 0.0000000000000000e+00  1.9588396011676393e-05 3.8990108309611246e-04 0.0000000000000000e+00  1.9531494248024777e-05 3.7261656484956440e-04 0.0000000000000000e+00  1.9461066224198609e-05 3.5542103870408472e-04 0.0000000000000000e+00  1.9375865537294777e-05 3.3832741309141082e-04 0.0000000000000000e+00  1.9273706453403589e-05 3.2135253741596628e-04 0.0000000000000000e+00  1.9153250446747858e-05 3.0451183263376097e-04 0.0000000000000000e+00  1.9012155665406790e-05 2.8782519062533427e-04 0.0000000000000000e+00  1.8848999516791246e-05 2.7131061939864877e-04 0.0000000000000000e+00  1.8661362736112129e-05 2.5499100388572674e-04 0.0000000000000000e+00  1.8447514946987152e-05 2.3888724781408665e-04 0.0000000000000000e+00  1.8204138931636500e-05 2.2302539558543538e-04 0.0000000000000000e+00  1.7932425177132539e-05 2.0742984947202993e-04 0.0000000000000000e+00  1.7627347182442455e-05 1.9212634765163888e-04 0.0000000000000000e+00  1.7287101093322064e-05 1.7714458537838887e-04 0.0000000000000000e+00  1.6910153026337410e-05 1.6251391376866206e-04 0.0000000000000000e+00  1.6493858699227680e-05 1.4826556970755743e-04 0.0000000000000000e+00  1.6036327063510559e-05 1.3443186221210690e-04 0.0000000000000000e+00  1.5535068670640801e-05 1.2104672847188100e-04 0.0000000000000000e+00  1.4987889416799744e-05 1.0814469509406553e-04 0.0000000000000000e+00  1.4391173585622882e-05 9.5764323052595024e-05 0.0000000000000000e+00  1.3747282962510496e-05 8.3941844213215571e-05 0.0000000000000000e+00  1.3049767228896889e-05 7.2714667815220436e-05 0.0000000000000000e+00  1.2297165513144100e-05 6.2125025065377066e-05 0.0000000000000000e+00  1.1488181728180345e-05 5.2214020783720304e-05 0.0000000000000000e+00  1.0620387126660608e-05 4.3024475392742695e-05 0.0000000000000000e+00  9.6917608505643799e-06 3.4599685576625213e-05 0.0000000000000000e+00  8.6987479660301416e-06 2.6987465939727859e-05 0.0000000000000000e+00  7.6449956077519589e-06 2.0232371939619209e-05 0.0000000000000000e+00  6.5234864278684810e-06 1.4380280319600793e-05 0.0000000000000000e+00  5.3334979577585552e-06 9.4825533078272528e-06 0.0000000000000000e+00  4.0739035181564821e-06 5.5882693714198415e-06 0.0000000000000000e+00  2.7401953207750805e-06 2.7512830545709269e-06 0.0000000000000000e+00  1.3504098255012480e-06 1.0142504411531339e-06 0.0000000000000000e+00  -1.6907545767660482e-07 1.3333482887636756e-06 0.0000000000000000e+00  -4.2345642715160309e-06 6.0952946463482685e-04 0.0000000000000000e+00  -4.3945136399123452e-06 5.7575184402833507e-04 0.0000000000000000e+00  -4.1150596056099600e-06 5.2063755348388157e-04 0.0000000000000000e+00  -3.9238579703584398e-07 6.9208775492638413e-06 0.0000000000000000e+00  -3.7961275619695659e-06 4.8604279531980123e-04 0.0000000000000000e+00  -5.2980603352045321e-07 1.6289858618678601e-05 0.0000000000000000e+00  -3.7267885501073583e-06 4.5092525588659590e-04 0.0000000000000000e+00  -8.7359386516798344e-07 3.8719641151951361e-05 0.0000000000000000e+00  -1.2765466250002493e-06 5.6791188687831688e-05 0.0000000000000000e+00  -3.6414952453696479e-06 4.1596948742330265e-04 0.0000000000000000e+00  -1.6955794050239921e-06 1.1489656078313859e-04 0.0000000000000000e+00  -3.4175157801730293e-06 3.4685226834984634e-04 0.0000000000000000e+00  -1.3311788043623783e-06 7.7099191065595760e-05 0.0000000000000000e+00  -2.1691168815083526e-06 1.4115169248919644e-04 0.0000000000000000e+00  -3.2767655390607227e-06 3.1289558117215976e-04 0.0000000000000000e+00  -3.5388069817975905e-06 3.8124785704854078e-04 0.0000000000000000e+00  -2.4069033147468998e-06 1.6967241140672731e-04 0.0000000000000000e+00  -3.1161696764982104e-06 2.7951263521279224e-04 0.0000000000000000e+00  -2.3558038051204143e-06 1.9841871075179573e-04 0.0000000000000000e+00  -3.2138700190066319e-06 2.4752809011543107e-04 0.0000000000000000e+00  -2.7730567733792746e-06 2.2167089735188191e-04 0.0000000000000000e+00  -1.7477441036455359e-06 9.4494998862525685e-05 0.0000000000000000e+00  -3.8415778415324248e-06 5.4927725568303424e-04 0.0000000000000000e+00  -8.1364576074445218e-07 2.6015512911647288e-05 0.0000000000000000e+00  3.9906747409347195e-06 5.9251541839393869e-04 0.0000000000000000e+00  1.0328562741192109e-06 3.5694520921058132e-06 0.0000000000000000e+00  3.0663844601091215e-06 4.6846094806491029e-04 0.0000000000000000e+00  3.0275442114541678e-06 5.0363937570119916e-04 0.0000000000000000e+00  -2.7808117929653280e-06 1.1418031144822186e-05 0.0000000000000000e+00  -4.6857333909117684e-06 4.7285563112821853e-05 0.0000000000000000e+00  3.2003032507444740e-06 3.6399168323716241e-04 0.0000000000000000e+00  3.1094623414255584e-06 4.3341487367961831e-04 0.0000000000000000e+00  -7.2258210274117432e-06 1.2757856117357209e-04 0.0000000000000000e+00  3.2426893925946234e-06 3.2979884851503511e-04 0.0000000000000000e+00  -5.4920836407154331e-06 6.7141776917726563e-05 0.0000000000000000e+00  -7.8077752974914711e-06 1.5526680991685107e-04 0.0000000000000000e+00  3.2784710897983663e-06 2.9610977274117191e-04 0.0000000000000000e+00  3.1549027374388390e-06 3.9856445654168105e-04 0.0000000000000000e+00  -9.6013326372029165e-06 1.8439151194448629e-04 0.0000000000000000e+00  3.3034187879193946e-06 2.6307061903587824e-04 0.0000000000000000e+00  -3.9813219536366661e-07 3.6037983164235477e-07 0.0000000000000000e+00  2.5347072381602199e-07 2.5798520054083615e-07 0.0000000000000000e+00  -9.6916857526002760e-06 6.2343527037001922e-04 0.0000000000000000e+00  -1.7290688839491821e-06 3.6899762829198744e-06 0.0000000000000000e+00  4.7604047162848139e-06 2.3441497846753590e-04 0.0000000000000000