<?xml version="1.0"?>
<VTKFile type="UnstructuredGrid"  version="0.1"  >
<UnstructuredGrid>
<Piece  NumberOfPoints="1419" NumberOfCells="2698">
<Points>
<DataArray  type="Float64"  NumberOfComponents="3"  format="ascii">0 0 0  0 0.41 0  2.5 0 0  2.5 0.41 0  0.6 0.19 0  0.6 0.21 0  0.25 0.2 0  0.15 0.2 0  0.2489897948556636 0.21 0  0.2489897948556636 0.19 0  0.6 0.2 0  0 0.3807142857143437 0  0 0.3514285714286952 0  0 0.3221428571430699 0  0 0.29285714285744 0  0 0.2635714285718054 0  0 0.2342857142861561 0  0 0.2050000000005308 0  0 0.175714285714732 0  0 0.1464285714289574 0  0 0.1171428571431897 0  0 0.08785714285737878 0  0 0.05857142857161107 0  0 0.02928571428580012 0  0.03015443760436003 0 0  0.06140001986583606 0 0  0.09377624077125973 0 0  0.1273239957535082 0 0  0.1620856860351972 0 0  0.1981052433264291 0 0  0.235428184091502 0 0  0.2741016576309132 0 0  0.3141745521465447 0 0  0.3556974926295285 0 0  0.3987229542472677 0 0  0.4433053055141081 0 0  0.4895008759286886 0 0  0.5373680609405097 0 0  0.5869673343216626 0 0  0.6383613676634521 0 0  0.6916151138468254 0 0  0.7467958595648856 0 0  0.8039733463919316 0 0  0.8632198139502143 0 0  0.9246101326867038 0 0  0.9882218810934433 0 0  1.054135445558498 0 0  1.122434100542598 0 0  1.193204177141305 0 0  1.266535089879536 0 0  1.342519516046404 0 0  1.421253448503939 0 0  1.502836389106271 0 0  1.587371439758838 0 0  1.674965418777374 0 0  1.765729001825544 0 0  1.859776908880082 0 0  1.957227977487062 0 0  2.058205329869943 0 0  2.162836591189951 0 0  2.271253957290865 0 0  2.383594446803425 0 0  2.5 0.1024999999997612 0  2.5 0.2049999999994743 0  2.5 0.3074999999997183 0  2.383594446803656 0.41 0  2.271253957291315 0.41 0  2.162836591190598 0.41 0  2.058205329870775 0.41 0  1.957227977488067 0.41 0  1.859776908881246 0.41 0  1.765729001826854 0.41 0  1.674965418778818 0.41 0  1.58737143976041 0.41 0  1.502836389107956 0.41 0  1.421253448505726 0.41 0  1.342519516048286 0.41 0  1.266535089881505 0.41 0  1.193204177143353 0.41 0  1.122434100544716 0.41 0  1.05413544556068 0.41 0  0.9882218810956305 0.41 0  0.9246101326886647 0.41 0  0.8632198139519631 0.41 0  0.8039733463934788 0.41 0  0.7467958595662458 0.41 0  0.6916151138480078 0.41 0  0.6383613676644679 0.41 0  0.5869673343225223 0.41 0  0.5373680609412221 0.41 0  0.4895008759292634 0.41 0  0.4433053055145528 0.41 0  0.3987229542475914 0.41 0  0.3556974926297398 0.41 0  0.3141745521466497 0.41 0  0.2741016576310038 0.41 0  0.2354281840915826 0.41 0  0.1981052433265003 0.41 0  0.1620856860352591 0.41 0  0.1273239957535623 0.41 0  0.09377624077128965 0.41 0  0.06140001986584975 0.41 0  0.03015443760436654 0.41 0  0.2497468076502589 0.2050254481002335 0  0.2497468076502614 0.1949745518997913 0  0.2469965252529372 0.1829317073451959 0  0.2439893735792749 0.1762316384219906 0  0.2400332147834255 0.1700443375285386 0  0.2352133972704371 0.1645032867342007 0  0.2296339016332438 0.1597280261969788 0  0.2234150974217223 0.1558215752574715 0  0.2166911463437691 0.1528682099456123 0  0.2096071079204251 0.1509316448471593 0  0.2023158100364996 0.1500536585536553 0  0.194974551899914 0.1502531923497262 0  0.1877417105387872 0.1515259415822739 0  0.1807733240461124 0.153844448527136 0  0.1742197252835808 0.15715869474974 0  0.1682222986673531 0.1613971801805478 0  0.162910430003803 0.1664684656256651 0  0.1583987151779087 0.1722631454351573 0  0.1547844879126891 0.178656207771761 0  0.1521457199348551 0.1855097315605723 0  0.1505393388476355 0.1926758619366523 0  0.1505393388476328 0.2073241380633295 0  0.1521457199348437 0.2144902684393899 0  0.1547844879126531 0.221343792228163 0  0.1583987151778488 0.2277368545647528 0  0.1629104300036858 0.2335315343742052 0  0.1682222986671726 0.2386028198193036 0  0.1742197252833576 0.2428413052501257 0  0.1807733240458683 0.2461555514727623 0  0.1877417105384929 0.2484740584176516 0  0.1949745518995776 0.2497468076502398 0  0.202315810036185 0.2499463414463592 0  0.2096071079201568 0.2490683551528932 0  0.2166911463435495 0.2471317900544655 0  0.2234150974215506 0.2441784247426195 0  0.2296339016331197 0.2402719738031125 0  0.2352133972703547 0.2354967132658811 0  0.2400332147833751 0.2299556624715287 0  0.2439893735792577 0.2237683615780412 0  0.246996525252926 0.2170682926548348 0  0.25645809709277 0.21 0  0.2639263993298655 0.21 0  0.271394701566961 0.21 0  0.2788630038040554 0.21 0  0.2863313060411479 0.21 0  0.2937996082782405 0.21 0  0.301267910515333 0.21 0  0.3087362127524279 0.21 0  0.3162045149895234 0.21 0  0.3236728172265972 0.21 0  0.3311411194636928 0.21 0  0.3386094217007701 0.21 0  0.3460777239378666 0.21 0  0.3535460261749672 0.21 0  0.3610143284120516 0.21 0  0.3684826306491596 0.21 0  0.3759509328862226 0.21 0  0.383419235123329 0.21 0  0.3908875373604028 0.21 0  0.3983558395975142 0.21 0  0.4058241418345938 0.21 0  0.4132924440716992 0.21 0  0.4207607463087888 0.21 0  0.4282290485459029 0.21 0  0.4356973507830418 0.21 0  0.4431656530201649 0.21 0  0.4506339552573136 0.21 0  0.4581022574944306 0.21 0  0.4655705597315852 0.21 0  0.4730388619686996 0.21 0  0.480507164205851 0.21 0  0.4879754664429498 0.21 0  0.4954437686800938 0.21 0  0.502912070917267 0.21 0  0.5103803731544119 0.21 0  0.5178486753915261 0.21 0  0.5253169776286404 0.21 0  0.5327852798657868 0.21 0  0.5402535821029386 0.21 0  0.54772188434007 0.21 0  0.5551901865771842 0.21 0  0.5626584888143201 0.21 0  0.5701267910514778 0.21 0  0.5775950932886138 0.21 0  0.5850633955257281 0.21 0  0.5925316977628483 0.21 0  0.6 0.2050000000000054 0  0.6 0.1950000000000217 0  0.5925316977628897 0.19 0  0.5850633955257988 0.19 0  0.5775950932887378 0.19 0  0.5701267910515998 0.19 0  0.5626584888145268 0.19 0  0.5551901865773963 0.19 0  0.547721884340339 0.19 0  0.5402535821032429 0.19 0  0.5327852798661811 0.19 0  0.5253169776290537 0.19 0  0.5178486753919799 0.19 0  0.5103803731549078 0.19 0  0.502912070917822 0.19 0  0.4954437686807294 0.19 0  0.4879754664436223 0.19 0  0.4805071642065402 0.19 0  0.4730388619694271 0.19 0  0.4655705597323621 0.19 0  0.4581022574952563 0.19 0  0.4506339552581777 0.19 0  0.4431656530210671 0.19 0  0.4356973507839815 0.19 0  0.4282290485468779 0.19 0  0.4207607463097617 0.19 0  0.4132924440726327 0.19 0  0.4058241418354857 0.19 0  0.3983558395983636 0.19 0  0.3908875373612097 0.19 0  0.3834192351240934 0.19 0  0.3759509328869369 0.19 0  0.3684826306498175 0.19 0  0.361014328412667 0.19 0  0.3535460261755617 0.19 0  0.3460777239384295 0.19 0  0.3386094217012945 0.19 0  0.3311411194641595 0.19 0  0.3236728172270245 0.19 0  0.3162045149898895 0.19 0  0.3087362127527544 0.19 0  0.3012679105156187 0.19 0  0.2937996082784807 0.19 0  0.2863313060413428 0.19 0  0.2788630038042048 0.19 0  0.2713947015670686 0.19 0  0.2639263993299336 0.19 0  0.2564580970927985 0.19 0  0.2607803159922026 0.2000727136295815 0  0.5887803774232762 0.2001272386983733 0  0.5745072403740523 0.2002044435018727 0  0.5511891430099709 0.2001122610077113 0  0.2751288526855082 0.20000000000002 0  0.5365194309847112 0.1999999999999436 0  0.2894621222999649 0.1998691686390484 0  0.5215828265105155 0.1999999999999228 0  0.3127789816668748 0.1998657885438805 0  0.3274069683451451 0.2000000000000796 0  0.5066462220363641 0.199999999999908 0  0.3650630746574081 0.199866017807523 0  0.476773013087985 0.1999999999998713 0  0.3417402379596385 0.1998691686391011 0  0.3796850840047755 0.200000000000134 0  0.4618364086138087 0.1999999999998546 0  0.4917096175621762 0.1999999999998808 0  0.3946216884789568 0.2000000000001512 0  0.446899804139621 0.1999999999998389 0  0.4089549580935208 0.1998691686391595 0  0.4322718174608562 0.200127451265745 0  0.4201487168029707 0.1999966199048527 0  0.3528922713220932 0.2000185703532356 0  0.5633122436674589 0.1999814296467508 0  0.3006558810093873 0.1999966199048318 0  0.5815926498168407 0.1966545283159175 0  0.2677053789419034 0.1964246479135325 0  0.5290511287476175 0.1970915826863981 0  0.5439877332217911 0.197091582686394 0  0.2825131256993216 0.2035478995978015 0  0.3199386661080599 0.202908417313604 0  0.4842413153250809 0.1970915826863873 0  0.5141145242734466 0.1970915826863843 0  0.3722167817676917 0.2029084173136195 0  0.4693047108508938 0.1970915826863783 0  0.3348752705822316 0.202908417313609 0  0.3871533862418661 0.2029084173136212 0  0.4543681063767183 0.1970915826863795 0  0.4991779197992749 0.1970915826863902 0  0.4020059614928624 0.203547899597858 0  0.4394315019025246 0.1970915826863714 0  0.2550657455369551 0.2034088125358657 0  0.2548908499171161 0.1966940311614271 0  0.5946539510196798 0.2024302972968126 0  0.267698176732111 0.2039977513680092 0  0.4261685417851465 0.196409292431739 0  0.3590076176283495 0.196411355804271 0  0.5571672426447437 0.2036011176410121 0  0.3066757059912147 0.1964092924317024 0  0.594380730180568 0.1966558399668133 0  0.4842413153245942 0.2040749161535287 0  0.4693047108503577 0.2040749161535231 0  0.3871533862424271 0.1959250838464788 0  0.372246743208829 0.1959123236376545 0  0.5141145242731028 0.2040749161535395 0  0.4543681063761134 0.2040749161535186 0  0.4019979587101454 0.1959834479682427 0  0.4394608940728603 0.2040870543693135 0  0.5439623148931173 0.2040856076781014 0  0.5290511287473298 0.2040749161535501 0  0.4991779197988497 0.2040749161535382 0  0.3347912413592433 0.1959225448935183 0  0.3199680582793816 0.1959123018030061 0  0.2825051229162361 0.1959834479681729 0  0.3590471196690275 0.2036304442587945 0  0.5571594006495384 0.1963685282145804 0  0.3067669986803285 0.203627750582736 0  0.4262598344738712 0.2036568242185335 0  0.5814408164431408 0.2041285596160068 0  0.5688286748170428 0.1961819304477386 0  0.4145905603063645 0.2038180695522843 0  0.3473758401724931 0.2038180695522752 0  0.2950977245128307 0.2038180695522663 0  0.5688286748170693 0.203818069552238 0  0.2950977245127906 0.1961819304477774 0  0.3473758401723931 0.1961819304478349 0  0.4145905603061963 0.1961819304479011 0  0.2601812407614425 0.2056861609747042
[...]
<PointData  Vectors="f_40-0"> 
<DataArray  type="Float64"  Name="f_40-0"  NumberOfComponents="3" format="ascii">0.0000000000000000e+00 0.0000000000000000e+00 0.0000000000000000e+00  0.0000000000000000e+00 0.0000000000000000e+00 0.0000000000000000e+00  0.0000000000000000e+00 0.0000000000000000e+00 0.0000000000000000e+00  0.0000000000000000e+00 0.0000000000000000e+00 0.0000000000000000e+00  1.5740093849383904e-05 4.9135986864988664e-04 0.0000000000000000e+00  -2.0998255924109268e-05 4.9134911360961182e-04 0.0000000000000000e+00  0.0000000000000000e+00 0.0000000000000000e+00 0.0000000000000000e+00  0.0000000000000000e+00 0.0000000000000000e+00 0.0000000000000000e+00  0.0000000000000000e+00 0.0000000000000000e+00 0.0000000000000000e+00  0.0000000000000000e+00 0.0000000000000000e+00 0.0000000000000000e+00  -2.6137512566558416e-06 4.9134124794081313e-04 0.0000000000000000e+00  7.9591836734548407e-02 0.0000000000000000e+00 0.0000000000000000e+00  1.4693877550994527e-01 0.0000000000000000e+00 0.0000000000000000e+00  2.0204081632617479e-01 0.0000000000000000e+00 0.0000000000000000e+00  2.4489795918330076e-01 0.0000000000000000e+00 0.0000000000000000e+00  2.7551020408131754e-01 0.0000000000000000e+00 0.0000000000000000e+00  2.9387755102022350e-01 0.0000000000000000e+00 0.0000000000000000e+00  3.0000000000000004e-01 0.0000000000000000e+00 0.0000000000000000e+00  2.9387755102059482e-01 0.0000000000000000e+00 0.0000000000000000e+00  2.7551020408195548e-01 0.0000000000000000e+00 0.0000000000000000e+00  2.4489795918409071e-01 0.0000000000000000e+00 0.0000000000000000e+00  2.0204081632692525e-01 0.0000000000000000e+00 0.0000000000000000e+00  1.4693877551058568e-01 0.0000000000000000e+00 0.0000000000000000e+00  7.9591836734909230e-02 0.0000000000000000e+00 0.0000000000000000e+00  0.0000000000000000e+00 0.0000000000000000e+00 0.0000000000000000e+00  0.0000000000000000e+00 0.0000000000000000e+00 0.0000000000000000e+00  0.0000000000000000e+00 0.0000000000000000e+00 0.0000000000000000e+00  0.0000000000000000e+00 0.0000000000000000e+00 0.0000000000000000e+00  0.0000000000000000e+00 0.0000000000000000e+00 0.0000000000000000e+00  0.0000000000000000e+00 0.0000000000000000e+00 0.0000000000000000e+00  0.0000000000000000e+00 0.0000000000000000e+00 0.0000000000000000e+00  0.0000000000000000e+00 0.0000000000000000e+00 0.0000000000000000e+00  0.0000000000000000e+00 0.0000000000000000e+00 0.0000000000000000e+00  0.0000000000000000e+00 0.0000000000000000e+00 0.0000000000000000e+00  0.0000000000000000e+00 0.0000000000000000e+00 0.0000000000000000e+00  0.0000000000000000e+00 0.0000000000000000e+00 0.0000000000000000e+00  0.0000000000000000e+00 0.0000000000000000e+00 0.0000000000000000e+00  0.0000000000000000e+00 0.0000000000000000e+00 0.0000000000000000e+00  0.0000000000000000e+00 0.0000000000000000e+00 0.0000000000000000e+00  0.0000000000000000e+00 0.0000000000000000e+00 0.0000000000000000e+00  0.0000000000000000e+00 0.0000000000000000e+00 0.0000000000000000e+00  0.0000000000000000e+00 0.0000000000000000e+00 0.0000000000000000e+00  0.0000000000000000e+00 0.0000000000000000e+00 0.0000000000000000e+00  0.0000000000000000e+00 0.0000000000000000e+00 0.0000000000000000e+00  0.0000000000000000e+00 0.0000000000000000e+00 0.0000000000000000e+00  0.0000000000000000e+00 0.0000000000000000e+00 0.0000000000000000e+00  0.0000000000000000e+00 0.0000000000000000e+00 0.0000000000000000e+00  0.0000000000000000e+00 0.0000000000000000e+00 0.0000000000000000e+00  0.0000000000000000e+00 0.0000000000000000e+00 0.0000000000000000e+00  0.0000000000000000e+00 0.0000000000000000e+00 0.0000000000000000e+00  0.0000000000000000e+00 0.0000000000000000e+00 0.0000000000000000e+00  0.0000000000000000e+00 0.0000000000000000e+00 0.0000000000000000e+00  0.0000000000000000e+00 0.0000000000000000e+00 0.0000000000000000e+00  0.0000000000000000e+00 0.0000000000000000e+00 0.0000000000000000e+00  0.0000000000000000e+00 0.0000000000000000e+00 0.0000000000000000e+00  0.0000000000000000e+00 0.0000000000000000e+00 0.0000000000000000e+00  0.0000000000000000e+00 0.0000000000000000e+00 0.0000000000000000e+00  0.0000000000000000e+00 0.0000000000000000e+00 0.0000000000000000e+00  0.0000000000000000e+00 0.0000000000000000e+00 0.0000000000000000e+00  0.0000000000000000e+00 0.0000000000000000e+00 0.0000000000000000e+00  0.0000000000000000e+00 0.0000000000000000e+00 0.0000000000000000e+00  0.0000000000000000e+00 0.0000000000000000e+00 0.0000000000000000e+00  2.3653368761698795e-01 -1.9014004614722924e-03 0.0000000000000000e+00  2.6192742575188127e-01 3.9907993083275489e-04 0.0000000000000000e+00  2.3689216204038366e-01 1.2686441213635481e-03 0.0000000000000000e+00  0.0000000000000000e+00 0.0000000000000000e+00 0.0000000000000000e+00  0.0000000000000000e+00 0.0000000000000000e+00 0.0000000000000000e+00  0.0000000000000000e+00 0.0000000000000000e+00 0.0000000000000000e+00  0.0000000000000000e+00 0.0000000000000000e+00 0.0000000000000000e+00  0.0000000000000000e+00 0.0000000000000000e+00 0.0000000000000000e+00  0.0000000000000000e+00 0.0000000000000000e+00 0.0000000000000000e+00  0.0000000000000000e+00 0.0000000000000000e+00 0.0000000000000000e+00  0.0000000000000000e+00 0.0000000000000000e+00 0.0000000000000000e+00  0.0000000000000000e+00 0.0000000000000000e+00 0.0000000000000000e+00  0.0000000000000000e+00 0.0000000000000000e+00 0.0000000000000000e+00  0.0000000000000000e+00 0.0000000000000000e+00 0.0000000000000000e+00  0.0000000000000000e+00 0.0000000000000000e+00 0.0000000000000000e+00  0.0000000000000000e+00 0.0000000000000000e+00 0.0000000000000000e+00  0.0000000000000000e+00 0.0000000000000000e+00 0.0000000000000000e+00  0.0000000000000000e+00 0.0000000000000000e+00 0.0000000000000000e+00  0.0000000000000000e+00 0.0000000000000000e+00 0.0000000000000000e+00  0.0000000000000000e+00 0.0000000000000000e+00 0.0000000000000000e+00  0.0000000000000000e+00 0.0000000000000000e+00 0.0000000000000000e+00  0.0000000000000000e+00 0.0000000000000000e+00 0.0000000000000000e+00  0.0000000000000000e+00 0.0000000000000000e+00 0.0000000000000000e+00  0.0000000000000000e+00 0.0000000000000000e+00 0.0000000000000000e+00  0.0000000000000000e+00 0.0000000000000000e+00 0.0000000000000000e+00  0.0000000000000000e+00 0.0000000000000000e+00 0.0000000000000000e+00  0.0000000000000000e+00 0.0000000000000000e+00 0.0000000000000000e+00  0.0000000000000000e+00 0.0000000000000000e+00 0.0000000000000000e+00  0.0000000000000000e+00 0.0000000000000000e+00 0.0000000000000000e+00  0.0000000000000000e+00 0.0000000000000000e+00 0.0000000000000000e+00  0.0000000000000000e+00 0.0000000000000000e+00 0.0000000000000000e+00  0.0000000000000000e+00 0.0000000000000000e+00 0.0000000000000000e+00  0.0000000000000000e+00 0.0000000000000000e+00 0.0000000000000000e+00  0.0000000000000000e+00 0.0000000000000000e+00 0.0000000000000000e+00  0.0000000000000000e+00 0.0000000000000000e+00 0.0000000000000000e+00  0.0000000000000000e+00 0.0000000000000000e+00 0.0000000000000000e+00  0.0000000000000000e+00 0.0000000000000000e+00 0.0000000000000000e+00  0.0000000000000000e+00 0.0000000000000000e+00 0.0000000000000000e+00  0.0000000000000000e+00 0.0000000000000000e+00 0.0000000000000000e+00  0.0000000000000000e+00 0.0000000000000000e+00 0.0000000000000000e+00  0.0000000000000000e+00 0.0000000000000000e+00 0.0000000000000000e+00  0.0000000000000000e+00 0.0000000000000000e+00 0.0000000000000000e+00  0.0000000000000000e+00 0.0000000000000000e+00 0.0000000000000000e+00  0.0000000000000000e+00 0.0000000000000000e+00 0.0000000000000000e+00  0.0000000000000000e+00 0.0000000000000000e+00 0.0000000000000000e+00  0.0000000000000000e+00 0.0000000000000000e+00 0.0000000000000000e+00  0.0000000000000000e+00 0.0000000000000000e+00 0.0000000000000000e+00  0.0000000000000000e+00 0.0000000000000000e+00 0.0000000000000000e+00  0.0000000000000000e+00 0.0000000000000000e+00 0.0000000000000000e+00  0.0000000000000000e+00 0.0000000000000000e+00 0.0000000000000000e+00  0.0000000000000000e+00 0.0000000000000000e+00 0.0000000000000000e+00  0.0000000000000000e+00 0.0000000000000000e+00 0.0000000000000000e+00  0.0000000000000000e+00 0.0000000000000000e+00 0.0000000000000000e+00  0.0000000000000000e+00 0.0000000000000000e+00 0.0000000000000000e+00  0.0000000000000000e+00 0.0000000000000000e+00 0.0000000000000000e+00  0.0000000000000000e+00 0.0000000000000000e+00 0.0000000000000000e+00  0.0000000000000000e+00 0.0000000000000000e+00 0.0000000000000000e+00  0.0000000000000000e+00 0.0000000000000000e+00 0.0000000000000000e+00  0.0000000000000000e+00 0.0000000000000000e+00 0.0000000000000000e+00  0.0000000000000000e+00 0.0000000000000000e+00 0.0000000000000000e+00  0.0000000000000000e+00 0.0000000000000000e+00 0.0000000000000000e+00  0.0000000000000000e+00 0.0000000000000000e+00 0.0000000000000000e+00  0.0000000000000000e+00 0.0000000000000000e+00 0.0000000000000000e+00  0.0000000000000000e+00 0.0000000000000000e+00 0.0000000000000000e+00  0.0000000000000000e+00 0.0000000000000000e+00 0.0000000000000000e+00  0.0000000000000000e+00 0.0000000000000000e+00 0.0000000000000000e+00  0.0000000000000000e+00 0.0000000000000000e+00 0.0000000000000000e+00  0.0000000000000000e+00 0.0000000000000000e+00 0.0000000000000000e+00  0.0000000000000000e+00 0.0000000000000000e+00 0.0000000000000000e+00  0.0000000000000000e+00 0.0000000000000000e+00 0.0000000000000000e+00  0.0000000000000000e+00 0.0000000000000000e+00 0.0000000000000000e+00  0.0000000000000000e+00 0.0000000000000000e+00 0.0000000000000000e+00  0.0000000000000000e+00 0.0000000000000000e+00 0.0000000000000000e+00  0.0000000000000000e+00 0.0000000000000000e+00 0.0000000000000000e+00  0.0000000000000000e+00 0.0000000000000000e+00 0.0000000000000000e+00  0.0000000000000000e+00 0.0000000000000000e+00 0.0000000000000000e+00  0.0000000000000000e+00 0.0000000000000000e+00 0.0000000000000000e+00  0.0000000000000000e+00 0.0000000000000000e+00 0.0000000000000000e+00  0.0000000000000000e+00 0.0000000000000000e+00 0.0000000000000000e+00  0.0000000000000000e+00 0.0000000000000000e+00 0.0000000000000000e+00  0.0000000000000000e+00 0.0000000000000000e+00 0.0000000000000000e+00  -1.1784978681681108e-06 9.3370022592975336e-07 0.0000000000000000e+00  -2.3772782523654091e-06 2.2795829566244121e-06 0.0000000000000000e+00  -3.5521509857305858e-06 4.4507220939977227e-06 0.0000000000000000e+00  -4.6766929766361255e-06 7.4316748334756658e-06 0.0000000000000000e+00  -5.7506900123782066e-06 1.1182299262087834e-05 0.0000000000000000e+00  -6.7750271111490847e-06 1.5665497906689701e-05 0.0000000000000000e+00  -7.7501277193845530e-06 2.0841612551985879e-05 0.0000000000000000e+00  -8.6816451764297629e-06 2.6675976678047832e-05 0.0000000000000000e+00  -9.5663930722861064e-06 3.3135107147521176e-05 0.0000000000000000e+00  -1.0406982888479246e-05 4.0181813027304023e-05 0.0000000000000000e+00  -1.1204610349392844e-05 4.7785381195312861e-05 0.0000000000000000e+00  -1.1960692901755520e-05 5.5910968585437799e-05 0.0000000000000000e+00  -1.2675791011809378e-05 6.4529583021092726e-05 0.0000000000000000e+00  -1.3350211231720125e-05 7.3608273757201563e-05 0.0000000000000000e+00  -1.3988525011293445e-05 8.3119082603422137e-05 0.0000000000000000e+00  -1.4588168453193878e-05 9.3034761556224242e-05 0.0000000000000000e+00  -1.5151337455185455e-05 1.0332547189334588e-04 0.0000000000000000e+00  -1.5679059130784687e-05 1.1396666541364035e-04 0.0000000000000000e+00  -1.6172614044889802e-05 1.2493063044626782e-04 0.0000000000000000e+00  -1.6632879934355763e-05 1.3619479404895286e-04 0.0000000000000000e+00  -1.7061168645632759e-05 1.4773404194080752e-04 0.0000000000000000e+00  -1.7458308244499652e-05 1.5952685813482283e-04 0.0000000000000000e+00  -1.7824975027646313e-05 1.7155019042272514e-04 0.0000000000000000e+00  -1.8164723291162848e-05 1.8378455452743909e-04 0.0000000000000000e+00  -1.8476295218480013e-05 1.9621102435679185e-04 0.0000000000000000e+00  -1.8761758975806481e-05 2.0881007884038941e-04 0.0000000000000000e+00  -1.9022316996468258e-05 2.2156455149519261e-04 0.0000000000000000e+00  -1.9259444760342758e-05 2.3445799013512115e-04 0.0000000000000000e+00  -1.9474261686768988e-05 2.4747508362778112e-04 0.0000000000000000e+00  -1.9668290601801509e-05 2.6060145564664271e-04 0.0000000000000000e+00  -1.9842674553295512e-05 2.7382388761858695e-04 0.0000000000000000e+00  -1.9998955646427278e-05 2.8713007461109201e-04 0.0000000000000000e+00  -2.0138263630192722e-05 3.0050883545672762e-04 0.0000000000000000e+00  -2.0262133743268793e-05 3.1394990682765583e-04 0.0000000000000000e+00  -2.0371676729604458e-05 3.2744406790046144e-04 0.0000000000000000e+00  -2.0468361077437103e-05 3.4098300145278299e-04 0.0000000000000000e+00  -2.0553250162412261e-05 3.5455936855881130e-04 0.0000000000000000e+00  -2.0627725519590797e-05 3.6816666344568263e-04 0.0000000000000000e+00  -2.0692765412442108e-05 3.8179927819536691e-04 0.0000000000000000e+00  -2.0749616477144256e-05 3.9545235234024245e-04 0.0000000000000000e+00  -2.0799096580572643e-05 4.0912182689674983e-04 0.0000000000000000e+00  -2.0842199915327817e-05 4.2280396071233762e-04 0.0000000000000000e+00  -2.0879938491189694e-05 4.3649665339092885e-04 0.0000000000000000e+00  -2.0912635643630334e-05 4.5019704758772819e-04 0.0000000000000000e+00  -2.0941213499944196e-05 4.6390317481034203e-04 0.0000000000000000e+00  -2.0967650785705203e-05 4.7761519237440273e-04 0.0000000000000000e+00  -1.1798234651866771e-05 4.9134044080954267e-04 0.0000000000000000e+00  6.5648574561938929e-06 4.9134600911043813e-04 0.0000000000000000e+00  1.5757538559965414e-05 4.7764017115879009e-04 0.0000000000000000e+00  1.5772445634169822e-05 4.6392503672519191e-04 0.0000000000000000e+00  1.5785507429863307e-05 4.5021424139111293e-04 0.0000000000000000e+00  1.5797814727234900e-05 4.3650961703686818e-04 0.0000000000000000e+00  1.5809014875689368e-05 4.2281273810303876e-04 0.0000000000000000e+00  1.5818940243087151e-05 4.0912633904378838e-04 0.0000000000000000e+00  1.5826584406803844e-05 3.9545244093130885e-04 0.0000000000000000e+00  1.5831095829122630e-05 3.8179495751752932e-04 0.0000000000000000e+00  1.5831839450713061e-05 3.6815763565584727e-04 0.0000000000000000e+00  1.5827603170811165e-05 3.5454573090771451e-04 0.0000000000000000e+00  1.5817617096777206e-05 3.4096438359200080e-04 0.0000000000000000e+00  1.5800497721855458e-05 3.2742065307988328e-04 0.0000000000000000e+00  1.5775381946290460e-05 3.1392127029638271e-04 0.0000000000000000e+00  1.5740738451915409e-05 3.0047527081916871e-04 0.0000000000000000e+00  1.5695625915624694e-05 2.8709110716825789e-04 0.0000000000000000e+00  1.5638393920934383e-05 2.7377992250207357e-04 0.0000000000000000e+00  1.5568037576509914e-05 2.6055198621909020e-04 0.0000000000000000e+00  1.5482809816528585e-05 2.4742063749523947e-04 0.0000000000000000e+00  1.5381658637755870e-05 2.3439801876431790e-04 0.0000000000000000e+00  1.5262762229899390e-05 2.2149972310838678e-04 0.0000000000000000e+00  1.5125030210817411e-05 2.0873979553060956e-04 0.0000000000000000e+00  1.4966629572861368e-05 1.9613601708154974e-04 0.0000000000000000e+00  1.4786261916051668e-05 1.8370455679735779e-04 0.0000000000000000e+00  1.4581444765682266e-05 1.7146545222589035e-04 0.0000000000000000e+00  1.4353178961811509e-05 1.5943752944605813e-04 0.0000000000000000e+00  1.4097678714480541e-05 1.4764039489463337e-04 0.0000000000000000e+00  1.3813692669742893e-05 1.3609674897896459e-04 0.0000000000000000e+00  1.3500154044108249e-05 1.2482893496572266e-04 0.0000000000000000e+00  1.3155193399288685e-05 1.1386067017550615e-04 0.0000000000000000e+00  1.2777495714135061e-05 1.0321644965750291e-04 0.0000000000000000e+00  1.2365329347072180e-05 9.2921950472329667e-05 0.0000000000000000e+00  1.1917161176713733e-05 8.3003276630081937e-05 0.0000000000000000e+00  1.1430415239259981e-05 7.3489531108934949e-05 0.0000000000000000e+00  1.0907025693289699e-05 6.4408083603982377e-05 0.0000000000000000e+00  1.0342231552993373e-05 5.5787132251343502e-05 0.0000000000000000e+00  9.7350861648876477e-06 4.7658564434151019e-05 0.0000000000000000e+00  9.0847059083467874e-06 4.0053395542503682e-05 0.0000000000000000e+00  8.3893747059316224e-06 3.3003971845688047e-05 0.0000000000000000e+00  7.6476377348051498e-06 2.6543011671354824e-05 0.0000000000000000e+00  6.8568779979307724e-06 2.0706700815570057e-05 0.0000000000000000e+00  6.0199080015077084e-06 1.5528739703708213e-05 0.0000000000000000e+00  5.1314321237502944e-06 1.1043952494537830e-05 0.0000000000000000e+00  4.1909052749836257e-06 7.2913238351792933e-06 0.0000000000000000e+00  3.1975117450181689e-06 4.3082410603989923e-06 0.0000000000000000e+00  2.1484900808622747e-06 2.1355429916173069e-06 0.0000000000000000e+00  1.0598743318293854e-06 8.0273023086713264e-07 0.0000000000000000e+00  -9.3525853148945128e-08 1.0200071231165472e-06 0.0000000000000000e+00  -2.8226976755217073e-06 4.7073505506397829e-04 0.0000000000000000e+00  -2.9258213220947852e-06 4.4453394330542129e-04 0.0000000000000000e+00  -2.6762951447306395e-06 4.0178758299344645e-04 0.0000000000000000e+00  -2.0944054786623399e-07 5.2986255521554821e-06 0.0000000000000000e+00  -2.4102193215885044e-06 3.7496158458992431e-04 0.0000000000000000e+00  -2.6137276618492211e-07 1.2475812790585121e-05 0.0000000000000000e+00  -2.3396450817009557e-06 3.4773681825949566e-04 0.0000000000000000e+00  -4.3937783881748865e-07 2.9667856428391315e-05 0.0000000000000000e+00  -6.9649838378147702e-07 4.3528606007485777e-05 0.0000000000000000e+00  -2.2597810497082616e-06 3.2064693776358652e-04 0.0000000000000000e+00  -8.9682576364305767e-07 8.8154732202840415e-05 0.0000000000000000e+00  -2.0711114882564343e-06 2.6712258728250795e-04 0.0000000000000000e+00  -6.8960443704723610e-07 5.9115836578534968e-05 0.0000000000000000e+00  -1.2212107152975932e-06 1.0834745651697620e-04 0.0000000000000000e+00  -1.9622460847656715e-06 2.4085200185307938e-04 0.0000000000000000e+00  -2.1703164535144722e-06 2.9375086220326599e-04 0.0000000000000000e+00  -1.3691678642460991e-06 1.3030338182919366e-04 0.0000000000000000e+00  -1.8440615079738055e-06 2.1504540738203023e-04 0.0000000000000000e+00  -1.3018295595748033e-06 1.5245420702926420e-04 0.0000000000000000e+00  -1.9314599122669957e-06 1.9034049565040090e-04 0.0000000000000000e+00  -1.6059743572593359e-06 1.7038545440330416e-04 0.0000000000000000e+00  -9.7362185437247719e-07 7.2475457205772238e-05 0.0000000000000000e+00  -2.4809028671407076e-06 4.2399960994476819e-04 0.0000000000000000e+00  -4.3761197729345810e-07 1.9928253653492887e-05 0.0000000000000000e+00  3.5680334731373631e-06 4.5754230307302969e-04 0.0000000000000000e+00  8.5435699647031461e-07 2.7430669281975153e-06 0.0000000000000000e+00  2.9183767994530014e-06 3.6133534292012796e-04 0.0000000000000000e+00  2.8715805578618855e-06 3.8861070675601331e-04 0.0000000000000000e+00  -2.0119885996170476e-06 8.7323668048613536e-06 0.0000000000000000e+00  -3.3381982961850151e-06 3.6226629175124945e-05 0.0000000000000000e+00  3.0500200687935220e-06 2.8039605764346062e-04 0.0000000000000000e+00  2.9652998907880342e-06 3.3417081141158322e-04 0.0000000000000000e+00  -5.1303469800901942e-06 9.7895584450001806e-05 0.0000000000000000e+00  3.0821445454919438e-06 2.5393409067118046e-04 0.0000000000000000e+00  -3.9068259509570743e-06 5.1461280704101294e-05 0.0000000000000000e+00  -5.5438638398693550e-06 1.1920094599506176e-04 0.0000000000000000e+00  3.1030730596182978e-06 2.2788110578720331e-04 0.0000000000000000e+00  3.0100661930453589e-06 3.0716892808449513e-04 0.0000000000000000e+00  -6.8977832313748927e-06 1.4163090575873300e-04 0.0000000000000000e+00  3.1091165386010271e-06 2.0235174315722657e-04 0.0000000000000000e+00  -2.9024777332053719e-07 2.6729672014165750e-07 0.0000000000000000e+00  2.0811223516763802e-07 2.0508745757011798e-07 0.0000000000000000e+00  -7.0645601464677953e-06 4.8151894149751299e-04 0.0000000000000000e+00  -1.2612070915658198e-06 2.8124441210915776e-06 0.0000000000000000e+00  4.2163052938082416e-06 1.8023039082828811e-04 0.0000000000000000