<?xml version="1.0"?>
<VTKFile type="UnstructuredGrid"  version="0.1"  >
<UnstructuredGrid>
<Piece  NumberOfPoints="1419" NumberOfCells="2698">
<Points>
<DataArray  type="Float64"  NumberOfComponents="3"  format="ascii">0 0 0  0 0.41 0  2.5 0 0  2.5 0.41 0  0.6 0.19 0  0.6 0.21 0  0.25 0.2 0  0.15 0.2 0  0.2489897948556636 0.21 0  0.2489897948556636 0.19 0  0.6 0.2 0  0 0.3807142857143437 0  0 0.3514285714286952 0  0 0.3221428571430699 0  0 0.29285714285744 0  0 0.2635714285718054 0  0 0.2342857142861561 0  0 0.2050000000005308 0  0 0.175714285714732 0  0 0.1464285714289574 0  0 0.1171428571431897 0  0 0.08785714285737878 0  0 0.05857142857161107 0  0 0.02928571428580012 0  0.03015443760436003 0 0  0.06140001986583606 0 0  0.09377624077125973 0 0  0.1273239957535082 0 0  0.1620856860351972 0 0  0.1981052433264291 0 0  0.235428184091502 0 0  0.2741016576309132 0 0  0.3141745521465447 0 0  0.3556974926295285 0 0  0.3987229542472677 0 0  0.4433053055141081 0 0  0.4895008759286886 0 0  0.5373680609405097 0 0  0.5869673343216626 0 0  0.6383613676634521 0 0  0.6916151138468254 0 0  0.7467958595648856 0 0  0.8039733463919316 0 0  0.8632198139502143 0 0  0.9246101326867038 0 0  0.9882218810934433 0 0  1.054135445558498 0 0  1.122434100542598 0 0  1.193204177141305 0 0  1.266535089879536 0 0  1.342519516046404 0 0  1.421253448503939 0 0  1.502836389106271 0 0  1.587371439758838 0 0  1.674965418777374 0 0  1.765729001825544 0 0  1.859776908880082 0 0  1.957227977487062 0 0  2.058205329869943 0 0  2.162836591189951 0 0  2.271253957290865 0 0  2.383594446803425 0 0  2.5 0.1024999999997612 0  2.5 0.2049999999994743 0  2.5 0.3074999999997183 0  2.383594446803656 0.41 0  2.271253957291315 0.41 0  2.162836591190598 0.41 0  2.058205329870775 0.41 0  1.957227977488067 0.41 0  1.859776908881246 0.41 0  1.765729001826854 0.41 0  1.674965418778818 0.41 0  1.58737143976041 0.41 0  1.502836389107956 0.41 0  1.421253448505726 0.41 0  1.342519516048286 0.41 0  1.266535089881505 0.41 0  1.193204177143353 0.41 0  1.122434100544716 0.41 0  1.05413544556068 0.41 0  0.9882218810956305 0.41 0  0.9246101326886647 0.41 0  0.8632198139519631 0.41 0  0.8039733463934788 0.41 0  0.7467958595662458 0.41 0  0.6916151138480078 0.41 0  0.6383613676644679 0.41 0  0.5869673343225223 0.41 0  0.5373680609412221 0.41 0  0.4895008759292634 0.41 0  0.4433053055145528 0.41 0  0.3987229542475914 0.41 0  0.3556974926297398 0.41 0  0.3141745521466497 0.41 0  0.2741016576310038 0.41 0  0.2354281840915826 0.41 0  0.1981052433265003 0.41 0  0.1620856860352591 0.41 0  0.1273239957535623 0.41 0  0.09377624077128965 0.41 0  0.06140001986584975 0.41 0  0.03015443760436654 0.41 0  0.2497468076502589 0.2050254481002335 0  0.2497468076502614 0.1949745518997913 0  0.2469965252529372 0.1829317073451959 0  0.2439893735792749 0.1762316384219906 0  0.2400332147834255 0.1700443375285386 0  0.2352133972704371 0.1645032867342007 0  0.2296339016332438 0.1597280261969788 0  0.2234150974217223 0.1558215752574715 0  0.2166911463437691 0.1528682099456123 0  0.2096071079204251 0.1509316448471593 0  0.2023158100364996 0.1500536585536553 0  0.194974551899914 0.1502531923497262 0  0.1877417105387872 0.1515259415822739 0  0.1807733240461124 0.153844448527136 0  0.1742197252835808 0.15715869474974 0  0.1682222986673531 0.1613971801805478 0  0.162910430003803 0.1664684656256651 0  0.1583987151779087 0.1722631454351573 0  0.1547844879126891 0.178656207771761 0  0.1521457199348551 0.1855097315605723 0  0.1505393388476355 0.1926758619366523 0  0.1505393388476328 0.2073241380633295 0  0.1521457199348437 0.2144902684393899 0  0.1547844879126531 0.221343792228163 0  0.1583987151778488 0.2277368545647528 0  0.1629104300036858 0.2335315343742052 0  0.1682222986671726 0.2386028198193036 0  0.1742197252833576 0.2428413052501257 0  0.1807733240458683 0.2461555514727623 0  0.1877417105384929 0.2484740584176516 0  0.1949745518995776 0.2497468076502398 0  0.202315810036185 0.2499463414463592 0  0.2096071079201568 0.2490683551528932 0  0.2166911463435495 0.2471317900544655 0  0.2234150974215506 0.2441784247426195 0  0.2296339016331197 0.2402719738031125 0  0.2352133972703547 0.2354967132658811 0  0.2400332147833751 0.2299556624715287 0  0.2439893735792577 0.2237683615780412 0  0.246996525252926 0.2170682926548348 0  0.25645809709277 0.21 0  0.2639263993298655 0.21 0  0.271394701566961 0.21 0  0.2788630038040554 0.21 0  0.2863313060411479 0.21 0  0.2937996082782405 0.21 0  0.301267910515333 0.21 0  0.3087362127524279 0.21 0  0.3162045149895234 0.21 0  0.3236728172265972 0.21 0  0.3311411194636928 0.21 0  0.3386094217007701 0.21 0  0.3460777239378666 0.21 0  0.3535460261749672 0.21 0  0.3610143284120516 0.21 0  0.3684826306491596 0.21 0  0.3759509328862226 0.21 0  0.383419235123329 0.21 0  0.3908875373604028 0.21 0  0.3983558395975142 0.21 0  0.4058241418345938 0.21 0  0.4132924440716992 0.21 0  0.4207607463087888 0.21 0  0.4282290485459029 0.21 0  0.4356973507830418 0.21 0  0.4431656530201649 0.21 0  0.4506339552573136 0.21 0  0.4581022574944306 0.21 0  0.4655705597315852 0.21 0  0.4730388619686996 0.21 0  0.480507164205851 0.21 0  0.4879754664429498 0.21 0  0.4954437686800938 0.21 0  0.502912070917267 0.21 0  0.5103803731544119 0.21 0  0.5178486753915261 0.21 0  0.5253169776286404 0.21 0  0.5327852798657868 0.21 0  0.5402535821029386 0.21 0  0.54772188434007 0.21 0  0.5551901865771842 0.21 0  0.5626584888143201 0.21 0  0.5701267910514778 0.21 0  0.5775950932886138 0.21 0  0.5850633955257281 0.21 0  0.5925316977628483 0.21 0  0.6 0.2050000000000054 0  0.6 0.1950000000000217 0  0.5925316977628897 0.19 0  0.5850633955257988 0.19 0  0.5775950932887378 0.19 0  0.5701267910515998 0.19 0  0.5626584888145268 0.19 0  0.5551901865773963 0.19 0  0.547721884340339 0.19 0  0.5402535821032429 0.19 0  0.5327852798661811 0.19 0  0.5253169776290537 0.19 0  0.5178486753919799 0.19 0  0.5103803731549078 0.19 0  0.502912070917822 0.19 0  0.4954437686807294 0.19 0  0.4879754664436223 0.19 0  0.4805071642065402 0.19 0  0.4730388619694271 0.19 0  0.4655705597323621 0.19 0  0.4581022574952563 0.19 0  0.4506339552581777 0.19 0  0.4431656530210671 0.19 0  0.4356973507839815 0.19 0  0.4282290485468779 0.19 0  0.4207607463097617 0.19 0  0.4132924440726327 0.19 0  0.4058241418354857 0.19 0  0.3983558395983636 0.19 0  0.3908875373612097 0.19 0  0.3834192351240934 0.19 0  0.3759509328869369 0.19 0  0.3684826306498175 0.19 0  0.361014328412667 0.19 0  0.3535460261755617 0.19 0  0.3460777239384295 0.19 0  0.3386094217012945 0.19 0  0.3311411194641595 0.19 0  0.3236728172270245 0.19 0  0.3162045149898895 0.19 0  0.3087362127527544 0.19 0  0.3012679105156187 0.19 0  0.2937996082784807 0.19 0  0.2863313060413428 0.19 0  0.2788630038042048 0.19 0  0.2713947015670686 0.19 0  0.2639263993299336 0.19 0  0.2564580970927985 0.19 0  0.2607803159922026 0.2000727136295815 0  0.5887803774232762 0.2001272386983733 0  0.5745072403740523 0.2002044435018727 0  0.5511891430099709 0.2001122610077113 0  0.2751288526855082 0.20000000000002 0  0.5365194309847112 0.1999999999999436 0  0.2894621222999649 0.1998691686390484 0  0.5215828265105155 0.1999999999999228 0  0.3127789816668748 0.1998657885438805 0  0.3274069683451451 0.2000000000000796 0  0.5066462220363641 0.199999999999908 0  0.3650630746574081 0.199866017807523 0  0.476773013087985 0.1999999999998713 0  0.3417402379596385 0.1998691686391011 0  0.3796850840047755 0.200000000000134 0  0.4618364086138087 0.1999999999998546 0  0.4917096175621762 0.1999999999998808 0  0.3946216884789568 0.2000000000001512 0  0.446899804139621 0.1999999999998389 0  0.4089549580935208 0.1998691686391595 0  0.4322718174608562 0.200127451265745 0  0.4201487168029707 0.1999966199048527 0  0.3528922713220932 0.2000185703532356 0  0.5633122436674589 0.1999814296467508 0  0.3006558810093873 0.1999966199048318 0  0.5815926498168407 0.1966545283159175 0  0.2677053789419034 0.1964246479135325 0  0.5290511287476175 0.1970915826863981 0  0.5439877332217911 0.197091582686394 0  0.2825131256993216 0.2035478995978015 0  0.3199386661080599 0.202908417313604 0  0.4842413153250809 0.1970915826863873 0  0.5141145242734466 0.1970915826863843 0  0.3722167817676917 0.2029084173136195 0  0.4693047108508938 0.1970915826863783 0  0.3348752705822316 0.202908417313609 0  0.3871533862418661 0.2029084173136212 0  0.4543681063767183 0.1970915826863795 0  0.4991779197992749 0.1970915826863902 0  0.4020059614928624 0.203547899597858 0  0.4394315019025246 0.1970915826863714 0  0.2550657455369551 0.2034088125358657 0  0.2548908499171161 0.1966940311614271 0  0.5946539510196798 0.2024302972968126 0  0.267698176732111 0.2039977513680092 0  0.4261685417851465 0.196409292431739 0  0.3590076176283495 0.196411355804271 0  0.5571672426447437 0.2036011176410121 0  0.3066757059912147 0.1964092924317024 0  0.594380730180568 0.1966558399668133 0  0.4842413153245942 0.2040749161535287 0  0.4693047108503577 0.2040749161535231 0  0.3871533862424271 0.1959250838464788 0  0.372246743208829 0.1959123236376545 0  0.5141145242731028 0.2040749161535395 0  0.4543681063761134 0.2040749161535186 0  0.4019979587101454 0.1959834479682427 0  0.4394608940728603 0.2040870543693135 0  0.5439623148931173 0.2040856076781014 0  0.5290511287473298 0.2040749161535501 0  0.4991779197988497 0.2040749161535382 0  0.3347912413592433 0.1959225448935183 0  0.3199680582793816 0.1959123018030061 0  0.2825051229162361 0.1959834479681729 0  0.3590471196690275 0.2036304442587945 0  0.5571594006495384 0.1963685282145804 0  0.3067669986803285 0.203627750582736 0  0.4262598344738712 0.2036568242185335 0  0.5814408164431408 0.2041285596160068 0  0.5688286748170428 0.1961819304477386 0  0.4145905603063645 0.2038180695522843 0  0.3473758401724931 0.2038180695522752 0  0.2950977245128307 0.2038180695522663 0  0.5688286748170693 0.203818069552238 0  0.2950977245127906 0.1961819304477774 0  0.3473758401723931 0.1961819304478349 0  0.4145905603061963 0.1961819304479011 0  0.2601812407614425 0.2056861609747042
[...]
<PointData  Vectors="f_40-1"> 
<DataArray  type="Float64"  Name="f_40-1"  NumberOfComponents="3" format="ascii">0.0000000000000000e+00 0.0000000000000000e+00 0.0000000000000000e+00  0.0000000000000000e+00 0.0000000000000000e+00 0.0000000000000000e+00  0.0000000000000000e+00 0.0000000000000000e+00 0.0000000000000000e+00  0.0000000000000000e+00 0.0000000000000000e+00 0.0000000000000000e+00  -1.0154308719466175e-06 1.7659077365220116e-09 0.0000000000000000e+00  -1.0041229438961708e-06 -1.0005309510329723e-07 0.0000000000000000e+00  0.0000000000000000e+00 0.0000000000000000e+00 0.0000000000000000e+00  0.0000000000000000e+00 0.0000000000000000e+00 0.0000000000000000e+00  0.0000000000000000e+00 0.0000000000000000e+00 0.0000000000000000e+00  0.0000000000000000e+00 0.0000000000000000e+00 0.0000000000000000e+00  -1.0123767570004984e-06 -4.9000333236807971e-08 0.0000000000000000e+00  0.0000000000000000e+00 0.0000000000000000e+00 0.0000000000000000e+00  0.0000000000000000e+00 0.0000000000000000e+00 0.0000000000000000e+00  0.0000000000000000e+00 0.0000000000000000e+00 0.0000000000000000e+00  0.0000000000000000e+00 0.0000000000000000e+00 0.0000000000000000e+00  0.0000000000000000e+00 0.0000000000000000e+00 0.0000000000000000e+00  0.0000000000000000e+00 0.0000000000000000e+00 0.0000000000000000e+00  0.0000000000000000e+00 0.0000000000000000e+00 0.0000000000000000e+00  0.0000000000000000e+00 0.0000000000000000e+00 0.0000000000000000e+00  0.0000000000000000e+00 0.0000000000000000e+00 0.0000000000000000e+00  0.0000000000000000e+00 0.0000000000000000e+00 0.0000000000000000e+00  0.0000000000000000e+00 0.0000000000000000e+00 0.0000000000000000e+00  0.0000000000000000e+00 0.0000000000000000e+00 0.0000000000000000e+00  0.0000000000000000e+00 0.0000000000000000e+00 0.0000000000000000e+00  0.0000000000000000e+00 0.0000000000000000e+00 0.0000000000000000e+00  0.0000000000000000e+00 0.0000000000000000e+00 0.0000000000000000e+00  0.0000000000000000e+00 0.0000000000000000e+00 0.0000000000000000e+00  0.0000000000000000e+00 0.0000000000000000e+00 0.0000000000000000e+00  0.0000000000000000e+00 0.0000000000000000e+00 0.0000000000000000e+00  0.0000000000000000e+00 0.0000000000000000e+00 0.0000000000000000e+00  0.0000000000000000e+00 0.0000000000000000e+00 0.0000000000000000e+00  0.0000000000000000e+00 0.0000000000000000e+00 0.0000000000000000e+00  0.0000000000000000e+00 0.0000000000000000e+00 0.0000000000000000e+00  0.0000000000000000e+00 0.0000000000000000e+00 0.0000000000000000e+00  0.0000000000000000e+00 0.0000000000000000e+00 0.0000000000000000e+00  0.0000000000000000e+00 0.0000000000000000e+00 0.0000000000000000e+00  0.0000000000000000e+00 0.0000000000000000e+00 0.0000000000000000e+00  0.0000000000000000e+00 0.0000000000000000e+00 0.0000000000000000e+00  0.0000000000000000e+00 0.0000000000000000e+00 0.0000000000000000e+00  0.0000000000000000e+00 0.0000000000000000e+00 0.0000000000000000e+00  0.0000000000000000e+00 0.0000000000000000e+00 0.0000000000000000e+00  0.0000000000000000e+00 0.0000000000000000e+00 0.0000000000000000e+00  0.0000000000000000e+00 0.0000000000000000e+00 0.0000000000000000e+00  0.0000000000000000e+00 0.0000000000000000e+00 0.0000000000000000e+00  0.0000000000000000e+00 0.0000000000000000e+00 0.0000000000000000e+00  0.0000000000000000e+00 0.0000000000000000e+00 0.0000000000000000e+00  0.0000000000000000e+00 0.0000000000000000e+00 0.0000000000000000e+00  0.0000000000000000e+00 0.0000000000000000e+00 0.0000000000000000e+00  0.0000000000000000e+00 0.0000000000000000e+00 0.0000000000000000e+00  0.0000000000000000e+00 0.0000000000000000e+00 0.0000000000000000e+00  0.0000000000000000e+00 0.0000000000000000e+00 0.0000000000000000e+00  0.0000000000000000e+00 0.0000000000000000e+00 0.0000000000000000e+00  0.0000000000000000e+00 0.0000000000000000e+00 0.0000000000000000e+00  0.0000000000000000e+00 0.0000000000000000e+00 0.0000000000000000e+00  0.0000000000000000e+00 0.0000000000000000e+00 0.0000000000000000e+00  0.0000000000000000e+00 0.0000000000000000e+00 0.0000000000000000e+00  0.0000000000000000e+00 0.0000000000000000e+00 0.0000000000000000e+00  0.0000000000000000e+00 0.0000000000000000e+00 0.0000000000000000e+00  0.0000000000000000e+00 0.0000000000000000e+00 0.0000000000000000e+00  0.0000000000000000e+00 0.0000000000000000e+00 0.0000000000000000e+00  0.0000000000000000e+00 0.0000000000000000e+00 0.0000000000000000e+00  0.0000000000000000e+00 0.0000000000000000e+00 0.0000000000000000e+00  0.0000000000000000e+00 0.0000000000000000e+00 0.0000000000000000e+00  0.0000000000000000e+00 0.0000000000000000e+00 0.0000000000000000e+00  0.0000000000000000e+00 0.0000000000000000e+00 0.0000000000000000e+00  0.0000000000000000e+00 0.0000000000000000e+00 0.0000000000000000e+00  0.0000000000000000e+00 0.0000000000000000e+00 0.0000000000000000e+00  0.0000000000000000e+00 0.0000000000000000e+00 0.0000000000000000e+00  0.0000000000000000e+00 0.0000000000000000e+00 0.0000000000000000e+00  0.0000000000000000e+00 0.0000000000000000e+00 0.0000000000000000e+00  0.0000000000000000e+00 0.0000000000000000e+00 0.0000000000000000e+00  0.0000000000000000e+00 0.0000000000000000e+00 0.0000000000000000e+00  0.0000000000000000e+00 0.0000000000000000e+00 0.0000000000000000e+00  0.0000000000000000e+00 0.0000000000000000e+00 0.0000000000000000e+00  0.0000000000000000e+00 0.0000000000000000e+00 0.0000000000000000e+00  0.0000000000000000e+00 0.0000000000000000e+00 0.0000000000000000e+00  0.0000000000000000e+00 0.0000000000000000e+00 0.0000000000000000e+00  0.0000000000000000e+00 0.0000000000000000e+00 0.0000000000000000e+00  0.0000000000000000e+00 0.0000000000000000e+00 0.0000000000000000e+00  0.0000000000000000e+00 0.0000000000000000e+00 0.0000000000000000e+00  0.0000000000000000e+00 0.0000000000000000e+00 0.0000000000000000e+00  0.0000000000000000e+00 0.0000000000000000e+00 0.0000000000000000e+00  0.0000000000000000e+00 0.0000000000000000e+00 0.0000000000000000e+00  0.0000000000000000e+00 0.0000000000000000e+00 0.0000000000000000e+00  0.0000000000000000e+00 0.0000000000000000e+00 0.0000000000000000e+00  0.0000000000000000e+00 0.0000000000000000e+00 0.0000000000000000e+00  0.0000000000000000e+00 0.0000000000000000e+00 0.0000000000000000e+00  0.0000000000000000e+00 0.0000000000000000e+00 0.0000000000000000e+00  0.0000000000000000e+00 0.0000000000000000e+00 0.0000000000000000e+00  0.0000000000000000e+00 0.0000000000000000e+00 0.0000000000000000e+00  0.0000000000000000e+00 0.0000000000000000e+00 0.0000000000000000e+00  0.0000000000000000e+00 0.0000000000000000e+00 0.0000000000000000e+00  0.0000000000000000e+00 0.0000000000000000e+00 0.0000000000000000e+00  0.0000000000000000e+00 0.0000000000000000e+00 0.0000000000000000e+00  0.0000000000000000e+00 0.0000000000000000e+00 0.0000000000000000e+00  0.0000000000000000e+00 0.0000000000000000e+00 0.0000000000000000e+00  0.0000000000000000e+00 0.0000000000000000e+00 0.0000000000000000e+00  0.0000000000000000e+00 0.0000000000000000e+00 0.0000000000000000e+00  0.0000000000000000e+00 0.0000000000000000e+00 0.0000000000000000e+00  0.0000000000000000e+00 0.0000000000000000e+00 0.0000000000000000e+00  0.0000000000000000e+00 0.0000000000000000e+00 0.0000000000000000e+00  0.0000000000000000e+00 0.0000000000000000e+00 0.0000000000000000e+00  0.0000000000000000e+00 0.0000000000000000e+00 0.0000000000000000e+00  0.0000000000000000e+00 0.0000000000000000e+00 0.0000000000000000e+00  0.0000000000000000e+00 0.0000000000000000e+00 0.0000000000000000e+00  0.0000000000000000e+00 0.0000000000000000e+00 0.0000000000000000e+00  0.0000000000000000e+00 0.0000000000000000e+00 0.0000000000000000e+00  0.0000000000000000e+00 0.0000000000000000e+00 0.0000000000000000e+00  0.0000000000000000e+00 0.0000000000000000e+00 0.0000000000000000e+00  0.0000000000000000e+00 0.0000000000000000e+00 0.0000000000000000e+00  0.0000000000000000e+00 0.0000000000000000e+00 0.0000000000000000e+00  0.0000000000000000e+00 0.0000000000000000e+00 0.0000000000000000e+00  0.0000000000000000e+00 0.0000000000000000e+00 0.0000000000000000e+00  0.0000000000000000e+00 0.0000000000000000e+00 0.0000000000000000e+00  0.0000000000000000e+00 0.0000000000000000e+00 0.0000000000000000e+00  0.0000000000000000e+00 0.0000000000000000e+00 0.0000000000000000e+00  0.0000000000000000e+00 0.0000000000000000e+00 0.0000000000000000e+00  0.0000000000000000e+00 0.0000000000000000e+00 0.0000000000000000e+00  0.0000000000000000e+00 0.0000000000000000e+00 0.0000000000000000e+00  0.0000000000000000e+00 0.0000000000000000e+00 0.0000000000000000e+00  0.0000000000000000e+00 0.0000000000000000e+00 0.0000000000000000e+00  0.0000000000000000e+00 0.0000000000000000e+00 0.0000000000000000e+00  0.0000000000000000e+00 0.0000000000000000e+00 0.0000000000000000e+00  0.0000000000000000e+00 0.0000000000000000e+00 0.0000000000000000e+00  0.0000000000000000e+00 0.0000000000000000e+00 0.0000000000000000e+00  0.0000000000000000e+00 0.0000000000000000e+00 0.0000000000000000e+00  0.0000000000000000e+00 0.0000000000000000e+00 0.0000000000000000e+00  0.0000000000000000e+00 0.0000000000000000e+00 0.0000000000000000e+00  0.0000000000000000e+00 0.0000000000000000e+00 0.0000000000000000e+00  0.0000000000000000e+00 0.0000000000000000e+00 0.0000000000000000e+00  0.0000000000000000e+00 0.0000000000000000e+00 0.0000000000000000e+00  0.0000000000000000e+00 0.0000000000000000e+00 0.0000000000000000e+00  0.0000000000000000e+00 0.0000000000000000e+00 0.0000000000000000e+00  0.0000000000000000e+00 0.0000000000000000e+00 0.0000000000000000e+00  0.0000000000000000e+00 0.0000000000000000e+00 0.0000000000000000e+00  0.0000000000000000e+00 0.0000000000000000e+00 0.0000000000000000e+00  0.0000000000000000e+00 0.0000000000000000e+00 0.0000000000000000e+00  0.0000000000000000e+00 0.0000000000000000e+00 0.0000000000000000e+00  0.0000000000000000e+00 0.0000000000000000e+00 0.0000000000000000e+00  0.0000000000000000e+00 0.0000000000000000e+00 0.0000000000000000e+00  0.0000000000000000e+00 0.0000000000000000e+00 0.0000000000000000e+00  0.0000000000000000e+00 0.0000000000000000e+00 0.0000000000000000e+00  0.0000000000000000e+00 0.0000000000000000e+00 0.0000000000000000e+00  -1.8854823114352213e-08 -7.6464421842341795e-08 0.0000000000000000e+00  -3.6270322399786200e-08 -8.2117156806404579e-08 0.0000000000000000e+00  -4.9967481303756773e-08 -8.3428677870739697e-08 0.0000000000000000e+00  -6.2156151184503889e-08 -8.2221434171935173e-08 0.0000000000000000e+00  -7.3514334133976021e-08 -8.0981026553584435e-08 0.0000000000000000e+00  -8.5596609695046854e-08 -8.0503011632241899e-08 0.0000000000000000e+00  -9.7834250439371033e-08 -7.9763663128589111e-08 0.0000000000000000e+00  -1.1082481005660192e-07 -7.9265980492053519e-08 0.0000000000000000e+00  -1.2406848822479147e-07 -7.8682936251286998e-08 0.0000000000000000e+00  -1.3787657150118372e-07 -7.8097266006563235e-08 0.0000000000000000e+00  -1.5219393522031250e-07 -7.7731967606553620e-08 0.0000000000000000e+00  -1.6692725311545995e-07 -7.7217766377217727e-08 0.0000000000000000e+00  -1.8232790473374069e-07 -7.6694752325563691e-08 0.0000000000000000e+00  -1.9801908173072026e-07 -7.6332086612718877e-08 0.0000000000000000e+00  -2.1443443101506295e-07 -7.5809305689948062e-08 0.0000000000000000e+00  -2.3111748121661929e-07 -7.5488440522559165e-08 0.0000000000000000e+00  -2.4854247523768142e-07 -7.4884010322157501e-08 0.0000000000000000e+00  -2.6633473897786270e-07 -7.4680057927366173e-08 0.0000000000000000e+00  -2.8478933868814733e-07 -7.4080499543777440e-08 0.0000000000000000e+00  -3.0356326483447535e-07 -7.3810119566100738e-08 0.0000000000000000e+00  -3.2305556718774310e-07 -7.3153249632444148e-08 0.0000000000000000e+00  -3.4295175845136258e-07 -7.2612741886100889e-08 0.0000000000000000e+00  -3.6333201913202409e-07 -7.2185232240373778e-08 0.0000000000000000e+00  -3.8424532657308889e-07 -7.1488001285453043e-08 0.0000000000000000e+00  -4.0559312232113059e-07 -7.1120472520473578e-08 0.0000000000000000e+00  -4.2755069800989920e-07 -7.0374105844422699e-08 0.0000000000000000e+00  -4.4999208716495064e-07 -7.0166327099339074e-08 0.0000000000000000e+00  -4.7296082634777780e-07 -6.9588019241952755e-08 0.0000000000000000e+00  -4.9630818695963376e-07 -6.9380621971412052e-08 0.0000000000000000e+00  -5.2027176854232607e-07 -6.9155847874277777e-08 0.0000000000000000e+00  -5.4453789197098569e-07 -6.9222681643898927e-08 0.0000000000000000e+00  -5.6953108144553721e-07 -6.9230648818347091e-08 0.0000000000000000e+00  -5.9483234091874403e-07 -6.9726511624557228e-08 0.0000000000000000e+00  -6.2074677045456932e-07 -7.0027390524379272e-08 0.0000000000000000e+00  -6.4715110537321130e-07 -7.0930931559651228e-08 0.0000000000000000e+00  -6.7412399417751009e-07 -7.1777225243539777e-08 0.0000000000000000e+00  -7.0151301599507627e-07 -7.3126310697471045e-08 0.0000000000000000e+00  -7.2946848942673933e-07 -7.4530153090943657e-08 0.0000000000000000e+00  -7.5795657177390679e-07 -7.6405540108001083e-08 0.0000000000000000e+00  -7.8701815248217905e-07 -7.8269733368452790e-08 0.0000000000000000e+00  -8.1674297985583584e-07 -8.0523145219601043e-08 0.0000000000000000e+00  -8.4688697930547691e-07 -8.2923437002008902e-08 0.0000000000000000e+00  -8.7772128609062554e-07 -8.5637528494074051e-08 0.0000000000000000e+00  -9.0886897615309030e-07 -8.8339342284412466e-08 0.0000000000000000e+00  -9.4058449691958156e-07 -9.1143116231645480e-08 0.0000000000000000e+00  -9.7286335289826497e-07 -9.4446339525304287e-08 0.0000000000000000e+00  -1.0093563172293374e-06 -7.4358787891175758e-08 0.0000000000000000e+00  -1.0145679896052639e-06 -2.3590833634104742e-08 0.0000000000000000e+00  -9.8342502900552226e-07 4.6415326869416283e-09 0.0000000000000000e+00  -9.5097643753607408e-07 9.2997325854703737e-09 0.0000000000000000e+00  -9.1869265513036401e-07 1.4038037708357615e-08 0.0000000000000000e+00  -8.8707731394980390e-07 1.8590878211440429e-08 0.0000000000000000e+00  -8.5571902381417018e-07 2.2813995946300371e-08 0.0000000000000000e+00  -8.2514113826284088e-07 2.6862423452850993e-08 0.0000000000000000e+00  -7.9476042672087460e-07 3.0760845059593248e-08 0.0000000000000000e+00  -7.6519160390811125e-07 3.4339892152490727e-08 0.0000000000000000e+00  -7.3585626277076458e-07 3.7645944666934460e-08 0.0000000000000000e+00  -7.0730998054331815e-07 4.0824928190180887e-08 0.0000000000000000e+00  -6.7915392252670904e-07 4.3608170201430044e-08 0.0000000000000000e+00  -6.5167692015656427e-07 4.6230900958995476e-08 0.0000000000000000e+00  -6.2462050566712100e-07 4.8457177850423609e-08 0.0000000000000000e+00  -5.9819661559728057e-07 5.0675619436160430e-08 0.0000000000000000e+00  -5.7230909303489623e-07 5.2448900053236375e-08 0.0000000000000000e+00  -5.4696845293576878e-07 5.4249726869287161e-08 0.0000000000000000e+00  -5.2212929651975754e-07 5.5721129707372578e-08 0.0000000000000000e+00  -4.9794033884550948e-07 5.7223332451340641e-08 0.0000000000000000e+00  -4.7418742335102994e-07 5.8353275343256421e-08 0.0000000000000000e+00  -4.5110652392983831e-07 5.9622229831679019e-08 0.0000000000000000e+00  -4.2845210120186330e-07 6.0607194530123151e-08 0.0000000000000000e+00  -4.0645672927639039e-07 6.1755402567851088e-08 0.0000000000000000e+00  -3.8498301113786775e-07 6.2805062810906289e-08 0.0000000000000000e+00  -3.6401490194165005e-07 6.3750774935946142e-08 0.0000000000000000e+00  -3.4367268146625102e-07 6.4849295899035435e-08 0.0000000000000000e+00  -3.2373311764342362e-07 6.5754417224970784e-08 0.0000000000000000e+00  -3.0433877478170366e-07 6.6928403227688777e-08 0.0000000000000000e+00  -2.8546974935359530e-07 6.7810194930246574e-08 0.0000000000000000e+00  -2.6719814895694597e-07 6.9109744148779166e-08 0.0000000000000000e+00  -2.4936018901805536e-07 6.9976539979080487e-08 0.0000000000000000e+00  -2.3203051036843087e-07 7.1288197189353444e-08 0.0000000000000000e+00  -2.1524818982837275e-07 7.2263535577673411e-08 0.0000000000000000e+00  -1.9882815289074552e-07 7.3364309712656468e-08 0.0000000000000000e+00  -1.8299690354545965e-07 7.4387868043860638e-08 0.0000000000000000e+00  -1.6773702589722079e-07 7.5486201637896204e-08 0.0000000000000000e+00  -1.5280528780721285e-07 7.6458644568495760e-08 0.0000000000000000e+00  -1.3844135253297348e-07 7.7349556304483389e-08 0.0000000000000000e+00  -1.2445044927499263e-07 7.8315980565337733e-08 0.0000000000000000e+00  -1.1119658502960170e-07 7.9106901874032301e-08 0.0000000000000000e+00  -9.8041650366363560e-08 7.9852359779680525e-08 0.0000000000000000e+00  -8.5782455297006772e-08 8.0699636143295056e-08 0.0000000000000000e+00  -7.3501126676825235e-08 8.1277714273568537e-08 0.0000000000000000e+00  -6.2070935704424710e-08 8.2493194832204059e-08 0.0000000000000000e+00  -4.9739875956636109e-08 8.3529483103578985e-08 0.0000000000000000e+00  -3.6136383446315669e-08 8.2003510556431024e-08 0.0000000000000000e+00  -1.9058957816718447e-08 7.5953498068835547e-08 0.0000000000000000e+00  -4.3269562167872476e-08 -5.7475827191080876e-10 0.0000000000000000e+00  -9.6252533215976236e-07 -4.3451214184728759e-08 0.0000000000000000e+00  -9.0063444447696119e-07 -3.6549664765974626e-08 0.0000000000000000e+00  -8.0471724474167145e-07 -2.5620141482060680e-08 0.0000000000000000e+00  -5.6395414667192840e-08 7.3997121282828343e-11 0.0000000000000000e+00  -7.4712492921398236e-07 -1.9518196453405576e-08 0.0000000000000000e+00  -7.8455773921142211e-08 1.2317028125907333e-09 0.0000000000000000e+00  -6.9051582340093437e-07 -1.4922843982272905e-08 0.0000000000000000e+00  -1.1812359180235881e-07 9.4185876944625717e-10 0.0000000000000000e+00  -1.4532413000601045e-07 -4.8304588839569912e-10 0.0000000000000000e+00  -6.3604925305197952e-07 -1.1396861855978394e-08 0.0000000000000000e+00  -2.2383899418492079e-07 -9.5005969243901151e-10 0.0000000000000000e+00  -5.3347362532874206e-07 -6.9618191572354026e-09 0.0000000000000000e+00  -1.7368375605576817e-07 -3.8941246172851459e-12 0.0000000000000000e+00  -2.5783688015389376e-07 -2.6197365656280867e-09 0.0000000000000000e+00  -4.8532989648905635e-07 -5.7571849798782866e-09 0.0000000000000000e+00  -5.8370138310629592e-07 -8.8031702353226875e-09 0.0000000000000000e+00  -2.9453872729280280e-07 -3.2743261389050494e-09 0.0000000000000000e+00  -4.3927209008082182e-07 -5.0307624334458189e-09 0.0000000000000000e+00  -3.3165137432424272e-07 -2.8680565177191565e-09 0.0000000000000000e+00  -3.9615350477470921e-07 -5.3524310592495673e-09 0.0000000000000000e+00  -3.6211695066264533e-07 -4.1395226842536619e-09 0.0000000000000000e+00  -1.9718416745444077e-07 -1.5754037078070153e-09 0.0000000000000000e+00  -8.5416833257580994e-07 -3.0160277267959527e-08 0.0000000000000000e+00  -9.7090140950132311e-08 8.8100101265474659e-11 0.0000000000000000e+00  -9.3283760502087875e-07 -2.2165773357866949e-08 0.0000000000000000e+00  -4.7390530206575116e-08 3.1178171755270839e-08 0.0000000000000000e+00  -7.1946881442698582e-07 -6.8792331589584727e-10 0.0000000000000000e+00  -7.7734367583940985e-07 -6.2632934050854713e-09 0.0000000000000000e+00  -6.7575186560321514e-08 -2.8803709934867912e-08 0.0000000000000000e+00  -1.3117950068111275e-07 -2.2959653321864186e-08 0.0000000000000000e+00  -5.5873492235363063e-07 1.0002133042685271e-08 0.0000000000000000e+00  -6.6375066889619631e-07 3.8399025924456146e-09 0.0000000000000000e+00  -2.4013891386472567e-07 -2.3498216770492432e-08 0.0000000000000000e+00  -5.0942617692781504e-07 1.1962924066674491e-08 0.0000000000000000e+00  -1.5981707435374035e-07 -2.3035475280934892e-08 0.0000000000000000e+00  -2.7585925489052568e-07 -2.3767069755466822e-08 0.0000000000000000e+00  -4.6224637226880905e-07 1.3340265782255551e-08 0.0000000000000000e+00  -6.1016902609474570e-07 7.3575479904526544e-09 0.0000000000000000e+00  -3.1333012091109582e-07 -2.8408732752247770e-08 0.0000000000000000e+00  -4.1717942061110488e-07 1.4417314196020671e-08 0.0000000000000000e+00  -2.9778192441270498e-08 -1.8232113903028019e-08 0.0000000000000000e+00  -2.9036964633542812e-08 1.6334827479093209e-08 0.0000000000000000e+00  -9.8734558996921570e-07 -5.8078701846173203e-08 0.0000000000000000e