<?xml version="1.0"?>
<VTKFile type="UnstructuredGrid"  version="0.1"  >
<UnstructuredGrid>
<Piece  NumberOfPoints="1419" NumberOfCells="2698">
<Points>
<DataArray  type="Float64"  NumberOfComponents="3"  format="ascii">0 0 0  0 0.41 0  2.5 0 0  2.5 0.41 0  0.6 0.19 0  0.6 0.21 0  0.25 0.2 0  0.15 0.2 0  0.2489897948556636 0.21 0  0.2489897948556636 0.19 0  0.6 0.2 0  0 0.3807142857143437 0  0 0.3514285714286952 0  0 0.3221428571430699 0  0 0.29285714285744 0  0 0.2635714285718054 0  0 0.2342857142861561 0  0 0.2050000000005308 0  0 0.175714285714732 0  0 0.1464285714289574 0  0 0.1171428571431897 0  0 0.08785714285737878 0  0 0.05857142857161107 0  0 0.02928571428580012 0  0.03015443760436003 0 0  0.06140001986583606 0 0  0.09377624077125973 0 0  0.1273239957535082 0 0  0.1620856860351972 0 0  0.1981052433264291 0 0  0.235428184091502 0 0  0.2741016576309132 0 0  0.3141745521465447 0 0  0.3556974926295285 0 0  0.3987229542472677 0 0  0.4433053055141081 0 0  0.4895008759286886 0 0  0.5373680609405097 0 0  0.5869673343216626 0 0  0.6383613676634521 0 0  0.6916151138468254 0 0  0.7467958595648856 0 0  0.8039733463919316 0 0  0.8632198139502143 0 0  0.9246101326867038 0 0  0.9882218810934433 0 0  1.054135445558498 0 0  1.122434100542598 0 0  1.193204177141305 0 0  1.266535089879536 0 0  1.342519516046404 0 0  1.421253448503939 0 0  1.502836389106271 0 0  1.587371439758838 0 0  1.674965418777374 0 0  1.765729001825544 0 0  1.859776908880082 0 0  1.957227977487062 0 0  2.058205329869943 0 0  2.162836591189951 0 0  2.271253957290865 0 0  2.383594446803425 0 0  2.5 0.1024999999997612 0  2.5 0.2049999999994743 0  2.5 0.3074999999997183 0  2.383594446803656 0.41 0  2.271253957291315 0.41 0  2.162836591190598 0.41 0  2.058205329870775 0.41 0  1.957227977488067 0.41 0  1.859776908881246 0.41 0  1.765729001826854 0.41 0  1.674965418778818 0.41 0  1.58737143976041 0.41 0  1.502836389107956 0.41 0  1.421253448505726 0.41 0  1.342519516048286 0.41 0  1.266535089881505 0.41 0  1.193204177143353 0.41 0  1.122434100544716 0.41 0  1.05413544556068 0.41 0  0.9882218810956305 0.41 0  0.9246101326886647 0.41 0  0.8632198139519631 0.41 0  0.8039733463934788 0.41 0  0.7467958595662458 0.41 0  0.6916151138480078 0.41 0  0.6383613676644679 0.41 0  0.5869673343225223 0.41 0  0.5373680609412221 0.41 0  0.4895008759292634 0.41 0  0.4433053055145528 0.41 0  0.3987229542475914 0.41 0  0.3556974926297398 0.41 0  0.3141745521466497 0.41 0  0.2741016576310038 0.41 0  0.2354281840915826 0.41 0  0.1981052433265003 0.41 0  0.1620856860352591 0.41 0  0.1273239957535623 0.41 0  0.09377624077128965 0.41 0  0.06140001986584975 0.41 0  0.03015443760436654 0.41 0  0.2497468076502589 0.2050254481002335 0  0.2497468076502614 0.1949745518997913 0  0.2469965252529372 0.1829317073451959 0  0.2439893735792749 0.1762316384219906 0  0.2400332147834255 0.1700443375285386 0  0.2352133972704371 0.1645032867342007 0  0.2296339016332438 0.1597280261969788 0  0.2234150974217223 0.1558215752574715 0  0.2166911463437691 0.1528682099456123 0  0.2096071079204251 0.1509316448471593 0  0.2023158100364996 0.1500536585536553 0  0.194974551899914 0.1502531923497262 0  0.1877417105387872 0.1515259415822739 0  0.1807733240461124 0.153844448527136 0  0.1742197252835808 0.15715869474974 0  0.1682222986673531 0.1613971801805478 0  0.162910430003803 0.1664684656256651 0  0.1583987151779087 0.1722631454351573 0  0.1547844879126891 0.178656207771761 0  0.1521457199348551 0.1855097315605723 0  0.1505393388476355 0.1926758619366523 0  0.1505393388476328 0.2073241380633295 0  0.1521457199348437 0.2144902684393899 0  0.1547844879126531 0.221343792228163 0  0.1583987151778488 0.2277368545647528 0  0.1629104300036858 0.2335315343742052 0  0.1682222986671726 0.2386028198193036 0  0.1742197252833576 0.2428413052501257 0  0.1807733240458683 0.2461555514727623 0  0.1877417105384929 0.2484740584176516 0  0.1949745518995776 0.2497468076502398 0  0.202315810036185 0.2499463414463592 0  0.2096071079201568 0.2490683551528932 0  0.2166911463435495 0.2471317900544655 0  0.2234150974215506 0.2441784247426195 0  0.2296339016331197 0.2402719738031125 0  0.2352133972703547 0.2354967132658811 0  0.2400332147833751 0.2299556624715287 0  0.2439893735792577 0.2237683615780412 0  0.246996525252926 0.2170682926548348 0  0.25645809709277 0.21 0  0.2639263993298655 0.21 0  0.271394701566961 0.21 0  0.2788630038040554 0.21 0  0.2863313060411479 0.21 0  0.2937996082782405 0.21 0  0.301267910515333 0.21 0  0.3087362127524279 0.21 0  0.3162045149895234 0.21 0  0.3236728172265972 0.21 0  0.3311411194636928 0.21 0  0.3386094217007701 0.21 0  0.3460777239378666 0.21 0  0.3535460261749672 0.21 0  0.3610143284120516 0.21 0  0.3684826306491596 0.21 0  0.3759509328862226 0.21 0  0.383419235123329 0.21 0  0.3908875373604028 0.21 0  0.3983558395975142 0.21 0  0.4058241418345938 0.21 0  0.4132924440716992 0.21 0  0.4207607463087888 0.21 0  0.4282290485459029 0.21 0  0.4356973507830418 0.21 0  0.4431656530201649 0.21 0  0.4506339552573136 0.21 0  0.4581022574944306 0.21 0  0.4655705597315852 0.21 0  0.4730388619686996 0.21 0  0.480507164205851 0.21 0  0.4879754664429498 0.21 0  0.4954437686800938 0.21 0  0.502912070917267 0.21 0  0.5103803731544119 0.21 0  0.5178486753915261 0.21 0  0.5253169776286404 0.21 0  0.5327852798657868 0.21 0  0.5402535821029386 0.21 0  0.54772188434007 0.21 0  0.5551901865771842 0.21 0  0.5626584888143201 0.21 0  0.5701267910514778 0.21 0  0.5775950932886138 0.21 0  0.5850633955257281 0.21 0  0.5925316977628483 0.21 0  0.6 0.2050000000000054 0  0.6 0.1950000000000217 0  0.5925316977628897 0.19 0  0.5850633955257988 0.19 0  0.5775950932887378 0.19 0  0.5701267910515998 0.19 0  0.5626584888145268 0.19 0  0.5551901865773963 0.19 0  0.547721884340339 0.19 0  0.5402535821032429 0.19 0  0.5327852798661811 0.19 0  0.5253169776290537 0.19 0  0.5178486753919799 0.19 0  0.5103803731549078 0.19 0  0.502912070917822 0.19 0  0.4954437686807294 0.19 0  0.4879754664436223 0.19 0  0.4805071642065402 0.19 0  0.4730388619694271 0.19 0  0.4655705597323621 0.19 0  0.4581022574952563 0.19 0  0.4506339552581777 0.19 0  0.4431656530210671 0.19 0  0.4356973507839815 0.19 0  0.4282290485468779 0.19 0  0.4207607463097617 0.19 0  0.4132924440726327 0.19 0  0.4058241418354857 0.19 0  0.3983558395983636 0.19 0  0.3908875373612097 0.19 0  0.3834192351240934 0.19 0  0.3759509328869369 0.19 0  0.3684826306498175 0.19 0  0.361014328412667 0.19 0  0.3535460261755617 0.19 0  0.3460777239384295 0.19 0  0.3386094217012945 0.19 0  0.3311411194641595 0.19 0  0.3236728172270245 0.19 0  0.3162045149898895 0.19 0  0.3087362127527544 0.19 0  0.3012679105156187 0.19 0  0.2937996082784807 0.19 0  0.2863313060413428 0.19 0  0.2788630038042048 0.19 0  0.2713947015670686 0.19 0  0.2639263993299336 0.19 0  0.2564580970927985 0.19 0  0.2607803159922026 0.2000727136295815 0  0.5887803774232762 0.2001272386983733 0  0.5745072403740523 0.2002044435018727 0  0.5511891430099709 0.2001122610077113 0  0.2751288526855082 0.20000000000002 0  0.5365194309847112 0.1999999999999436 0  0.2894621222999649 0.1998691686390484 0  0.5215828265105155 0.1999999999999228 0  0.3127789816668748 0.1998657885438805 0  0.3274069683451451 0.2000000000000796 0  0.5066462220363641 0.199999999999908 0  0.3650630746574081 0.199866017807523 0  0.476773013087985 0.1999999999998713 0  0.3417402379596385 0.1998691686391011 0  0.3796850840047755 0.200000000000134 0  0.4618364086138087 0.1999999999998546 0  0.4917096175621762 0.1999999999998808 0  0.3946216884789568 0.2000000000001512 0  0.446899804139621 0.1999999999998389 0  0.4089549580935208 0.1998691686391595 0  0.4322718174608562 0.200127451265745 0  0.4201487168029707 0.1999966199048527 0  0.3528922713220932 0.2000185703532356 0  0.5633122436674589 0.1999814296467508 0  0.3006558810093873 0.1999966199048318 0  0.5815926498168407 0.1966545283159175 0  0.2677053789419034 0.1964246479135325 0  0.5290511287476175 0.1970915826863981 0  0.5439877332217911 0.197091582686394 0  0.2825131256993216 0.2035478995978015 0  0.3199386661080599 0.202908417313604 0  0.4842413153250809 0.1970915826863873 0  0.5141145242734466 0.1970915826863843 0  0.3722167817676917 0.2029084173136195 0  0.4693047108508938 0.1970915826863783 0  0.3348752705822316 0.202908417313609 0  0.3871533862418661 0.2029084173136212 0  0.4543681063767183 0.1970915826863795 0  0.4991779197992749 0.1970915826863902 0  0.4020059614928624 0.203547899597858 0  0.4394315019025246 0.1970915826863714 0  0.2550657455369551 0.2034088125358657 0  0.2548908499171161 0.1966940311614271 0  0.5946539510196798 0.2024302972968126 0  0.267698176732111 0.2039977513680092 0  0.4261685417851465 0.196409292431739 0  0.3590076176283495 0.196411355804271 0  0.5571672426447437 0.2036011176410121 0  0.3066757059912147 0.1964092924317024 0  0.594380730180568 0.1966558399668133 0  0.4842413153245942 0.2040749161535287 0  0.4693047108503577 0.2040749161535231 0  0.3871533862424271 0.1959250838464788 0  0.372246743208829 0.1959123236376545 0  0.5141145242731028 0.2040749161535395 0  0.4543681063761134 0.2040749161535186 0  0.4019979587101454 0.1959834479682427 0  0.4394608940728603 0.2040870543693135 0  0.5439623148931173 0.2040856076781014 0  0.5290511287473298 0.2040749161535501 0  0.4991779197988497 0.2040749161535382 0  0.3347912413592433 0.1959225448935183 0  0.3199680582793816 0.1959123018030061 0  0.2825051229162361 0.1959834479681729 0  0.3590471196690275 0.2036304442587945 0  0.5571594006495384 0.1963685282145804 0  0.3067669986803285 0.203627750582736 0  0.4262598344738712 0.2036568242185335 0  0.5814408164431408 0.2041285596160068 0  0.5688286748170428 0.1961819304477386 0  0.4145905603063645 0.2038180695522843 0  0.3473758401724931 0.2038180695522752 0  0.2950977245128307 0.2038180695522663 0  0.5688286748170693 0.203818069552238 0  0.2950977245127906 0.1961819304477774 0  0.3473758401723931 0.1961819304478349 0  0.4145905603061963 0.1961819304479011 0  0.2601812407614425 0.2056861609747042
[...]
<PointData  Vectors="f_40-1"> 
<DataArray  type="Float64"  Name="f_40-1"  NumberOfComponents="3" format="ascii">0.0000000000000000e+00 0.0000000000000000e+00 0.0000000000000000e+00  0.0000000000000000e+00 0.0000000000000000e+00 0.0000000000000000e+00  0.0000000000000000e+00 0.0000000000000000e+00 0.0000000000000000e+00  0.0000000000000000e+00 0.0000000000000000e+00 0.0000000000000000e+00  -3.0620042307436949e-06 -1.6299963632097625e-06 0.0000000000000000e+00  -2.8213581950823124e-06 -2.1270092571818209e-06 0.0000000000000000e+00  0.0000000000000000e+00 0.0000000000000000e+00 0.0000000000000000e+00  0.0000000000000000e+00 0.0000000000000000e+00 0.0000000000000000e+00  0.0000000000000000e+00 0.0000000000000000e+00 0.0000000000000000e+00  0.0000000000000000e+00 0.0000000000000000e+00 0.0000000000000000e+00  -2.9712206991310180e-06 -1.8779576637785147e-06 0.0000000000000000e+00  0.0000000000000000e+00 0.0000000000000000e+00 0.0000000000000000e+00  0.0000000000000000e+00 0.0000000000000000e+00 0.0000000000000000e+00  0.0000000000000000e+00 0.0000000000000000e+00 0.0000000000000000e+00  0.0000000000000000e+00 0.0000000000000000e+00 0.0000000000000000e+00  0.0000000000000000e+00 0.0000000000000000e+00 0.0000000000000000e+00  0.0000000000000000e+00 0.0000000000000000e+00 0.0000000000000000e+00  0.0000000000000000e+00 0.0000000000000000e+00 0.0000000000000000e+00  0.0000000000000000e+00 0.0000000000000000e+00 0.0000000000000000e+00  0.0000000000000000e+00 0.0000000000000000e+00 0.0000000000000000e+00  0.0000000000000000e+00 0.0000000000000000e+00 0.0000000000000000e+00  0.0000000000000000e+00 0.0000000000000000e+00 0.0000000000000000e+00  0.0000000000000000e+00 0.0000000000000000e+00 0.0000000000000000e+00  0.0000000000000000e+00 0.0000000000000000e+00 0.0000000000000000e+00  0.0000000000000000e+00 0.0000000000000000e+00 0.0000000000000000e+00  0.0000000000000000e+00 0.0000000000000000e+00 0.0000000000000000e+00  0.0000000000000000e+00 0.0000000000000000e+00 0.0000000000000000e+00  0.0000000000000000e+00 0.0000000000000000e+00 0.0000000000000000e+00  0.0000000000000000e+00 0.0000000000000000e+00 0.0000000000000000e+00  0.0000000000000000e+00 0.0000000000000000e+00 0.0000000000000000e+00  0.0000000000000000e+00 0.0000000000000000e+00 0.0000000000000000e+00  0.0000000000000000e+00 0.0000000000000000e+00 0.0000000000000000e+00  0.0000000000000000e+00 0.0000000000000000e+00 0.0000000000000000e+00  0.0000000000000000e+00 0.0000000000000000e+00 0.0000000000000000e+00  0.0000000000000000e+00 0.0000000000000000e+00 0.0000000000000000e+00  0.0000000000000000e+00 0.0000000000000000e+00 0.0000000000000000e+00  0.0000000000000000e+00 0.0000000000000000e+00 0.0000000000000000e+00  0.0000000000000000e+00 0.0000000000000000e+00 0.0000000000000000e+00  0.0000000000000000e+00 0.0000000000000000e+00 0.0000000000000000e+00  0.0000000000000000e+00 0.0000000000000000e+00 0.0000000000000000e+00  0.0000000000000000e+00 0.0000000000000000e+00 0.0000000000000000e+00  0.0000000000000000e+00 0.0000000000000000e+00 0.0000000000000000e+00  0.0000000000000000e+00 0.0000000000000000e+00 0.0000000000000000e+00  0.0000000000000000e+00 0.0000000000000000e+00 0.0000000000000000e+00  0.0000000000000000e+00 0.0000000000000000e+00 0.0000000000000000e+00  0.0000000000000000e+00 0.0000000000000000e+00 0.0000000000000000e+00  0.0000000000000000e+00 0.0000000000000000e+00 0.0000000000000000e+00  0.0000000000000000e+00 0.0000000000000000e+00 0.0000000000000000e+00  0.0000000000000000e+00 0.0000000000000000e+00 0.0000000000000000e+00  0.0000000000000000e+00 0.0000000000000000e+00 0.0000000000000000e+00  0.0000000000000000e+00 0.0000000000000000e+00 0.0000000000000000e+00  0.0000000000000000e+00 0.0000000000000000e+00 0.0000000000000000e+00  0.0000000000000000e+00 0.0000000000000000e+00 0.0000000000000000e+00  0.0000000000000000e+00 0.0000000000000000e+00 0.0000000000000000e+00  0.0000000000000000e+00 0.0000000000000000e+00 0.0000000000000000e+00  0.0000000000000000e+00 0.0000000000000000e+00 0.0000000000000000e+00  0.0000000000000000e+00 0.0000000000000000e+00 0.0000000000000000e+00  0.0000000000000000e+00 0.0000000000000000e+00 0.0000000000000000e+00  0.0000000000000000e+00 0.0000000000000000e+00 0.0000000000000000e+00  0.0000000000000000e+00 0.0000000000000000e+00 0.0000000000000000e+00  0.0000000000000000e+00 0.0000000000000000e+00 0.0000000000000000e+00  0.0000000000000000e+00 0.0000000000000000e+00 0.0000000000000000e+00  0.0000000000000000e+00 0.0000000000000000e+00 0.0000000000000000e+00  0.0000000000000000e+00 0.0000000000000000e+00 0.0000000000000000e+00  0.0000000000000000e+00 0.0000000000000000e+00 0.0000000000000000e+00  0.0000000000000000e+00 0.0000000000000000e+00 0.0000000000000000e+00  0.0000000000000000e+00 0.0000000000000000e+00 0.0000000000000000e+00  0.0000000000000000e+00 0.0000000000000000e+00 0.0000000000000000e+00  0.0000000000000000e+00 0.0000000000000000e+00 0.0000000000000000e+00  0.0000000000000000e+00 0.0000000000000000e+00 0.0000000000000000e+00  0.0000000000000000e+00 0.0000000000000000e+00 0.0000000000000000e+00  0.0000000000000000e+00 0.0000000000000000e+00 0.0000000000000000e+00  0.0000000000000000e+00 0.0000000000000000e+00 0.0000000000000000e+00  0.0000000000000000e+00 0.0000000000000000e+00 0.0000000000000000e+00  0.0000000000000000e+00 0.0000000000000000e+00 0.0000000000000000e+00  0.0000000000000000e+00 0.0000000000000000e+00 0.0000000000000000e+00  0.0000000000000000e+00 0.0000000000000000e+00 0.0000000000000000e+00  0.0000000000000000e+00 0.0000000000000000e+00 0.0000000000000000e+00  0.0000000000000000e+00 0.0000000000000000e+00 0.0000000000000000e+00  0.0000000000000000e+00 0.0000000000000000e+00 0.0000000000000000e+00  0.0000000000000000e+00 0.0000000000000000e+00 0.0000000000000000e+00  0.0000000000000000e+00 0.0000000000000000e+00 0.0000000000000000e+00  0.0000000000000000e+00 0.0000000000000000e+00 0.0000000000000000e+00  0.0000000000000000e+00 0.0000000000000000e+00 0.0000000000000000e+00  0.0000000000000000e+00 0.0000000000000000e+00 0.0000000000000000e+00  0.0000000000000000e+00 0.0000000000000000e+00 0.0000000000000000e+00  0.0000000000000000e+00 0.0000000000000000e+00 0.0000000000000000e+00  0.0000000000000000e+00 0.0000000000000000e+00 0.0000000000000000e+00  0.0000000000000000e+00 0.0000000000000000e+00 0.0000000000000000e+00  0.0000000000000000e+00 0.0000000000000000e+00 0.0000000000000000e+00  0.0000000000000000e+00 0.0000000000000000e+00 0.0000000000000000e+00  0.0000000000000000e+00 0.0000000000000000e+00 0.0000000000000000e+00  0.0000000000000000e+00 0.0000000000000000e+00 0.0000000000000000e+00  0.0000000000000000e+00 0.0000000000000000e+00 0.0000000000000000e+00  0.0000000000000000e+00 0.0000000000000000e+00 0.0000000000000000e+00  0.0000000000000000e+00 0.0000000000000000e+00 0.0000000000000000e+00  0.0000000000000000e+00 0.0000000000000000e+00 0.0000000000000000e+00  0.0000000000000000e+00 0.0000000000000000e+00 0.0000000000000000e+00  0.0000000000000000e+00 0.0000000000000000e+00 0.0000000000000000e+00  0.0000000000000000e+00 0.0000000000000000e+00 0.0000000000000000e+00  0.0000000000000000e+00 0.0000000000000000e+00 0.0000000000000000e+00  0.0000000000000000e+00 0.0000000000000000e+00 0.0000000000000000e+00  0.0000000000000000e+00 0.0000000000000000e+00 0.0000000000000000e+00  0.0000000000000000e+00 0.0000000000000000e+00 0.0000000000000000e+00  0.0000000000000000e+00 0.0000000000000000e+00 0.0000000000000000e+00  0.0000000000000000e+00 0.0000000000000000e+00 0.0000000000000000e+00  0.0000000000000000e+00 0.0000000000000000e+00 0.0000000000000000e+00  0.0000000000000000e+00 0.0000000000000000e+00 0.0000000000000000e+00  0.0000000000000000e+00 0.0000000000000000e+00 0.0000000000000000e+00  0.0000000000000000e+00 0.0000000000000000e+00 0.0000000000000000e+00  0.0000000000000000e+00 0.0000000000000000e+00 0.0000000000000000e+00  0.0000000000000000e+00 0.0000000000000000e+00 0.0000000000000000e+00  0.0000000000000000e+00 0.0000000000000000e+00 0.0000000000000000e+00  0.0000000000000000e+00 0.0000000000000000e+00 0.0000000000000000e+00  0.0000000000000000e+00 0.0000000000000000e+00 0.0000000000000000e+00  0.0000000000000000e+00 0.0000000000000000e+00 0.0000000000000000e+00  0.0000000000000000e+00 0.0000000000000000e+00 0.0000000000000000e+00  0.0000000000000000e+00 0.0000000000000000e+00 0.0000000000000000e+00  0.0000000000000000e+00 0.0000000000000000e+00 0.0000000000000000e+00  0.0000000000000000e+00 0.0000000000000000e+00 0.0000000000000000e+00  0.0000000000000000e+00 0.0000000000000000e+00 0.0000000000000000e+00  0.0000000000000000e+00 0.0000000000000000e+00 0.0000000000000000e+00  0.0000000000000000e+00 0.0000000000000000e+00 0.0000000000000000e+00  0.0000000000000000e+00 0.0000000000000000e+00 0.0000000000000000e+00  0.0000000000000000e+00 0.0000000000000000e+00 0.0000000000000000e+00  0.0000000000000000e+00 0.0000000000000000e+00 0.0000000000000000e+00  0.0000000000000000e+00 0.0000000000000000e+00 0.0000000000000000e+00  0.0000000000000000e+00 0.0000000000000000e+00 0.0000000000000000e+00  0.0000000000000000e+00 0.0000000000000000e+00 0.0000000000000000e+00  0.0000000000000000e+00 0.0000000000000000e+00 0.0000000000000000e+00  0.0000000000000000e+00 0.0000000000000000e+00 0.0000000000000000e+00  0.0000000000000000e+00 0.0000000000000000e+00 0.0000000000000000e+00  0.0000000000000000e+00 0.0000000000000000e+00 0.0000000000000000e+00  0.0000000000000000e+00 0.0000000000000000e+00 0.0000000000000000e+00  0.0000000000000000e+00 0.0000000000000000e+00 0.0000000000000000e+00  0.0000000000000000e+00 0.0000000000000000e+00 0.0000000000000000e+00  0.0000000000000000e+00 0.0000000000000000e+00 0.0000000000000000e+00  0.0000000000000000e+00 0.0000000000000000e+00 0.0000000000000000e+00  0.0000000000000000e+00 0.0000000000000000e+00 0.0000000000000000e+00  0.0000000000000000e+00 0.0000000000000000e+00 0.0000000000000000e+00  0.0000000000000000e+00 0.0000000000000000e+00 0.0000000000000000e+00  0.0000000000000000e+00 0.0000000000000000e+00 0.0000000000000000e+00  0.0000000000000000e+00 0.0000000000000000e+00 0.0000000000000000e+00  -3.6892802171619656e-08 -3.9582995302082489e-07 0.0000000000000000e+00  -6.3460793939793463e-08 -4.2461265302699958e-07 0.0000000000000000e+00  -6.9023835634422258e-08 -4.2984319072131914e-07 0.0000000000000000e+00  -6.7707027917156016e-08 -4.2305903296696541e-07 0.0000000000000000e+00  -6.2026952975471916e-08 -4.1564072214222351e-07 0.0000000000000000e+00  -6.0675032792809950e-08 -4.1372239306902839e-07 0.0000000000000000e+00  -6.0289450136770366e-08 -4.1041199146089398e-07 0.0000000000000000e+00  -6.4557170882600610e-08 -4.0979388938054400e-07 0.0000000000000000e+00  -7.0122062502939084e-08 -4.0975390233729412e-07 0.0000000000000000e+00  -7.9615526422356043e-08 -4.1071546348505667e-07 0.0000000000000000e+00  -9.1851103878191421e-08 -4.1488972213223426e-07 0.0000000000000000e+00  -1.0728664684326545e-07 -4.1937055470202226e-07 0.0000000000000000e+00  -1.2649062661102308e-07 -4.2591023428884086e-07 0.0000000000000000e+00  -1.4804670678140726e-07 -4.3494265718718105e-07 0.0000000000000000e+00  -1.7402784223105922e-07 -4.4519038804440936e-07 0.0000000000000000e+00  -2.0117052977415265e-07 -4.5880285549325496e-07 0.0000000000000000e+00  -2.3397581316956386e-07 -4.7269357117116563e-07 0.0000000000000000e+00  -2.6825942783473586e-07 -4.9183290621296731e-07 0.0000000000000000e+00  -3.0789598277017655e-07 -5.1050973954234100e-07 0.0000000000000000e+00  -3.4870293500950763e-07 -5.3422581506867388e-07 0.0000000000000000e+00  -3.9516528944617807e-07 -5.5788123978823638e-07 0.0000000000000000e+00  -4.4349302783134910e-07 -5.8559266409234143e-07 0.0000000000000000e+00  -4.9608893024051127e-07 -6.1625342034808315e-07 0.0000000000000000e+00  -5.5177829445262041e-07 -6.4840731943165687e-07 0.0000000000000000e+00  -6.1031043247210381e-07 -6.8500130190360020e-07 0.0000000000000000e+00  -6.7314365968156373e-07 -7.2185273530434253e-07 0.0000000000000000e+00  -7.3970022750332250e-07 -7.6490939641897327e-07 0.0000000000000000e+00  -8.0983634177238242e-07 -8.0779795272573127e-07 0.0000000000000000e+00  -8.8290789884388676e-07 -8.5552828942417221e-07 0.0000000000000000e+00  -9.6030369354242052e-07 -9.0491099752974212e-07 0.0000000000000000e+00  -1.0401968849608381e-06 -9.5840485738060784e-07 0.0000000000000000e+00  -1.1250816244846310e-06 -1.0127273461314446e-06 0.0000000000000000e+00  -1.2124553909843141e-06 -1.0720128538603384e-06 0.0000000000000000e+00  -1.3044518499802631e-06 -1.1311501330476762e-06 0.0000000000000000e+00  -1.3997681764129858e-06 -1.1955284573722248e-06 0.0000000000000000e+00  -1.4994471026850285e-06 -1.2600845332534070e-06 0.0000000000000000e+00  -1.6017530433767946e-06 -1.3287221923159553e-06 0.0000000000000000e+00  -1.7086188368367021e-06 -1.3981090209823493e-06 0.0000000000000000e+00  -1.8188150196122471e-06 -1.4714486721147827e-06 0.0000000000000000e+00  -1.9334683961143959e-06 -1.5447076901786828e-06 0.0000000000000000e+00  -2.0523880257917654e-06 -1.6208943323925199e-06 0.0000000000000000e+00  -2.1747829387727935e-06 -1.6980639039570061e-06 0.0000000000000000e+00  -2.3012755399982764e-06 -1.7774119379367942e-06 0.0000000000000000e+00  -2.4304503120891985e-06 -1.8566311111280695e-06 0.0000000000000000e+00  -2.5629114969692448e-06 -1.9363133834496487e-06 0.0000000000000000e+00  -2.6984340213695134e-06 -2.0207980557068719e-06 0.0000000000000000e+00  -2.9079976927523156e-06 -2.0005896797779958e-06 0.0000000000000000e+00  -3.0240332085480044e-06 -1.7546508298643541e-06 0.0000000000000000e+00  -2.9323344750258977e-06 -1.5580079421696736e-06 0.0000000000000000e+00  -2.7956630250252990e-06 -1.4669998120416351e-06 0.0000000000000000e+00  -2.6587632966231419e-06 -1.3746848425124012e-06 0.0000000000000000e+00  -2.5265830288430446e-06 -1.2840511223055522e-06 0.0000000000000000e+00  -2.3960310038485109e-06 -1.1957020686260403e-06 0.0000000000000000e+00  -2.2706496902052725e-06 -1.1084690722449313e-06 0.0000000000000000e+00  -2.1464529035594124e-06 -1.0225743407394708e-06 0.0000000000000000e+00  -2.0279820159304123e-06 -9.3862826653172233e-07 0.0000000000000000e+00  -1.9107260941340720e-06 -8.5728405565810807e-07 0.0000000000000000e+00  -1.7989573046566906e-06 -7.7685140061321132e-07 0.0000000000000000e+00  -1.6895550798490903e-06 -6.9993593139749686e-07 0.0000000000000000e+00  -1.5846836199035455e-06 -6.2454296289871816e-07 0.0000000000000000e+00  -1.4821742699704278e-06 -5.5258941639891541e-07 0.0000000000000000e+00  -1.3840254765578655e-06 -4.8161447213660720e-07 0.0000000000000000e+00  -1.2889089971761564e-06 -4.1512145433361627e-07 0.0000000000000000e+00  -1.1976392477513235e-06 -3.4954854301830926e-07 0.0000000000000000e+00  -1.1093836692306397e-06 -2.8819329805406933e-07 0.0000000000000000e+00  -1.0254679585577553e-06 -2.2812353343974368e-07 0.0000000000000000e+00  -9.4372514154614122e-07 -1.7276385271920177e-07 0.0000000000000000e+00  -8.6708271520628641e-07 -1.1839646347975444e-07 0.0000000000000000e+00  -7.9227219192541372e-07 -6.8782856773815269e-08 0.0000000000000000e+00  -7.2280045408619126e-07 -2.0146856933483934e-08 0.0000000000000000e+00  -6.5588936992024139e-07 2.4705730599168991e-08 0.0000000000000000e+00  -5.9309014416458138e-07 6.6618115716078174e-08 0.0000000000000000e+00  -5.3417347401882766e-07 1.0644564973620999e-07 0.0000000000000000e+00  -4.7757835426994181e-07 1.4247714762001855e-07 0.0000000000000000e+00  -4.2493231198384142e-07 1.7744708823427387e-07 0.0000000000000000e+00  -3.7606796732624754e-07 2.0772869769759781e-07 0.0000000000000000e+00  -3.3137217599048024e-07 2.3809441886228954e-07 0.0000000000000000e+00  -2.8973323632476305e-07 2.6312099139693064e-07 0.0000000000000000e+00  -2.5173337158316010e-07 2.8899719268297234e-07 0.0000000000000000e+00  -2.1761386716423103e-07 3.0999631080826632e-07 0.0000000000000000e+00  -1.8634374357903949e-07 3.3003893759332479e-07 0.0000000000000000e+00  -1.5927266482503989e-07 3.4725229176892273e-07 0.0000000000000000e+00  -1.3558918931428137e-07 3.6327504567554550e-07 0.0000000000000000e+00  -1.1483676759927720e-07 3.7678038568304672e-07 0.0000000000000000e+00  -9.7841006284717609e-08 3.8812419290917496e-07 0.0000000000000000e+00  -8.3884779637626225e-08 3.9862167964905044e-07 0.0000000000000000e+00  -7.4785175186622313e-08 4.0635781830396637e-07 0.0000000000000000e+00  -6.6937654386069017e-08 4.1309336490857235e-07 0.0000000000000000e+00  -6.5204292942525066e-08 4.1941364254076230e-07 0.0000000000000000e+00  -6.3216834932473501e-08 4.2313893566417173e-07 0.0000000000000000e+00  -6.7283520349023051e-08 4.3012323552495478e-07 0.0000000000000000e+00  -6.7017372939558059e-08 4.3498644381223913e-07 0.0000000000000000e+00  -6.1608835181790744e-08 4.2708799934736561e-07 0.0000000000000000e+00  -3.7157696670820915e-08 3.9466399821070210e-07 0.0000000000000000e+00  -1.2749029991139775e-07 -1.8658990237219708e-09 0.0000000000000000e+00  -2.7546030749188205e-06 -1.7476164011830683e-06 0.0000000000000000e+00  -2.4897307849704299e-06 -1.5844190624957795e-06 0.0000000000000000e+00  -2.0965673144462036e-06 -1.3228299194898316e-06 0.0000000000000000e+00  -7.1200914235835727e-08 3.1788834430561918e-09 0.0000000000000000e+00  -1.8686270445593272e-06 -1.1645686141630116e-06 0.0000000000000000e+00  -6.3175276984116260e-08 9.6626580663971066e-09 0.0000000000000000e+00  -1.6493960906602298e-06 -1.0145853639560151e-06 0.0000000000000000e+00  -7.4981844070617103e-08 2.7185738143208241e-09 0.0000000000000000e+00  -9.7839587684880194e-08 -1.3866477796455658e-08 0.0000000000000000e+00  -1.4447746965473938e-06 -8.7405253654091991e-07 0.0000000000000000e+00  -2.1405148432156467e-07 -7.0145030848007379e-08 0.0000000000000000e+00  -1.0788621664810537e-06 -6.2305120543873081e-07 0.0000000000000000e+00  -1.3181058716959902e-07 -2.6322383595959490e-08 0.0000000000000000e+00  -2.8266681543996359e-07 -1.1393636444285518e-07 0.0000000000000000e+00  -9.1734622783187896e-07 -5.1382532143464883e-07 0.0000000000000000e+00  -1.2545815089654162e-06 -7.4330612963502943e-07 0.0000000000000000e+00  -3.6636833364940143e-07 -1.6278791370069018e-07 0.0000000000000000e+00  -7.7006438204956192e-07 -4.1634453411114355e-07 0.0000000000000000e+00  -4.6005182760000818e-07 -2.1431407291772353e-07 0.0000000000000000e+00  -6.3859922584092971e-07 -3.3596917013568633e-07 0.0000000000000000e+00  -5.4267856691795456e-07 -2.7024171505300027e-07 0.0000000000000000e+00  -1.6788943152287495e-07 -5.0861306633517931e-08 0.0000000000000000e+00  -2.2998131921048123e-06 -1.4530000605539002e-06 0.0000000000000000e+00  -6.6308266428463212e-08 2.1465591970683431e-09 0.0000000000000000e+00  -2.6592719011000038e-06 -1.5819394203340633e-06 0.0000000000000000e+00  -8.8439823356160476e-08 1.6355454786565032e-07 0.0000000000000000e+00  -1.7862862713168246e-06 -1.0093679809953924e-06 0.0000000000000000e+00  -2.0143967657478269e-06 -1.1664500869064811e-06 0.0000000000000000e+00  -6.5639400519961807e-08 -1.4580548929472594e-07 0.0000000000000000e+00  -8.2407781739741208e-08 -1.2411493532947885e-07 0.0000000000000000e+00  -1.1883545547657722e-06 -5.9436452719468665e-07 0.0000000000000000e+00  -1.5726656919715391e-06 -8.6124501183041090e-07 0.0000000000000000e+00  -2.3819393931049587e-07 -2.0121272739846273e-07 0.0000000000000000e+00  -1.0175815870816739e-06 -4.7686233570926812e-07 0.0000000000000000e+00  -1.1044658553475705e-07 -1.3671342772581589e-07 0.0000000000000000e+00  -3.1336383228587566e-07 -2.4292584880679596e-07 0.0000000000000000e+00  -8.6100148143555278e-07 -3.7091495920762558e-07 0.0000000000000000e+00  -1.3733285382077507e-06 -7.2261155458168427e-07 0.0000000000000000e+00  -3.9881985137159373e-07 -3.1644140737578031e-07 0.0000000000000000e+00  -7.1863942823659999e-07 -2.7631144652186411e-07 0.0000000000000000e+00  -1.0810815199998981e-07 -9.4836453011461102e-08 0.0000000000000000e+00  -1.0574488994943071e-07 8.5883926269047998e-08 0.0000000000000000e+00  -2.8401617244829384e-06 -1.87043171031