<?xml version="1.0"?>
<VTKFile type="UnstructuredGrid"  version="0.1"  >
<UnstructuredGrid>
<Piece  NumberOfPoints="1419" NumberOfCells="2698">
<Points>
<DataArray  type="Float64"  NumberOfComponents="3"  format="ascii">0 0 0  0 0.41 0  2.5 0 0  2.5 0.41 0  0.6 0.19 0  0.6 0.21 0  0.25 0.2 0  0.15 0.2 0  0.2489897948556636 0.21 0  0.2489897948556636 0.19 0  0.6 0.2 0  0 0.3807142857143437 0  0 0.3514285714286952 0  0 0.3221428571430699 0  0 0.29285714285744 0  0 0.2635714285718054 0  0 0.2342857142861561 0  0 0.2050000000005308 0  0 0.175714285714732 0  0 0.1464285714289574 0  0 0.1171428571431897 0  0 0.08785714285737878 0  0 0.05857142857161107 0  0 0.02928571428580012 0  0.03015443760436003 0 0  0.06140001986583606 0 0  0.09377624077125973 0 0  0.1273239957535082 0 0  0.1620856860351972 0 0  0.1981052433264291 0 0  0.235428184091502 0 0  0.2741016576309132 0 0  0.3141745521465447 0 0  0.3556974926295285 0 0  0.3987229542472677 0 0  0.4433053055141081 0 0  0.4895008759286886 0 0  0.5373680609405097 0 0  0.5869673343216626 0 0  0.6383613676634521 0 0  0.6916151138468254 0 0  0.7467958595648856 0 0  0.8039733463919316 0 0  0.8632198139502143 0 0  0.9246101326867038 0 0  0.9882218810934433 0 0  1.054135445558498 0 0  1.122434100542598 0 0  1.193204177141305 0 0  1.266535089879536 0 0  1.342519516046404 0 0  1.421253448503939 0 0  1.502836389106271 0 0  1.587371439758838 0 0  1.674965418777374 0 0  1.765729001825544 0 0  1.859776908880082 0 0  1.957227977487062 0 0  2.058205329869943 0 0  2.162836591189951 0 0  2.271253957290865 0 0  2.383594446803425 0 0  2.5 0.1024999999997612 0  2.5 0.2049999999994743 0  2.5 0.3074999999997183 0  2.383594446803656 0.41 0  2.271253957291315 0.41 0  2.162836591190598 0.41 0  2.058205329870775 0.41 0  1.957227977488067 0.41 0  1.859776908881246 0.41 0  1.765729001826854 0.41 0  1.674965418778818 0.41 0  1.58737143976041 0.41 0  1.502836389107956 0.41 0  1.421253448505726 0.41 0  1.342519516048286 0.41 0  1.266535089881505 0.41 0  1.193204177143353 0.41 0  1.122434100544716 0.41 0  1.05413544556068 0.41 0  0.9882218810956305 0.41 0  0.9246101326886647 0.41 0  0.8632198139519631 0.41 0  0.8039733463934788 0.41 0  0.7467958595662458 0.41 0  0.6916151138480078 0.41 0  0.6383613676644679 0.41 0  0.5869673343225223 0.41 0  0.5373680609412221 0.41 0  0.4895008759292634 0.41 0  0.4433053055145528 0.41 0  0.3987229542475914 0.41 0  0.3556974926297398 0.41 0  0.3141745521466497 0.41 0  0.2741016576310038 0.41 0  0.2354281840915826 0.41 0  0.1981052433265003 0.41 0  0.1620856860352591 0.41 0  0.1273239957535623 0.41 0  0.09377624077128965 0.41 0  0.06140001986584975 0.41 0  0.03015443760436654 0.41 0  0.2497468076502589 0.2050254481002335 0  0.2497468076502614 0.1949745518997913 0  0.2469965252529372 0.1829317073451959 0  0.2439893735792749 0.1762316384219906 0  0.2400332147834255 0.1700443375285386 0  0.2352133972704371 0.1645032867342007 0  0.2296339016332438 0.1597280261969788 0  0.2234150974217223 0.1558215752574715 0  0.2166911463437691 0.1528682099456123 0  0.2096071079204251 0.1509316448471593 0  0.2023158100364996 0.1500536585536553 0  0.194974551899914 0.1502531923497262 0  0.1877417105387872 0.1515259415822739 0  0.1807733240461124 0.153844448527136 0  0.1742197252835808 0.15715869474974 0  0.1682222986673531 0.1613971801805478 0  0.162910430003803 0.1664684656256651 0  0.1583987151779087 0.1722631454351573 0  0.1547844879126891 0.178656207771761 0  0.1521457199348551 0.1855097315605723 0  0.1505393388476355 0.1926758619366523 0  0.1505393388476328 0.2073241380633295 0  0.1521457199348437 0.2144902684393899 0  0.1547844879126531 0.221343792228163 0  0.1583987151778488 0.2277368545647528 0  0.1629104300036858 0.2335315343742052 0  0.1682222986671726 0.2386028198193036 0  0.1742197252833576 0.2428413052501257 0  0.1807733240458683 0.2461555514727623 0  0.1877417105384929 0.2484740584176516 0  0.1949745518995776 0.2497468076502398 0  0.202315810036185 0.2499463414463592 0  0.2096071079201568 0.2490683551528932 0  0.2166911463435495 0.2471317900544655 0  0.2234150974215506 0.2441784247426195 0  0.2296339016331197 0.2402719738031125 0  0.2352133972703547 0.2354967132658811 0  0.2400332147833751 0.2299556624715287 0  0.2439893735792577 0.2237683615780412 0  0.246996525252926 0.2170682926548348 0  0.25645809709277 0.21 0  0.2639263993298655 0.21 0  0.271394701566961 0.21 0  0.2788630038040554 0.21 0  0.2863313060411479 0.21 0  0.2937996082782405 0.21 0  0.301267910515333 0.21 0  0.3087362127524279 0.21 0  0.3162045149895234 0.21 0  0.3236728172265972 0.21 0  0.3311411194636928 0.21 0  0.3386094217007701 0.21 0  0.3460777239378666 0.21 0  0.3535460261749672 0.21 0  0.3610143284120516 0.21 0  0.3684826306491596 0.21 0  0.3759509328862226 0.21 0  0.383419235123329 0.21 0  0.3908875373604028 0.21 0  0.3983558395975142 0.21 0  0.4058241418345938 0.21 0  0.4132924440716992 0.21 0  0.4207607463087888 0.21 0  0.4282290485459029 0.21 0  0.4356973507830418 0.21 0  0.4431656530201649 0.21 0  0.4506339552573136 0.21 0  0.4581022574944306 0.21 0  0.4655705597315852 0.21 0  0.4730388619686996 0.21 0  0.480507164205851 0.21 0  0.4879754664429498 0.21 0  0.4954437686800938 0.21 0  0.502912070917267 0.21 0  0.5103803731544119 0.21 0  0.5178486753915261 0.21 0  0.5253169776286404 0.21 0  0.5327852798657868 0.21 0  0.5402535821029386 0.21 0  0.54772188434007 0.21 0  0.5551901865771842 0.21 0  0.5626584888143201 0.21 0  0.5701267910514778 0.21 0  0.5775950932886138 0.21 0  0.5850633955257281 0.21 0  0.5925316977628483 0.21 0  0.6 0.2050000000000054 0  0.6 0.1950000000000217 0  0.5925316977628897 0.19 0  0.5850633955257988 0.19 0  0.5775950932887378 0.19 0  0.5701267910515998 0.19 0  0.5626584888145268 0.19 0  0.5551901865773963 0.19 0  0.547721884340339 0.19 0  0.5402535821032429 0.19 0  0.5327852798661811 0.19 0  0.5253169776290537 0.19 0  0.5178486753919799 0.19 0  0.5103803731549078 0.19 0  0.502912070917822 0.19 0  0.4954437686807294 0.19 0  0.4879754664436223 0.19 0  0.4805071642065402 0.19 0  0.4730388619694271 0.19 0  0.4655705597323621 0.19 0  0.4581022574952563 0.19 0  0.4506339552581777 0.19 0  0.4431656530210671 0.19 0  0.4356973507839815 0.19 0  0.4282290485468779 0.19 0  0.4207607463097617 0.19 0  0.4132924440726327 0.19 0  0.4058241418354857 0.19 0  0.3983558395983636 0.19 0  0.3908875373612097 0.19 0  0.3834192351240934 0.19 0  0.3759509328869369 0.19 0  0.3684826306498175 0.19 0  0.361014328412667 0.19 0  0.3535460261755617 0.19 0  0.3460777239384295 0.19 0  0.3386094217012945 0.19 0  0.3311411194641595 0.19 0  0.3236728172270245 0.19 0  0.3162045149898895 0.19 0  0.3087362127527544 0.19 0  0.3012679105156187 0.19 0  0.2937996082784807 0.19 0  0.2863313060413428 0.19 0  0.2788630038042048 0.19 0  0.2713947015670686 0.19 0  0.2639263993299336 0.19 0  0.2564580970927985 0.19 0  0.2607803159922026 0.2000727136295815 0  0.5887803774232762 0.2001272386983733 0  0.5745072403740523 0.2002044435018727 0  0.5511891430099709 0.2001122610077113 0  0.2751288526855082 0.20000000000002 0  0.5365194309847112 0.1999999999999436 0  0.2894621222999649 0.1998691686390484 0  0.5215828265105155 0.1999999999999228 0  0.3127789816668748 0.1998657885438805 0  0.3274069683451451 0.2000000000000796 0  0.5066462220363641 0.199999999999908 0  0.3650630746574081 0.199866017807523 0  0.476773013087985 0.1999999999998713 0  0.3417402379596385 0.1998691686391011 0  0.3796850840047755 0.200000000000134 0  0.4618364086138087 0.1999999999998546 0  0.4917096175621762 0.1999999999998808 0  0.3946216884789568 0.2000000000001512 0  0.446899804139621 0.1999999999998389 0  0.4089549580935208 0.1998691686391595 0  0.4322718174608562 0.200127451265745 0  0.4201487168029707 0.1999966199048527 0  0.3528922713220932 0.2000185703532356 0  0.5633122436674589 0.1999814296467508 0  0.3006558810093873 0.1999966199048318 0  0.5815926498168407 0.1966545283159175 0  0.2677053789419034 0.1964246479135325 0  0.5290511287476175 0.1970915826863981 0  0.5439877332217911 0.197091582686394 0  0.2825131256993216 0.2035478995978015 0  0.3199386661080599 0.202908417313604 0  0.4842413153250809 0.1970915826863873 0  0.5141145242734466 0.1970915826863843 0  0.3722167817676917 0.2029084173136195 0  0.4693047108508938 0.1970915826863783 0  0.3348752705822316 0.202908417313609 0  0.3871533862418661 0.2029084173136212 0  0.4543681063767183 0.1970915826863795 0  0.4991779197992749 0.1970915826863902 0  0.4020059614928624 0.203547899597858 0  0.4394315019025246 0.1970915826863714 0  0.2550657455369551 0.2034088125358657 0  0.2548908499171161 0.1966940311614271 0  0.5946539510196798 0.2024302972968126 0  0.267698176732111 0.2039977513680092 0  0.4261685417851465 0.196409292431739 0  0.3590076176283495 0.196411355804271 0  0.5571672426447437 0.2036011176410121 0  0.3066757059912147 0.1964092924317024 0  0.594380730180568 0.1966558399668133 0  0.4842413153245942 0.2040749161535287 0  0.4693047108503577 0.2040749161535231 0  0.3871533862424271 0.1959250838464788 0  0.372246743208829 0.1959123236376545 0  0.5141145242731028 0.2040749161535395 0  0.4543681063761134 0.2040749161535186 0  0.4019979587101454 0.1959834479682427 0  0.4394608940728603 0.2040870543693135 0  0.5439623148931173 0.2040856076781014 0  0.5290511287473298 0.2040749161535501 0  0.4991779197988497 0.2040749161535382 0  0.3347912413592433 0.1959225448935183 0  0.3199680582793816 0.1959123018030061 0  0.2825051229162361 0.1959834479681729 0  0.3590471196690275 0.2036304442587945 0  0.5571594006495384 0.1963685282145804 0  0.3067669986803285 0.203627750582736 0  0.4262598344738712 0.2036568242185335 0  0.5814408164431408 0.2041285596160068 0  0.5688286748170428 0.1961819304477386 0  0.4145905603063645 0.2038180695522843 0  0.3473758401724931 0.2038180695522752 0  0.2950977245128307 0.2038180695522663 0  0.5688286748170693 0.203818069552238 0  0.2950977245127906 0.1961819304477774 0  0.3473758401723931 0.1961819304478349 0  0.4145905603061963 0.1961819304479011 0  0.2601812407614425 0.2056861609747042
[...]
<PointData  Vectors="f_40-1"> 
<DataArray  type="Float64"  Name="f_40-1"  NumberOfComponents="3" format="ascii">0.0000000000000000e+00 0.0000000000000000e+00 0.0000000000000000e+00  0.0000000000000000e+00 0.0000000000000000e+00 0.0000000000000000e+00  0.0000000000000000e+00 0.0000000000000000e+00 0.0000000000000000e+00  0.0000000000000000e+00 0.0000000000000000e+00 0.0000000000000000e+00  7.5478551733885604e-06 -5.5346399914641840e-04 0.0000000000000000e+00  5.2728594964924774e-05 -5.5466082781451540e-04 0.0000000000000000e+00  0.0000000000000000e+00 0.0000000000000000e+00 0.0000000000000000e+00  0.0000000000000000e+00 0.0000000000000000e+00 0.0000000000000000e+00  0.0000000000000000e+00 0.0000000000000000e+00 0.0000000000000000e+00  0.0000000000000000e+00 0.0000000000000000e+00 0.0000000000000000e+00  2.9750083748661199e-05 -5.5405298019030194e-04 0.0000000000000000e+00  0.0000000000000000e+00 0.0000000000000000e+00 0.0000000000000000e+00  0.0000000000000000e+00 0.0000000000000000e+00 0.0000000000000000e+00  0.0000000000000000e+00 0.0000000000000000e+00 0.0000000000000000e+00  0.0000000000000000e+00 0.0000000000000000e+00 0.0000000000000000e+00  0.0000000000000000e+00 0.0000000000000000e+00 0.0000000000000000e+00  0.0000000000000000e+00 0.0000000000000000e+00 0.0000000000000000e+00  0.0000000000000000e+00 0.0000000000000000e+00 0.0000000000000000e+00  0.0000000000000000e+00 0.0000000000000000e+00 0.0000000000000000e+00  0.0000000000000000e+00 0.0000000000000000e+00 0.0000000000000000e+00  0.0000000000000000e+00 0.0000000000000000e+00 0.0000000000000000e+00  0.0000000000000000e+00 0.0000000000000000e+00 0.0000000000000000e+00  0.0000000000000000e+00 0.0000000000000000e+00 0.0000000000000000e+00  0.0000000000000000e+00 0.0000000000000000e+00 0.0000000000000000e+00  0.0000000000000000e+00 0.0000000000000000e+00 0.0000000000000000e+00  0.0000000000000000e+00 0.0000000000000000e+00 0.0000000000000000e+00  0.0000000000000000e+00 0.0000000000000000e+00 0.0000000000000000e+00  0.0000000000000000e+00 0.0000000000000000e+00 0.0000000000000000e+00  0.0000000000000000e+00 0.0000000000000000e+00 0.0000000000000000e+00  0.0000000000000000e+00 0.0000000000000000e+00 0.0000000000000000e+00  0.0000000000000000e+00 0.0000000000000000e+00 0.0000000000000000e+00  0.0000000000000000e+00 0.0000000000000000e+00 0.0000000000000000e+00  0.0000000000000000e+00 0.0000000000000000e+00 0.0000000000000000e+00  0.0000000000000000e+00 0.0000000000000000e+00 0.0000000000000000e+00  0.0000000000000000e+00 0.0000000000000000e+00 0.0000000000000000e+00  0.0000000000000000e+00 0.0000000000000000e+00 0.0000000000000000e+00  0.0000000000000000e+00 0.0000000000000000e+00 0.0000000000000000e+00  0.0000000000000000e+00 0.0000000000000000e+00 0.0000000000000000e+00  0.0000000000000000e+00 0.0000000000000000e+00 0.0000000000000000e+00  0.0000000000000000e+00 0.0000000000000000e+00 0.0000000000000000e+00  0.0000000000000000e+00 0.0000000000000000e+00 0.0000000000000000e+00  0.0000000000000000e+00 0.0000000000000000e+00 0.0000000000000000e+00  0.0000000000000000e+00 0.0000000000000000e+00 0.0000000000000000e+00  0.0000000000000000e+00 0.0000000000000000e+00 0.0000000000000000e+00  0.0000000000000000e+00 0.0000000000000000e+00 0.0000000000000000e+00  0.0000000000000000e+00 0.0000000000000000e+00 0.0000000000000000e+00  0.0000000000000000e+00 0.0000000000000000e+00 0.0000000000000000e+00  0.0000000000000000e+00 0.0000000000000000e+00 0.0000000000000000e+00  0.0000000000000000e+00 0.0000000000000000e+00 0.0000000000000000e+00  0.0000000000000000e+00 0.0000000000000000e+00 0.0000000000000000e+00  0.0000000000000000e+00 0.0000000000000000e+00 0.0000000000000000e+00  0.0000000000000000e+00 0.0000000000000000e+00 0.0000000000000000e+00  0.0000000000000000e+00 0.0000000000000000e+00 0.0000000000000000e+00  0.0000000000000000e+00 0.0000000000000000e+00 0.0000000000000000e+00  0.0000000000000000e+00 0.0000000000000000e+00 0.0000000000000000e+00  0.0000000000000000e+00 0.0000000000000000e+00 0.0000000000000000e+00  0.0000000000000000e+00 0.0000000000000000e+00 0.0000000000000000e+00  0.0000000000000000e+00 0.0000000000000000e+00 0.0000000000000000e+00  0.0000000000000000e+00 0.0000000000000000e+00 0.0000000000000000e+00  0.0000000000000000e+00 0.0000000000000000e+00 0.0000000000000000e+00  0.0000000000000000e+00 0.0000000000000000e+00 0.0000000000000000e+00  0.0000000000000000e+00 0.0000000000000000e+00 0.0000000000000000e+00  0.0000000000000000e+00 0.0000000000000000e+00 0.0000000000000000e+00  0.0000000000000000e+00 0.0000000000000000e+00 0.0000000000000000e+00  0.0000000000000000e+00 0.0000000000000000e+00 0.0000000000000000e+00  0.0000000000000000e+00 0.0000000000000000e+00 0.0000000000000000e+00  0.0000000000000000e+00 0.0000000000000000e+00 0.0000000000000000e+00  0.0000000000000000e+00 0.0000000000000000e+00 0.0000000000000000e+00  0.0000000000000000e+00 0.0000000000000000e+00 0.0000000000000000e+00  0.0000000000000000e+00 0.0000000000000000e+00 0.0000000000000000e+00  0.0000000000000000e+00 0.0000000000000000e+00 0.0000000000000000e+00  0.0000000000000000e+00 0.0000000000000000e+00 0.0000000000000000e+00  0.0000000000000000e+00 0.0000000000000000e+00 0.0000000000000000e+00  0.0000000000000000e+00 0.0000000000000000e+00 0.0000000000000000e+00  0.0000000000000000e+00 0.0000000000000000e+00 0.0000000000000000e+00  0.0000000000000000e+00 0.0000000000000000e+00 0.0000000000000000e+00  0.0000000000000000e+00 0.0000000000000000e+00 0.0000000000000000e+00  0.0000000000000000e+00 0.0000000000000000e+00 0.0000000000000000e+00  0.0000000000000000e+00 0.0000000000000000e+00 0.0000000000000000e+00  0.0000000000000000e+00 0.0000000000000000e+00 0.0000000000000000e+00  0.0000000000000000e+00 0.0000000000000000e+00 0.0000000000000000e+00  0.0000000000000000e+00 0.0000000000000000e+00 0.0000000000000000e+00  0.0000000000000000e+00 0.0000000000000000e+00 0.0000000000000000e+00  0.0000000000000000e+00 0.0000000000000000e+00 0.0000000000000000e+00  0.0000000000000000e+00 0.0000000000000000e+00 0.0000000000000000e+00  0.0000000000000000e+00 0.0000000000000000e+00 0.0000000000000000e+00  0.0000000000000000e+00 0.0000000000000000e+00 0.0000000000000000e+00  0.0000000000000000e+00 0.0000000000000000e+00 0.0000000000000000e+00  0.0000000000000000e+00 0.0000000000000000e+00 0.0000000000000000e+00  0.0000000000000000e+00 0.0000000000000000e+00 0.0000000000000000e+00  0.0000000000000000e+00 0.0000000000000000e+00 0.0000000000000000e+00  0.0000000000000000e+00 0.0000000000000000e+00 0.0000000000000000e+00  0.0000000000000000e+00 0.0000000000000000e+00 0.0000000000000000e+00  0.0000000000000000e+00 0.0000000000000000e+00 0.0000000000000000e+00  0.0000000000000000e+00 0.0000000000000000e+00 0.0000000000000000e+00  0.0000000000000000e+00 0.0000000000000000e+00 0.0000000000000000e+00  0.0000000000000000e+00 0.0000000000000000e+00 0.0000000000000000e+00  0.0000000000000000e+00 0.0000000000000000e+00 0.0000000000000000e+00  0.0000000000000000e+00 0.0000000000000000e+00 0.0000000000000000e+00  0.0000000000000000e+00 0.0000000000000000e+00 0.0000000000000000e+00  0.0000000000000000e+00 0.0000000000000000e+00 0.0000000000000000e+00  0.0000000000000000e+00 0.0000000000000000e+00 0.0000000000000000e+00  0.0000000000000000e+00 0.0000000000000000e+00 0.0000000000000000e+00  0.0000000000000000e+00 0.0000000000000000e+00 0.0000000000000000e+00  0.0000000000000000e+00 0.0000000000000000e+00 0.0000000000000000e+00  0.0000000000000000e+00 0.0000000000000000e+00 0.0000000000000000e+00  0.0000000000000000e+00 0.0000000000000000e+00 0.0000000000000000e+00  0.0000000000000000e+00 0.0000000000000000e+00 0.0000000000000000e+00  0.0000000000000000e+00 0.0000000000000000e+00 0.0000000000000000e+00  0.0000000000000000e+00 0.0000000000000000e+00 0.0000000000000000e+00  0.0000000000000000e+00 0.0000000000000000e+00 0.0000000000000000e+00  0.0000000000000000e+00 0.0000000000000000e+00 0.0000000000000000e+00  0.0000000000000000e+00 0.0000000000000000e+00 0.0000000000000000e+00  0.0000000000000000e+00 0.0000000000000000e+00 0.0000000000000000e+00  0.0000000000000000e+00 0.0000000000000000e+00 0.0000000000000000e+00  0.0000000000000000e+00 0.0000000000000000e+00 0.0000000000000000e+00  0.0000000000000000e+00 0.0000000000000000e+00 0.0000000000000000e+00  0.0000000000000000e+00 0.0000000000000000e+00 0.0000000000000000e+00  0.0000000000000000e+00 0.0000000000000000e+00 0.0000000000000000e+00  0.0000000000000000e+00 0.0000000000000000e+00 0.0000000000000000e+00  0.0000000000000000e+00 0.0000000000000000e+00 0.0000000000000000e+00  0.0000000000000000e+00 0.0000000000000000e+00 0.0000000000000000e+00  0.0000000000000000e+00 0.0000000000000000e+00 0.0000000000000000e+00  0.0000000000000000e+00 0.0000000000000000e+00 0.0000000000000000e+00  0.0000000000000000e+00 0.0000000000000000e+00 0.0000000000000000e+00  0.0000000000000000e+00 0.0000000000000000e+00 0.0000000000000000e+00  0.0000000000000000e+00 0.0000000000000000e+00 0.0000000000000000e+00  0.0000000000000000e+00 0.0000000000000000e+00 0.0000000000000000e+00  0.0000000000000000e+00 0.0000000000000000e+00 0.0000000000000000e+00  0.0000000000000000e+00 0.0000000000000000e+00 0.0000000000000000e+00  0.0000000000000000e+00 0.0000000000000000e+00 0.0000000000000000e+00  0.0000000000000000e+00 0.0000000000000000e+00 0.0000000000000000e+00  0.0000000000000000e+00 0.0000000000000000e+00 0.0000000000000000e+00  0.0000000000000000e+00 0.0000000000000000e+00 0.0000000000000000e+00  0.0000000000000000e+00 0.0000000000000000e+00 0.0000000000000000e+00  0.0000000000000000e+00 0.0000000000000000e+00 0.0000000000000000e+00  0.0000000000000000e+00 0.0000000000000000e+00 0.0000000000000000e+00  0.0000000000000000e+00 0.0000000000000000e+00 0.0000000000000000e+00  0.0000000000000000e+00 0.0000000000000000e+00 0.0000000000000000e+00  0.0000000000000000e+00 0.0000000000000000e+00 0.0000000000000000e+00  0.0000000000000000e+00 0.0000000000000000e+00 0.0000000000000000e+00  0.0000000000000000e+00 0.0000000000000000e+00 0.0000000000000000e+00  0.0000000000000000e+00 0.0000000000000000e+00 0.0000000000000000e+00  1.6359082515329045e-06 -1.8900329503801359e-06 0.0000000000000000e+00  3.5043924468391536e-06 -2.9268891186496328e-06 0.0000000000000000e+00  5.3894700169197163e-06 -4.6046726827821883e-06 0.0000000000000000e+00  7.4434167505428377e-06 -6.9951196806590733e-06 0.0000000000000000e+00  9.3634262936139985e-06 -1.0079623081113083e-05 0.0000000000000000e+00  1.1460773200742299e-05 -1.3933924724354168e-05 0.0000000000000000e+00  1.3357786849480182e-05 -1.8379660142067741e-05 0.0000000000000000e+00  1.5256815947800559e-05 -2.3619618773297858e-05 0.0000000000000000e+00  1.7314536352818466e-05 -2.9483748657344244e-05 0.0000000000000000e+00  1.9124921527966859e-05 -3.6017183454770754e-05 0.0000000000000000e+00  2.1135809490957735e-05 -4.3230439154806559e-05 0.0000000000000000e+00  2.2881580304229132e-05 -5.1073753536314859e-05 0.0000000000000000e+00  2.4774793372420712e-05 -5.9543992690801775e-05 0.0000000000000000e+00  2.6462464397253290e-05 -6.8536073949945772e-05 0.0000000000000000e+00  2.8117738399314531e-05 -7.8183152027475901e-05 0.0000000000000000e+00  2.9868310907475589e-05 -8.8333575686328980e-05 0.0000000000000000e+00  3.1384434915754096e-05 -9.9007972089320141e-05 0.0000000000000000e+00  3.3021824667845521e-05 -1.1022176769910074e-04 0.0000000000000000e+00  3.4428027372303795e-05 -1.2188987371396852e-04 0.0000000000000000e+00  3.5925323798251977e-05 -1.3402624984402501e-04 0.0000000000000000e+00  3.7245462428440707e-05 -1.4659231500160027e-04 0.0000000000000000e+00  3.8602427018109716e-05 -1.5960121319766950e-04 0.0000000000000000e+00  3.9802727575677335e-05 -1.7293254004362794e-04 0.0000000000000000e+00  4.0949294213838612e-05 -1.8667914988742149e-04 0.0000000000000000e+00  4.2120254197533787e-05 -2.0071961590508144e-04 0.0000000000000000e+00  4.3161633101862672e-05 -2.1508363399014464e-04 0.0000000000000000e+00  4.4167584843798660e-05 -2.2976437582692097e-04 0.0000000000000000e+00  4.5086815385139150e-05 -2.4467741432078591e-04 0.0000000000000000e+00  4.5967657955027005e-05 -2.5986712145097601e-04 0.0000000000000000e+00  4.6765526624473613e-05 -2.7524743273184965e-04 0.0000000000000000e+00  4.7523539436932276e-05 -2.9085752278342673e-04 0.0000000000000000e+00  4.8204723400688047e-05 -3.0661491201869632e-04 0.0000000000000000e+00  4.8846511069296183e-05 -3.2256375294252386e-04 0.0000000000000000e+00  4.9413145135700539e-05 -3.3862343329176144e-04 0.0000000000000000e+00  4.9940444892594349e-05 -3.5484148439318398e-04 0.0000000000000000e+00  5.0402408581657476e-05 -3.7113738760449083e-04 0.0000000000000000e+00  5.0827098340467252e-05 -3.8755386842502678e-04 0.0000000000000000e+00  5.1189622553858285e-05 -4.0402718663078353e-04 0.0000000000000000e+00  5.1512303859402942e-05 -4.2059537686425601e-04 0.0000000000000000e+00  5.1778671643296946e-05 -4.3719736721322240e-04 0.0000000000000000e+00  5.2004994681714631e-05 -4.5386584081665954e-04 0.0000000000000000e+00  5.2177440757705268e-05 -4.7055807189951324e-04 0.0000000000000000e+00  5.2312067432370773e-05 -4.8729318185212258e-04 0.0000000000000000e+00  5.2415495607659295e-05 -5.0404019183261694e-04 0.0000000000000000e+00  5.2482286893582414e-05 -5.2079334943830357e-04 0.0000000000000000e+00  5.2526198309457328e-05 -5.3760866798771957e-04 0.0000000000000000e+00  4.1085622361991909e-05 -5.5432847421908900e-04 0.0000000000000000e+00  1.8556502860897674e-05 -5.5376828589346748e-04 0.0000000000000000e+00  7.4524949291161459e-06 -5.3679830846610575e-04 0.0000000000000000e+00  7.4433425755650264e-06 -5.1994959113270455e-04 0.0000000000000000e+00  7.4462257381459657e-06 -5.0308238545320784e-04 0.0000000000000000e+00  7.4096089570158441e-06 -4.8625182317312476e-04 0.0000000000000000e+00  7.3594716202159277e-06 -4.6945250435480106e-04 0.0000000000000000e+00  7.2718045511479255e-06 -4.5268187015763331e-04 0.0000000000000000e+00  7.1876039401822831e-06 -4.3595407205971264e-04 0.0000000000000000e+00  7.0505108196424076e-06 -4.1926798883500283e-04 0.0000000000000000e+00  6.9301100081906458e-06 -4.0265374905035245e-04 0.0000000000000000e+00  6.7516152647955386e-06 -3.8609432512722443e-04 0.0000000000000000e+00  6.5948974015257825e-06 -3.6963184427274269e-04 0.0000000000000000e+00  6.3842830144972774e-06 -3.5325148976295622e-04 0.0000000000000000e+00  6.2047871271044509e-06 -3.3699119030278294e-04 0.0000000000000000e+00  5.9681866027909587e-06 -3.2084273367251163e-04 0.0000000000000000e+00  5.7739810494363239e-06 -3.0485453265797000e-04 0.0000000000000000e+00  5.5155922458186835e-06 -2.8900856800045417e-04 0.0000000000000000e+00  5.3131543824736762e-06 -2.7336019372570551e-04 0.0000000000000000e+00  5.0347528147267100e-06 -2.5789348948478222e-04 0.0000000000000000e+00  4.8386263969603204e-06 -2.4266424617525978e-04 0.0000000000000000e+00  4.5451174507522740e-06 -2.2766401507075230e-04 0.0000000000000000e+00  4.3610230999432469e-06 -2.1295158701562490e-04 0.0000000000000000e+00  4.0568539945982296e-06 -1.9851205922194416e-04 0.0000000000000000e+00  3.8680743862455865e-06 -1.8440812861744287e-04 0.0000000000000000e+00  3.5815626009129956e-06 -1.7060532346190339e-04 0.0000000000000000e+00  3.3012795523155198e-06 -1.5721915631079225e-04 0.0000000000000000e+00  3.1035041274279175e-06 -1.4415594073810848e-04 0.0000000000000000e+00  2.8592332881899117e-06 -1.3153927493149913e-04 0.0000000000000000e+00  2.6469877720429487e-06 -1.1934795219490510e-04 0.0000000000000000e+00  2.3993598748287533e-06 -1.0762100846634705e-04 0.0000000000000000e+00  2.1944055443003900e-06 -9.6384071601906483e-05 0.0000000000000000e+00  1.9607690778302340e-06 -8.5626354410940343e-05 0.0000000000000000e+00  1.8198102998150665e-06 -7.5473562487085312e-05 0.0000000000000000e+00  1.5687943355767466e-06 -6.5786799001913755e-05 0.0000000000000000e+00  1.3060302009431133e-06 -5.6767620902011914e-05 0.0000000000000000e+00  1.1832933875339956e-06 -4.8231421862976728e-05 0.0000000000000000e+00  9.8433105910958209e-07 -4.0387433640740867e-05 0.0000000000000000e+00  8.5709123326195635e-07 -3.3156564898234071e-05 0.0000000000000000e+00  6.7523544624769875e-07 -2.6584818731267493e-05 0.0000000000000000e+00  6.2619323368917210e-07 -2.0759661289656649e-05 0.0000000000000000e+00  4.2761993043930376e-07 -1.5507829974930620e-05 0.0000000000000000e+00  2.2556239463963780e-07 -1.1068874811246988e-05 0.0000000000000000e+00  1.9890097966756810e-07 -7.2037155979829316e-06 0.0000000000000000e+00  4.9479907763803639e-08 -4.1121167545102531e-06 0.0000000000000000e+00  3.7465792613158613e-08 -1.7471054395327927e-06 0.0000000000000000e+00  -8.1012653659877296e-08 -1.3269430710806551e-07 0.0000000000000000e+00  -5.1206297023781395e-09 7.0456992238721301e-07 0.0000000000000000e+00  1.0865716558447687e-06 -5.7141508726602513e-07 0.0000000000000000e+00  3.0131083239458312e-05 -5.2874117641373767e-04 0.0000000000000000e+00  3.0316212838027200e-05 -4.9660841834197928e-04 0.0000000000000000e+00  2.9762243102434075e-05 -4.4429686459093048e-04 0.0000000000000000e+00  3.2088828216087919e-06 -3.8100239100599395e-06 0.0000000000000000e+00  2.9119605253914614e-05 -4.1158262658576013e-04 0.0000000000000000e+00  5.1590690985878839e-06 -9.6745783522347466e-06 0.0000000000000000e+00  2.8593524800014012e-05 -3.7853294902663977e-04 0.0000000000000000e+00  8.3786128565380012e-06 -2.4801503176241703e-05 0.0000000000000000e+00  1.0502725989378618e-05 -3.7702122567204920e-05 0.0000000000000000e+00  2.7935943460659176e-05 -3.4583356502508074e-04 0.0000000000000000e+00  1.5260297935593226e-05 -8.1887256614840255e-05 0.0000000000000000e+00  2.6230257448770725e-05 -2.8196892291910123e-04 0.0000000000000000e+00  1.2293088012319432e-05 -5.2713206335308067e-05 0.0000000000000000e+00  1.7214760711004610e-05 -1.0292718271808126e-04 0.0000000000000000e+00  2.5183907786641484e-05 -2.5109248033479740e-04 0.0000000000000000e+00  2.7148110656586956e-05 -3.1359895822480739e-04 0.0000000000000000e+00  1.8926448610339680e-05 -1.2635219539125508e-04 0.0000000000000000e+00  2.4007581320419657e-05 -2.2114853470991180e-04 0.0000000000000000e+00  2.0241265367191747e-05 -1.5050012791600518e-04 0.0000000000000000e+00  2.2978796592849026e-05 -1.9291811288779751e-04 0.0000000000000000e+00  2.1576309098433736e-05 -1.7048225724303309e-04 0.0000000000000000e+00  1.3912317400817882e-05 -6.6074188839459049e-05 0.0000000000000000e+00  2.9674546240083731e-05 -4.7145364315323275e-04 0.0000000000000000e+00  6.7838262196993262e-06 -1.6218019553826477e-05 0.0000000000000000e+00  2.2349377681532860e-05 -5.1240029993974924e-04 0.0000000000000000e+00  1.3292207784793187e-06 -1.3527870923493236e-06 0.0000000000000000e+00  2.2452975618026773e-05 -3.9482394308318618e-04 0.0000000000000000e+00  2.2861826490492480e-05 -4.2802896914990389e-04 0.0000000000000000e+00  5.7003823624219942e-06 -7.0992451555774835e-06 0.0000000000000000e+00  1.2025351177567119e-05 -3.1278691104095204e-05 0.0000000000000000e+00  2.0569531915948691e-05 -2.9745300877741216e-04 0.0000000000000000e+00  2.1931585661929341e-05 -3.6191939010141985e-04 0.0000000000000000e+00  2.0478621216843743e-05 -9.2371444970772089e-05 0.0000000000000000e+00  1.9737344318197212e-05 -2.6616572696613725e-04 0.0000000000000000e+00  1.4544830880612193e-05 -4.5714731693442546e-05 0.0000000000000000e+00  2.2616441688232763e-05 -1.1482068515540409e-04 0.0000000000000000e+00  1.8809175077401567e-05 -2.3571808440083883e-04 0.0000000000000000e+00  2.1302471486300133e-05 -3.2941860591453696e-04 0.0000000000000000e+00  2.5681208159899494e-05 -1.3908889132733463e-04 0.0000000000000000e+00  1.7784302065356375e-05 -2.0629731202369611e-04 0.0000000000000000e+00  5.1094934779835642e-07 -4.0562866003947038e-07 0.0000000000000000e+00  2.1451747648487016e-07 2.2148197533378663e-07 0.0000000000000000e+00  3.5278014696361570e-05 -5.4207896026323144e-04 0.0000000000000000e+00  3.0511719027826140e-06 -2.4804265533550496e-06 0.0000000000000000e+00  1.5543