<?xml version="1.0"?>
<VTKFile type="UnstructuredGrid"  version="0.1"  >
<UnstructuredGrid>
<Piece  NumberOfPoints="1419" NumberOfCells="2698">
<Points>
<DataArray  type="Float64"  NumberOfComponents="3"  format="ascii">0 0 0  0 0.41 0  2.5 0 0  2.5 0.41 0  0.6 0.19 0  0.6 0.21 0  0.25 0.2 0  0.15 0.2 0  0.2489897948556636 0.21 0  0.2489897948556636 0.19 0  0.6 0.2 0  0 0.3807142857143437 0  0 0.3514285714286952 0  0 0.3221428571430699 0  0 0.29285714285744 0  0 0.2635714285718054 0  0 0.2342857142861561 0  0 0.2050000000005308 0  0 0.175714285714732 0  0 0.1464285714289574 0  0 0.1171428571431897 0  0 0.08785714285737878 0  0 0.05857142857161107 0  0 0.02928571428580012 0  0.03015443760436003 0 0  0.06140001986583606 0 0  0.09377624077125973 0 0  0.1273239957535082 0 0  0.1620856860351972 0 0  0.1981052433264291 0 0  0.235428184091502 0 0  0.2741016576309132 0 0  0.3141745521465447 0 0  0.3556974926295285 0 0  0.3987229542472677 0 0  0.4433053055141081 0 0  0.4895008759286886 0 0  0.5373680609405097 0 0  0.5869673343216626 0 0  0.6383613676634521 0 0  0.6916151138468254 0 0  0.7467958595648856 0 0  0.8039733463919316 0 0  0.8632198139502143 0 0  0.9246101326867038 0 0  0.9882218810934433 0 0  1.054135445558498 0 0  1.122434100542598 0 0  1.193204177141305 0 0  1.266535089879536 0 0  1.342519516046404 0 0  1.421253448503939 0 0  1.502836389106271 0 0  1.587371439758838 0 0  1.674965418777374 0 0  1.765729001825544 0 0  1.859776908880082 0 0  1.957227977487062 0 0  2.058205329869943 0 0  2.162836591189951 0 0  2.271253957290865 0 0  2.383594446803425 0 0  2.5 0.1024999999997612 0  2.5 0.2049999999994743 0  2.5 0.3074999999997183 0  2.383594446803656 0.41 0  2.271253957291315 0.41 0  2.162836591190598 0.41 0  2.058205329870775 0.41 0  1.957227977488067 0.41 0  1.859776908881246 0.41 0  1.765729001826854 0.41 0  1.674965418778818 0.41 0  1.58737143976041 0.41 0  1.502836389107956 0.41 0  1.421253448505726 0.41 0  1.342519516048286 0.41 0  1.266535089881505 0.41 0  1.193204177143353 0.41 0  1.122434100544716 0.41 0  1.05413544556068 0.41 0  0.9882218810956305 0.41 0  0.9246101326886647 0.41 0  0.8632198139519631 0.41 0  0.8039733463934788 0.41 0  0.7467958595662458 0.41 0  0.6916151138480078 0.41 0  0.6383613676644679 0.41 0  0.5869673343225223 0.41 0  0.5373680609412221 0.41 0  0.4895008759292634 0.41 0  0.4433053055145528 0.41 0  0.3987229542475914 0.41 0  0.3556974926297398 0.41 0  0.3141745521466497 0.41 0  0.2741016576310038 0.41 0  0.2354281840915826 0.41 0  0.1981052433265003 0.41 0  0.1620856860352591 0.41 0  0.1273239957535623 0.41 0  0.09377624077128965 0.41 0  0.06140001986584975 0.41 0  0.03015443760436654 0.41 0  0.2497468076502589 0.2050254481002335 0  0.2497468076502614 0.1949745518997913 0  0.2469965252529372 0.1829317073451959 0  0.2439893735792749 0.1762316384219906 0  0.2400332147834255 0.1700443375285386 0  0.2352133972704371 0.1645032867342007 0  0.2296339016332438 0.1597280261969788 0  0.2234150974217223 0.1558215752574715 0  0.2166911463437691 0.1528682099456123 0  0.2096071079204251 0.1509316448471593 0  0.2023158100364996 0.1500536585536553 0  0.194974551899914 0.1502531923497262 0  0.1877417105387872 0.1515259415822739 0  0.1807733240461124 0.153844448527136 0  0.1742197252835808 0.15715869474974 0  0.1682222986673531 0.1613971801805478 0  0.162910430003803 0.1664684656256651 0  0.1583987151779087 0.1722631454351573 0  0.1547844879126891 0.178656207771761 0  0.1521457199348551 0.1855097315605723 0  0.1505393388476355 0.1926758619366523 0  0.1505393388476328 0.2073241380633295 0  0.1521457199348437 0.2144902684393899 0  0.1547844879126531 0.221343792228163 0  0.1583987151778488 0.2277368545647528 0  0.1629104300036858 0.2335315343742052 0  0.1682222986671726 0.2386028198193036 0  0.1742197252833576 0.2428413052501257 0  0.1807733240458683 0.2461555514727623 0  0.1877417105384929 0.2484740584176516 0  0.1949745518995776 0.2497468076502398 0  0.202315810036185 0.2499463414463592 0  0.2096071079201568 0.2490683551528932 0  0.2166911463435495 0.2471317900544655 0  0.2234150974215506 0.2441784247426195 0  0.2296339016331197 0.2402719738031125 0  0.2352133972703547 0.2354967132658811 0  0.2400332147833751 0.2299556624715287 0  0.2439893735792577 0.2237683615780412 0  0.246996525252926 0.2170682926548348 0  0.25645809709277 0.21 0  0.2639263993298655 0.21 0  0.271394701566961 0.21 0  0.2788630038040554 0.21 0  0.2863313060411479 0.21 0  0.2937996082782405 0.21 0  0.301267910515333 0.21 0  0.3087362127524279 0.21 0  0.3162045149895234 0.21 0  0.3236728172265972 0.21 0  0.3311411194636928 0.21 0  0.3386094217007701 0.21 0  0.3460777239378666 0.21 0  0.3535460261749672 0.21 0  0.3610143284120516 0.21 0  0.3684826306491596 0.21 0  0.3759509328862226 0.21 0  0.383419235123329 0.21 0  0.3908875373604028 0.21 0  0.3983558395975142 0.21 0  0.4058241418345938 0.21 0  0.4132924440716992 0.21 0  0.4207607463087888 0.21 0  0.4282290485459029 0.21 0  0.4356973507830418 0.21 0  0.4431656530201649 0.21 0  0.4506339552573136 0.21 0  0.4581022574944306 0.21 0  0.4655705597315852 0.21 0  0.4730388619686996 0.21 0  0.480507164205851 0.21 0  0.4879754664429498 0.21 0  0.4954437686800938 0.21 0  0.502912070917267 0.21 0  0.5103803731544119 0.21 0  0.5178486753915261 0.21 0  0.5253169776286404 0.21 0  0.5327852798657868 0.21 0  0.5402535821029386 0.21 0  0.54772188434007 0.21 0  0.5551901865771842 0.21 0  0.5626584888143201 0.21 0  0.5701267910514778 0.21 0  0.5775950932886138 0.21 0  0.5850633955257281 0.21 0  0.5925316977628483 0.21 0  0.6 0.2050000000000054 0  0.6 0.1950000000000217 0  0.5925316977628897 0.19 0  0.5850633955257988 0.19 0  0.5775950932887378 0.19 0  0.5701267910515998 0.19 0  0.5626584888145268 0.19 0  0.5551901865773963 0.19 0  0.547721884340339 0.19 0  0.5402535821032429 0.19 0  0.5327852798661811 0.19 0  0.5253169776290537 0.19 0  0.5178486753919799 0.19 0  0.5103803731549078 0.19 0  0.502912070917822 0.19 0  0.4954437686807294 0.19 0  0.4879754664436223 0.19 0  0.4805071642065402 0.19 0  0.4730388619694271 0.19 0  0.4655705597323621 0.19 0  0.4581022574952563 0.19 0  0.4506339552581777 0.19 0  0.4431656530210671 0.19 0  0.4356973507839815 0.19 0  0.4282290485468779 0.19 0  0.4207607463097617 0.19 0  0.4132924440726327 0.19 0  0.4058241418354857 0.19 0  0.3983558395983636 0.19 0  0.3908875373612097 0.19 0  0.3834192351240934 0.19 0  0.3759509328869369 0.19 0  0.3684826306498175 0.19 0  0.361014328412667 0.19 0  0.3535460261755617 0.19 0  0.3460777239384295 0.19 0  0.3386094217012945 0.19 0  0.3311411194641595 0.19 0  0.3236728172270245 0.19 0  0.3162045149898895 0.19 0  0.3087362127527544 0.19 0  0.3012679105156187 0.19 0  0.2937996082784807 0.19 0  0.2863313060413428 0.19 0  0.2788630038042048 0.19 0  0.2713947015670686 0.19 0  0.2639263993299336 0.19 0  0.2564580970927985 0.19 0  0.2607803159922026 0.2000727136295815 0  0.5887803774232762 0.2001272386983733 0  0.5745072403740523 0.2002044435018727 0  0.5511891430099709 0.2001122610077113 0  0.2751288526855082 0.20000000000002 0  0.5365194309847112 0.1999999999999436 0  0.2894621222999649 0.1998691686390484 0  0.5215828265105155 0.1999999999999228 0  0.3127789816668748 0.1998657885438805 0  0.3274069683451451 0.2000000000000796 0  0.5066462220363641 0.199999999999908 0  0.3650630746574081 0.199866017807523 0  0.476773013087985 0.1999999999998713 0  0.3417402379596385 0.1998691686391011 0  0.3796850840047755 0.200000000000134 0  0.4618364086138087 0.1999999999998546 0  0.4917096175621762 0.1999999999998808 0  0.3946216884789568 0.2000000000001512 0  0.446899804139621 0.1999999999998389 0  0.4089549580935208 0.1998691686391595 0  0.4322718174608562 0.200127451265745 0  0.4201487168029707 0.1999966199048527 0  0.3528922713220932 0.2000185703532356 0  0.5633122436674589 0.1999814296467508 0  0.3006558810093873 0.1999966199048318 0  0.5815926498168407 0.1966545283159175 0  0.2677053789419034 0.1964246479135325 0  0.5290511287476175 0.1970915826863981 0  0.5439877332217911 0.197091582686394 0  0.2825131256993216 0.2035478995978015 0  0.3199386661080599 0.202908417313604 0  0.4842413153250809 0.1970915826863873 0  0.5141145242734466 0.1970915826863843 0  0.3722167817676917 0.2029084173136195 0  0.4693047108508938 0.1970915826863783 0  0.3348752705822316 0.202908417313609 0  0.3871533862418661 0.2029084173136212 0  0.4543681063767183 0.1970915826863795 0  0.4991779197992749 0.1970915826863902 0  0.4020059614928624 0.203547899597858 0  0.4394315019025246 0.1970915826863714 0  0.2550657455369551 0.2034088125358657 0  0.2548908499171161 0.1966940311614271 0  0.5946539510196798 0.2024302972968126 0  0.267698176732111 0.2039977513680092 0  0.4261685417851465 0.196409292431739 0  0.3590076176283495 0.196411355804271 0  0.5571672426447437 0.2036011176410121 0  0.3066757059912147 0.1964092924317024 0  0.594380730180568 0.1966558399668133 0  0.4842413153245942 0.2040749161535287 0  0.4693047108503577 0.2040749161535231 0  0.3871533862424271 0.1959250838464788 0  0.372246743208829 0.1959123236376545 0  0.5141145242731028 0.2040749161535395 0  0.4543681063761134 0.2040749161535186 0  0.4019979587101454 0.1959834479682427 0  0.4394608940728603 0.2040870543693135 0  0.5439623148931173 0.2040856076781014 0  0.5290511287473298 0.2040749161535501 0  0.4991779197988497 0.2040749161535382 0  0.3347912413592433 0.1959225448935183 0  0.3199680582793816 0.1959123018030061 0  0.2825051229162361 0.1959834479681729 0  0.3590471196690275 0.2036304442587945 0  0.5571594006495384 0.1963685282145804 0  0.3067669986803285 0.203627750582736 0  0.4262598344738712 0.2036568242185335 0  0.5814408164431408 0.2041285596160068 0  0.5688286748170428 0.1961819304477386 0  0.4145905603063645 0.2038180695522843 0  0.3473758401724931 0.2038180695522752 0  0.2950977245128307 0.2038180695522663 0  0.5688286748170693 0.203818069552238 0  0.2950977245127906 0.1961819304477774 0  0.3473758401723931 0.1961819304478349 0  0.4145905603061963 0.1961819304479011 0  0.2601812407614425 0.2056861609747042
[...]
<PointData  Vectors="f_40-1"> 
<DataArray  type="Float64"  Name="f_40-1"  NumberOfComponents="3" format="ascii">0.0000000000000000e+00 0.0000000000000000e+00 0.0000000000000000e+00  0.0000000000000000e+00 0.0000000000000000e+00 0.0000000000000000e+00  0.0000000000000000e+00 0.0000000000000000e+00 0.0000000000000000e+00  0.0000000000000000e+00 0.0000000000000000e+00 0.0000000000000000e+00  -7.9890238373790332e-08 3.0536013554400235e-09 0.0000000000000000e+00  -7.9166641847626696e-08 -6.7992727987919725e-09 0.0000000000000000e+00  0.0000000000000000e+00 0.0000000000000000e+00 0.0000000000000000e+00  0.0000000000000000e+00 0.0000000000000000e+00 0.0000000000000000e+00  0.0000000000000000e+00 0.0000000000000000e+00 0.0000000000000000e+00  0.0000000000000000e+00 0.0000000000000000e+00 0.0000000000000000e+00  -7.9724996499599758e-08 -1.8488937464547518e-09 0.0000000000000000e+00  0.0000000000000000e+00 0.0000000000000000e+00 0.0000000000000000e+00  0.0000000000000000e+00 0.0000000000000000e+00 0.0000000000000000e+00  0.0000000000000000e+00 0.0000000000000000e+00 0.0000000000000000e+00  0.0000000000000000e+00 0.0000000000000000e+00 0.0000000000000000e+00  0.0000000000000000e+00 0.0000000000000000e+00 0.0000000000000000e+00  0.0000000000000000e+00 0.0000000000000000e+00 0.0000000000000000e+00  0.0000000000000000e+00 0.0000000000000000e+00 0.0000000000000000e+00  0.0000000000000000e+00 0.0000000000000000e+00 0.0000000000000000e+00  0.0000000000000000e+00 0.0000000000000000e+00 0.0000000000000000e+00  0.0000000000000000e+00 0.0000000000000000e+00 0.0000000000000000e+00  0.0000000000000000e+00 0.0000000000000000e+00 0.0000000000000000e+00  0.0000000000000000e+00 0.0000000000000000e+00 0.0000000000000000e+00  0.0000000000000000e+00 0.0000000000000000e+00 0.0000000000000000e+00  0.0000000000000000e+00 0.0000000000000000e+00 0.0000000000000000e+00  0.0000000000000000e+00 0.0000000000000000e+00 0.0000000000000000e+00  0.0000000000000000e+00 0.0000000000000000e+00 0.0000000000000000e+00  0.0000000000000000e+00 0.0000000000000000e+00 0.0000000000000000e+00  0.0000000000000000e+00 0.0000000000000000e+00 0.0000000000000000e+00  0.0000000000000000e+00 0.0000000000000000e+00 0.0000000000000000e+00  0.0000000000000000e+00 0.0000000000000000e+00 0.0000000000000000e+00  0.0000000000000000e+00 0.0000000000000000e+00 0.0000000000000000e+00  0.0000000000000000e+00 0.0000000000000000e+00 0.0000000000000000e+00  0.0000000000000000e+00 0.0000000000000000e+00 0.0000000000000000e+00  0.0000000000000000e+00 0.0000000000000000e+00 0.0000000000000000e+00  0.0000000000000000e+00 0.0000000000000000e+00 0.0000000000000000e+00  0.0000000000000000e+00 0.0000000000000000e+00 0.0000000000000000e+00  0.0000000000000000e+00 0.0000000000000000e+00 0.0000000000000000e+00  0.0000000000000000e+00 0.0000000000000000e+00 0.0000000000000000e+00  0.0000000000000000e+00 0.0000000000000000e+00 0.0000000000000000e+00  0.0000000000000000e+00 0.0000000000000000e+00 0.0000000000000000e+00  0.0000000000000000e+00 0.0000000000000000e+00 0.0000000000000000e+00  0.0000000000000000e+00 0.0000000000000000e+00 0.0000000000000000e+00  0.0000000000000000e+00 0.0000000000000000e+00 0.0000000000000000e+00  0.0000000000000000e+00 0.0000000000000000e+00 0.0000000000000000e+00  0.0000000000000000e+00 0.0000000000000000e+00 0.0000000000000000e+00  0.0000000000000000e+00 0.0000000000000000e+00 0.0000000000000000e+00  0.0000000000000000e+00 0.0000000000000000e+00 0.0000000000000000e+00  0.0000000000000000e+00 0.0000000000000000e+00 0.0000000000000000e+00  0.0000000000000000e+00 0.0000000000000000e+00 0.0000000000000000e+00  0.0000000000000000e+00 0.0000000000000000e+00 0.0000000000000000e+00  0.0000000000000000e+00 0.0000000000000000e+00 0.0000000000000000e+00  0.0000000000000000e+00 0.0000000000000000e+00 0.0000000000000000e+00  0.0000000000000000e+00 0.0000000000000000e+00 0.0000000000000000e+00  0.0000000000000000e+00 0.0000000000000000e+00 0.0000000000000000e+00  0.0000000000000000e+00 0.0000000000000000e+00 0.0000000000000000e+00  0.0000000000000000e+00 0.0000000000000000e+00 0.0000000000000000e+00  0.0000000000000000e+00 0.0000000000000000e+00 0.0000000000000000e+00  0.0000000000000000e+00 0.0000000000000000e+00 0.0000000000000000e+00  0.0000000000000000e+00 0.0000000000000000e+00 0.0000000000000000e+00  0.0000000000000000e+00 0.0000000000000000e+00 0.0000000000000000e+00  0.0000000000000000e+00 0.0000000000000000e+00 0.0000000000000000e+00  0.0000000000000000e+00 0.0000000000000000e+00 0.0000000000000000e+00  0.0000000000000000e+00 0.0000000000000000e+00 0.0000000000000000e+00  0.0000000000000000e+00 0.0000000000000000e+00 0.0000000000000000e+00  0.0000000000000000e+00 0.0000000000000000e+00 0.0000000000000000e+00  0.0000000000000000e+00 0.0000000000000000e+00 0.0000000000000000e+00  0.0000000000000000e+00 0.0000000000000000e+00 0.0000000000000000e+00  0.0000000000000000e+00 0.0000000000000000e+00 0.0000000000000000e+00  0.0000000000000000e+00 0.0000000000000000e+00 0.0000000000000000e+00  0.0000000000000000e+00 0.0000000000000000e+00 0.0000000000000000e+00  0.0000000000000000e+00 0.0000000000000000e+00 0.0000000000000000e+00  0.0000000000000000e+00 0.0000000000000000e+00 0.0000000000000000e+00  0.0000000000000000e+00 0.0000000000000000e+00 0.0000000000000000e+00  0.0000000000000000e+00 0.0000000000000000e+00 0.0000000000000000e+00  0.0000000000000000e+00 0.0000000000000000e+00 0.0000000000000000e+00  0.0000000000000000e+00 0.0000000000000000e+00 0.0000000000000000e+00  0.0000000000000000e+00 0.0000000000000000e+00 0.0000000000000000e+00  0.0000000000000000e+00 0.0000000000000000e+00 0.0000000000000000e+00  0.0000000000000000e+00 0.0000000000000000e+00 0.0000000000000000e+00  0.0000000000000000e+00 0.0000000000000000e+00 0.0000000000000000e+00  0.0000000000000000e+00 0.0000000000000000e+00 0.0000000000000000e+00  0.0000000000000000e+00 0.0000000000000000e+00 0.0000000000000000e+00  0.0000000000000000e+00 0.0000000000000000e+00 0.0000000000000000e+00  0.0000000000000000e+00 0.0000000000000000e+00 0.0000000000000000e+00  0.0000000000000000e+00 0.0000000000000000e+00 0.0000000000000000e+00  0.0000000000000000e+00 0.0000000000000000e+00 0.0000000000000000e+00  0.0000000000000000e+00 0.0000000000000000e+00 0.0000000000000000e+00  0.0000000000000000e+00 0.0000000000000000e+00 0.0000000000000000e+00  0.0000000000000000e+00 0.0000000000000000e+00 0.0000000000000000e+00  0.0000000000000000e+00 0.0000000000000000e+00 0.0000000000000000e+00  0.0000000000000000e+00 0.0000000000000000e+00 0.0000000000000000e+00  0.0000000000000000e+00 0.0000000000000000e+00 0.0000000000000000e+00  0.0000000000000000e+00 0.0000000000000000e+00 0.0000000000000000e+00  0.0000000000000000e+00 0.0000000000000000e+00 0.0000000000000000e+00  0.0000000000000000e+00 0.0000000000000000e+00 0.0000000000000000e+00  0.0000000000000000e+00 0.0000000000000000e+00 0.0000000000000000e+00  0.0000000000000000e+00 0.0000000000000000e+00 0.0000000000000000e+00  0.0000000000000000e+00 0.0000000000000000e+00 0.0000000000000000e+00  0.0000000000000000e+00 0.0000000000000000e+00 0.0000000000000000e+00  0.0000000000000000e+00 0.0000000000000000e+00 0.0000000000000000e+00  0.0000000000000000e+00 0.0000000000000000e+00 0.0000000000000000e+00  0.0000000000000000e+00 0.0000000000000000e+00 0.0000000000000000e+00  0.0000000000000000e+00 0.0000000000000000e+00 0.0000000000000000e+00  0.0000000000000000e+00 0.0000000000000000e+00 0.0000000000000000e+00  0.0000000000000000e+00 0.0000000000000000e+00 0.0000000000000000e+00  0.0000000000000000e+00 0.0000000000000000e+00 0.0000000000000000e+00  0.0000000000000000e+00 0.0000000000000000e+00 0.0000000000000000e+00  0.0000000000000000e+00 0.0000000000000000e+00 0.0000000000000000e+00  0.0000000000000000e+00 0.0000000000000000e+00 0.0000000000000000e+00  0.0000000000000000e+00 0.0000000000000000e+00 0.0000000000000000e+00  0.0000000000000000e+00 0.0000000000000000e+00 0.0000000000000000e+00  0.0000000000000000e+00 0.0000000000000000e+00 0.0000000000000000e+00  0.0000000000000000e+00 0.0000000000000000e+00 0.0000000000000000e+00  0.0000000000000000e+00 0.0000000000000000e+00 0.0000000000000000e+00  0.0000000000000000e+00 0.0000000000000000e+00 0.0000000000000000e+00  0.0000000000000000e+00 0.0000000000000000e+00 0.0000000000000000e+00  0.0000000000000000e+00 0.0000000000000000e+00 0.0000000000000000e+00  0.0000000000000000e+00 0.0000000000000000e+00 0.0000000000000000e+00  0.0000000000000000e+00 0.0000000000000000e+00 0.0000000000000000e+00  0.0000000000000000e+00 0.0000000000000000e+00 0.0000000000000000e+00  0.0000000000000000e+00 0.0000000000000000e+00 0.0000000000000000e+00  0.0000000000000000e+00 0.0000000000000000e+00 0.0000000000000000e+00  0.0000000000000000e+00 0.0000000000000000e+00 0.0000000000000000e+00  0.0000000000000000e+00 0.0000000000000000e+00 0.0000000000000000e+00  0.0000000000000000e+00 0.0000000000000000e+00 0.0000000000000000e+00  0.0000000000000000e+00 0.0000000000000000e+00 0.0000000000000000e+00  0.0000000000000000e+00 0.0000000000000000e+00 0.0000000000000000e+00  0.0000000000000000e+00 0.0000000000000000e+00 0.0000000000000000e+00  0.0000000000000000e+00 0.0000000000000000e+00 0.0000000000000000e+00  0.0000000000000000e+00 0.0000000000000000e+00 0.0000000000000000e+00  0.0000000000000000e+00 0.0000000000000000e+00 0.0000000000000000e+00  0.0000000000000000e+00 0.0000000000000000e+00 0.0000000000000000e+00  0.0000000000000000e+00 0.0000000000000000e+00 0.0000000000000000e+00  0.0000000000000000e+00 0.0000000000000000e+00 0.0000000000000000e+00  0.0000000000000000e+00 0.0000000000000000e+00 0.0000000000000000e+00  0.0000000000000000e+00 0.0000000000000000e+00 0.0000000000000000e+00  0.0000000000000000e+00 0.0000000000000000e+00 0.0000000000000000e+00  0.0000000000000000e+00 0.0000000000000000e+00 0.0000000000000000e+00  0.0000000000000000e+00 0.0000000000000000e+00 0.0000000000000000e+00  0.0000000000000000e+00 0.0000000000000000e+00 0.0000000000000000e+00  0.0000000000000000e+00 0.0000000000000000e+00 0.0000000000000000e+00  0.0000000000000000e+00 0.0000000000000000e+00 0.0000000000000000e+00  -1.4035226075879777e-09 -7.9146453300184600e-09 0.0000000000000000e+00  -2.6372053346165565e-09 -8.5065592919388352e-09 0.0000000000000000e+00  -3.4844104359341077e-09 -8.6526943609794884e-09 0.0000000000000000e+00  -4.1676536605629567e-09 -8.5402195108010742e-09 0.0000000000000000e+00  -4.7698348346130842e-09 -8.4286954912538632e-09 0.0000000000000000e+00  -5.4394711814425376e-09 -8.3853952307085729e-09 0.0000000000000000e+00  -6.1283623945312940e-09 -8.3171344076103040e-09 0.0000000000000000e+00  -6.8894833481114779e-09 -8.2647183807145399e-09 0.0000000000000000e+00  -7.6772555145226812e-09 -8.2016303756881767e-09 0.0000000000000000e+00  -8.5180375091850343e-09 -8.1352119034484509e-09 0.0000000000000000e+00  -9.4085636092506271e-09 -8.0848070518571907e-09 0.0000000000000000e+00  -1.0339515987471747e-08 -8.0187465064561670e-09 0.0000000000000000e+00  -1.1335500752013583e-08 -7.9491530996965121e-09 0.0000000000000000e+00  -1.2360555959683521e-08 -7.8938335636701656e-09 0.0000000000000000e+00  -1.3459474099500408e-08 -7.8247992624213431e-09 0.0000000000000000e+00  -1.4586765016481195e-08 -7.7736919759495385e-09 0.0000000000000000e+00  -1.5786325558900950e-08 -7.6968201123318881e-09 0.0000000000000000e+00  -1.7027284881878965e-08 -7.6574514764023837e-09 0.0000000000000000e+00  -1.8333527972587647e-08 -7.5831136463412195e-09 0.0000000000000000e+00  -1.9677545170642930e-08 -7.5366463320463712e-09 0.0000000000000000e+00  -2.1093611250495219e-08 -7.4519646803471546e-09 0.0000000000000000e+00  -2.2559855537093482e-08 -7.3718481325721252e-09 0.0000000000000000e+00  -2.4074500537625362e-08 -7.2993723232803954e-09 0.0000000000000000e+00  -2.5656411013307202e-08 -7.1956804230978509e-09 0.0000000000000000e+00  -2.7283685305265811e-08 -7.1179888135978544e-09 0.0000000000000000e+00  -2.8984324743110079e-08 -6.9951908723258127e-09 0.0000000000000000e+00  -3.0736387557673918e-08 -6.9184502783771397e-09 0.0000000000000000e+00  -3.2553653705325070e-08 -6.7915290808553491e-09 0.0000000000000000e+00  -3.4418533961923588e-08 -6.6958403910667675e-09 0.0000000000000000e+00  -3.6354775115160887e-08 -6.5829907529943720e-09 0.0000000000000000e+00  -3.8331909975666510e-08 -6.4884944022759481e-09 0.0000000000000000e+00  -4.0393847513521531e-08 -6.3756671821520431e-09 0.0000000000000000e+00  -4.2495415499660885e-08 -6.2998163612915840e-09 0.0000000000000000e+00  -4.4671989596597682e-08 -6.1865981903454320e-09 0.0000000000000000e+00  -4.6914974508728370e-08 -6.1274775955282410e-09 0.0000000000000000e+00  -4.9222377197783073e-08 -6.0501615247551920e-09 0.0000000000000000e+00  -5.1593232875549435e-08 -6.0184957959262800e-09 0.0000000000000000e+00  -5.4025969752754809e-08 -5.9794320158531693e-09 0.0000000000000000e+00  -5.6538067203844743e-08 -5.9780025963783682e-09 0.0000000000000000e+00  -5.9116775755156750e-08 -5.9737354360287725e-09 0.0000000000000000e+00  -6.1783597299376992e-08 -6.0065201665505222e-09 0.0000000000000000e+00  -6.4503440464648817e-08 -6.0493130985635312e-09 0.0000000000000000e+00  -6.7326272165840803e-08 -6.1271350534770546e-09 0.0000000000000000e+00  -7.0191415924934521e-08 -6.2062743619219607e-09 0.0000000000000000e+00  -7.3141841372685563e-08 -6.2989572261046061e-09 0.0000000000000000e+00  -7.6180075884455702e-08 -6.4360678452722110e-09 0.0000000000000000e+00  -7.9543308583046929e-08 -4.3100574572863614e-09 0.0000000000000000e+00  -7.9857795943250527e-08 6.1468280952862554e-10 0.0000000000000000e+00  -7.6812539661535362e-08 3.2455698997783623e-09 0.0000000000000000e+00  -7.3746388220550500e-08 3.5799870701885998e-09 0.0000000000000000e+00  -7.0731719412753716e-08 3.9107200233405019e-09 0.0000000000000000e+00  -6.7805937660846597e-08 4.2191045819602412e-09 0.0000000000000000e+00  -6.4928989673346008e-08 4.4903389438113297e-09 0.0000000000000000e+00  -6.2160693612931088e-08 4.7407423537364185e-09 0.0000000000000000e+00  -5.9433204546419200e-08 4.9738773644840055e-09 0.0000000000000000e+00  -5.6807182075055390e-08 5.1766453580103203e-09 0.0000000000000000e+00  -5.4229557039821882e-08 5.3533795215765582e-09 0.0000000000000000e+00  -5.1748006655187439e-08 5.5266627138751148e-09 0.0000000000000000e+00  -4.9327822977555774e-08 5.6651240298461452e-09 0.0000000000000000e+00  -4.6990229702067000e-08 5.7978007225607873e-09 0.0000000000000000e+00  -4.4714722357628406e-08 5.8942332907235661e-09 0.0000000000000000e+00  -4.2513156386350734e-08 6.0024149495003545e-09 0.0000000000000000e+00  -4.0382222303897252e-08 6.0757411592735180e-09 0.0000000000000000e+00  -3.8314621662554324e-08 6.1637008348300241e-09 0.0000000000000000e+00  -3.6310914199504204e-08 6.2310194377128401e-09 0.0000000000000000e+00  -3.4379830082258506e-08 6.3114397536285293e-09 0.0000000000000000e+00  -3.2505905946604608e-08 6.3646332969633265e-09 0.0000000000000000e+00  -3.0700164413370359e-08 6.4400063421143090e-09 0.0000000000000000e+00  -2.8949871905082663e-08 6.4972295199240518e-09 0.0000000000000000e+00  -2.7264246584139137e-08 6.5767926906968420e-09 0.0000000000000000e+00  -2.5642002456887047e-08 6.6554145082510741e-09 0.0000000000000000e+00  -2.4068814101752459e-08 6.7281403844618663e-09 0.0000000000000000e+00  -2.2568232851340045e-08 6.8181969967260830e-09 0.0000000000000000e+00  -2.1107218583057927e-08 6.8946964958977176e-09 0.0000000000000000e+00  -1.9707321946587571e-08 6.9986850353215006e-09 0.0000000000000000e+00  -1.8356361548978013e-08 7.0766203814070644e-09 0.0000000000000000e+00  -1.7069742447357861e-08 7.1963357650391120e-09 0.0000000000000000e+00  -1.5826012484040058e-08 7.2733115333564834e-09 0.0000000000000000e+00  -1.4636512448985383e-08 7.3892565236756966e-09 0.0000000000000000e+00  -1.3498998990364584e-08 7.4745491390075556e-09 0.0000000000000000e+00  -1.2401957649174806e-08 7.5706660530600611e-09 0.0000000000000000e+00  -1.1364845057103580e-08 7.6599859293514610e-09 0.0000000000000000e+00  -1.0385326038067867e-08 7.7570182078910934e-09 0.0000000000000000e+00  -9.4404946045318258e-09 7.8435484535245535e-09 0.0000000000000000e+00  -8.5528040646982452e-09 7.9213055739684773e-09 0.0000000000000000e+00  -7.7021713115434644e-09 8.0118197877275990e-09 0.0000000000000000e+00  -6.9233732010448971e-09 8.0892538971080711e-09 0.0000000000000000e+00  -6.1556983472771427e-09 8.1657396309935128e-09 0.0000000000000000e+00  -5.4717675446479773e-09 8.2543047017215616e-09 0.0000000000000000e+00  -4.7920653907815404e-09 8.3233898199147319e-09 0.0000000000000000e+00  -4.1874290263359715e-09 8.4566229837527945e-09 0.0000000000000000e+00  -3.4905774406224513e-09 8.5794801676199979e-09 0.0000000000000000e+00  -2.6500345034268815e-09 8.4403312478310252e-09 0.0000000000000000e+00  -1.4411201420936453e-09 7.8374976171111152e-09 0.0000000000000000e+00  -3.6095432950940515e-09 -7.7290949193816816e-11 0.0000000000000000e+00  -7.5000364537417583e-08 -1.5275152880936014e-09 0.0000000000000000e+00  -6.9226944647768682e-08 -1.1532219512187556e-09 0.0000000000000000e+00  -6.0494381777874406e-08 -6.0645511483870758e-10 0.0000000000000000e+00  -3.8608178700800845e-09 -4.1445628972418089e-11 0.0000000000000000e+00  -5.5379328101321910e-08 -3.3922134526029506e-10 0.0000000000000000e+00  -5.0349373294878969e-09 5.3492916296439596e-11 0.0000000000000000e+00  -5.0450826476278385e-08 -2.0641249531446619e-10 0.0000000000000000e+00  -7.3094482645571398e-09 1.6892304759673961e-11 0.0000000000000000e+00  -8.9627678822320970e-09 -1.1357245523206794e-10 0.0000000000000000e+00  -4.5802444243146199e-08 -1.4700251841192488e-10 0.0000000000000000e+00  -1.4069120552333561e-08 -8.1043301707939656e-11 0.0000000000000000e+00  -3.7308027426443109e-08 -1.6361994628483316e-10 0.0000000000000000e+00  -1.0753173454265882e-08 -3.5914556081188451e-11 0.0000000000000000e+00  -1.6406791088166676e-08 -2.2182169260768241e-10 0.0000000000000000e+00  -3.3443272989553266e-08 -2.0203405184628307e-10 0.0000000000000000e+00  -4.1424222936671796e-08 -1.4170502708727562e-10 0.0000000000000000e+00  -1.8999474800046464e-08 -2.6047421246749762e-10 0.0000000000000000e+00  -2.9822977965335502e-08 -2.4553124967047907e-10 0.0000000000000000e+00  -2.1687305955170373e-08 -1.8644859825886596e-10 0.0000000000000000e+00  -2.6506375432902915e-08 -3.6056750823591063e-10 0.0000000000000000e+00  -2.3942812145871823e-08 -2.8257116581067966e-10 0.0000000000000000e+00  -1.2287466477953925e-08 -1.7317832231910898e-10 0.0000000000000000e+00  -6.4962406195935330e-08 -7.7446039914775494e-10 0.0000000000000000e+00  -6.0843247500234930e-09 -7.2449573509980821e-11 0.0000000000000000e+00  -7.2155659581343231e-08 4.1702484858747714e-10 0.0000000000000000e+00  -3.5068140728298175e-09 3.1859655506545544e-09 0.0000000000000000e+00  -5.2910535286893266e-08 1.3969256855583440e-09 0.0000000000000000e+00  -5.7998718019837351e-08 1.1701582160456845e-09 0.0000000000000000e+00  -4.4443007585791044e-09 -3.0359309660852001e-09 0.0000000000000000e+00  -8.0964570190332541e-09 -2.4457731866401510e-09 0.0000000000000000e+00  -3.9336745156323191e-08 1.6728621540954779e-09 0.0000000000000000e+00  -4.8111194577843980e-08 1.5487554410919248e-09 0.0000000000000000e+00  -1.5185840115530499e-08 -2.3946417619184145e-09 0.0000000000000000e+00  -3.5343276849848977e-08 1.6932606260380153e-09 0.0000000000000000e+00  -9.8725123685169767e-09 -2.4292147603607515e-09 0.0000000000000000e+00  -1.7676999570774902e-08 -2.3915125161175354e-09 0.0000000000000000e+00  -3.1601881876254729e-08 1.6997531885627557e-09 0.0000000000000000e+00  -4.3589527016140292e-08 1.6324679883444607e-09 0.0000000000000000e+00  -2.0360852421618834e-08 -2.8401455873577220e-09 0.0000000000000000e+00  -2.8102461376243956e-08 1.7137069539575132e-09 0.0000000000000000e+00  -2.6632474719274243e-09 -1.8981752904752534e-09 0.0000000000000000e+00  -2.6026936298825090e-09 1.6888926042384031e-09 0.0000000000000000e+00  -7.7390510888689952e-08 -2.8404189548301653e-09 0.0000000000000000e+0