<?xml version="1.0"?>
<VTKFile type="UnstructuredGrid"  version="0.1"  >
<UnstructuredGrid>
<Piece  NumberOfPoints="1419" NumberOfCells="2698">
<Points>
<DataArray  type="Float64"  NumberOfComponents="3"  format="ascii">0 0 0  0 0.41 0  2.5 0 0  2.5 0.41 0  0.6 0.19 0  0.6 0.21 0  0.25 0.2 0  0.15 0.2 0  0.2489897948556636 0.21 0  0.2489897948556636 0.19 0  0.6 0.2 0  0 0.3807142857143437 0  0 0.3514285714286952 0  0 0.3221428571430699 0  0 0.29285714285744 0  0 0.2635714285718054 0  0 0.2342857142861561 0  0 0.2050000000005308 0  0 0.175714285714732 0  0 0.1464285714289574 0  0 0.1171428571431897 0  0 0.08785714285737878 0  0 0.05857142857161107 0  0 0.02928571428580012 0  0.03015443760436003 0 0  0.06140001986583606 0 0  0.09377624077125973 0 0  0.1273239957535082 0 0  0.1620856860351972 0 0  0.1981052433264291 0 0  0.235428184091502 0 0  0.2741016576309132 0 0  0.3141745521465447 0 0  0.3556974926295285 0 0  0.3987229542472677 0 0  0.4433053055141081 0 0  0.4895008759286886 0 0  0.5373680609405097 0 0  0.5869673343216626 0 0  0.6383613676634521 0 0  0.6916151138468254 0 0  0.7467958595648856 0 0  0.8039733463919316 0 0  0.8632198139502143 0 0  0.9246101326867038 0 0  0.9882218810934433 0 0  1.054135445558498 0 0  1.122434100542598 0 0  1.193204177141305 0 0  1.266535089879536 0 0  1.342519516046404 0 0  1.421253448503939 0 0  1.502836389106271 0 0  1.587371439758838 0 0  1.674965418777374 0 0  1.765729001825544 0 0  1.859776908880082 0 0  1.957227977487062 0 0  2.058205329869943 0 0  2.162836591189951 0 0  2.271253957290865 0 0  2.383594446803425 0 0  2.5 0.1024999999997612 0  2.5 0.2049999999994743 0  2.5 0.3074999999997183 0  2.383594446803656 0.41 0  2.271253957291315 0.41 0  2.162836591190598 0.41 0  2.058205329870775 0.41 0  1.957227977488067 0.41 0  1.859776908881246 0.41 0  1.765729001826854 0.41 0  1.674965418778818 0.41 0  1.58737143976041 0.41 0  1.502836389107956 0.41 0  1.421253448505726 0.41 0  1.342519516048286 0.41 0  1.266535089881505 0.41 0  1.193204177143353 0.41 0  1.122434100544716 0.41 0  1.05413544556068 0.41 0  0.9882218810956305 0.41 0  0.9246101326886647 0.41 0  0.8632198139519631 0.41 0  0.8039733463934788 0.41 0  0.7467958595662458 0.41 0  0.6916151138480078 0.41 0  0.6383613676644679 0.41 0  0.5869673343225223 0.41 0  0.5373680609412221 0.41 0  0.4895008759292634 0.41 0  0.4433053055145528 0.41 0  0.3987229542475914 0.41 0  0.3556974926297398 0.41 0  0.3141745521466497 0.41 0  0.2741016576310038 0.41 0  0.2354281840915826 0.41 0  0.1981052433265003 0.41 0  0.1620856860352591 0.41 0  0.1273239957535623 0.41 0  0.09377624077128965 0.41 0  0.06140001986584975 0.41 0  0.03015443760436654 0.41 0  0.2497468076502589 0.2050254481002335 0  0.2497468076502614 0.1949745518997913 0  0.2469965252529372 0.1829317073451959 0  0.2439893735792749 0.1762316384219906 0  0.2400332147834255 0.1700443375285386 0  0.2352133972704371 0.1645032867342007 0  0.2296339016332438 0.1597280261969788 0  0.2234150974217223 0.1558215752574715 0  0.2166911463437691 0.1528682099456123 0  0.2096071079204251 0.1509316448471593 0  0.2023158100364996 0.1500536585536553 0  0.194974551899914 0.1502531923497262 0  0.1877417105387872 0.1515259415822739 0  0.1807733240461124 0.153844448527136 0  0.1742197252835808 0.15715869474974 0  0.1682222986673531 0.1613971801805478 0  0.162910430003803 0.1664684656256651 0  0.1583987151779087 0.1722631454351573 0  0.1547844879126891 0.178656207771761 0  0.1521457199348551 0.1855097315605723 0  0.1505393388476355 0.1926758619366523 0  0.1505393388476328 0.2073241380633295 0  0.1521457199348437 0.2144902684393899 0  0.1547844879126531 0.221343792228163 0  0.1583987151778488 0.2277368545647528 0  0.1629104300036858 0.2335315343742052 0  0.1682222986671726 0.2386028198193036 0  0.1742197252833576 0.2428413052501257 0  0.1807733240458683 0.2461555514727623 0  0.1877417105384929 0.2484740584176516 0  0.1949745518995776 0.2497468076502398 0  0.202315810036185 0.2499463414463592 0  0.2096071079201568 0.2490683551528932 0  0.2166911463435495 0.2471317900544655 0  0.2234150974215506 0.2441784247426195 0  0.2296339016331197 0.2402719738031125 0  0.2352133972703547 0.2354967132658811 0  0.2400332147833751 0.2299556624715287 0  0.2439893735792577 0.2237683615780412 0  0.246996525252926 0.2170682926548348 0  0.25645809709277 0.21 0  0.2639263993298655 0.21 0  0.271394701566961 0.21 0  0.2788630038040554 0.21 0  0.2863313060411479 0.21 0  0.2937996082782405 0.21 0  0.301267910515333 0.21 0  0.3087362127524279 0.21 0  0.3162045149895234 0.21 0  0.3236728172265972 0.21 0  0.3311411194636928 0.21 0  0.3386094217007701 0.21 0  0.3460777239378666 0.21 0  0.3535460261749672 0.21 0  0.3610143284120516 0.21 0  0.3684826306491596 0.21 0  0.3759509328862226 0.21 0  0.383419235123329 0.21 0  0.3908875373604028 0.21 0  0.3983558395975142 0.21 0  0.4058241418345938 0.21 0  0.4132924440716992 0.21 0  0.4207607463087888 0.21 0  0.4282290485459029 0.21 0  0.4356973507830418 0.21 0  0.4431656530201649 0.21 0  0.4506339552573136 0.21 0  0.4581022574944306 0.21 0  0.4655705597315852 0.21 0  0.4730388619686996 0.21 0  0.480507164205851 0.21 0  0.4879754664429498 0.21 0  0.4954437686800938 0.21 0  0.502912070917267 0.21 0  0.5103803731544119 0.21 0  0.5178486753915261 0.21 0  0.5253169776286404 0.21 0  0.5327852798657868 0.21 0  0.5402535821029386 0.21 0  0.54772188434007 0.21 0  0.5551901865771842 0.21 0  0.5626584888143201 0.21 0  0.5701267910514778 0.21 0  0.5775950932886138 0.21 0  0.5850633955257281 0.21 0  0.5925316977628483 0.21 0  0.6 0.2050000000000054 0  0.6 0.1950000000000217 0  0.5925316977628897 0.19 0  0.5850633955257988 0.19 0  0.5775950932887378 0.19 0  0.5701267910515998 0.19 0  0.5626584888145268 0.19 0  0.5551901865773963 0.19 0  0.547721884340339 0.19 0  0.5402535821032429 0.19 0  0.5327852798661811 0.19 0  0.5253169776290537 0.19 0  0.5178486753919799 0.19 0  0.5103803731549078 0.19 0  0.502912070917822 0.19 0  0.4954437686807294 0.19 0  0.4879754664436223 0.19 0  0.4805071642065402 0.19 0  0.4730388619694271 0.19 0  0.4655705597323621 0.19 0  0.4581022574952563 0.19 0  0.4506339552581777 0.19 0  0.4431656530210671 0.19 0  0.4356973507839815 0.19 0  0.4282290485468779 0.19 0  0.4207607463097617 0.19 0  0.4132924440726327 0.19 0  0.4058241418354857 0.19 0  0.3983558395983636 0.19 0  0.3908875373612097 0.19 0  0.3834192351240934 0.19 0  0.3759509328869369 0.19 0  0.3684826306498175 0.19 0  0.361014328412667 0.19 0  0.3535460261755617 0.19 0  0.3460777239384295 0.19 0  0.3386094217012945 0.19 0  0.3311411194641595 0.19 0  0.3236728172270245 0.19 0  0.3162045149898895 0.19 0  0.3087362127527544 0.19 0  0.3012679105156187 0.19 0  0.2937996082784807 0.19 0  0.2863313060413428 0.19 0  0.2788630038042048 0.19 0  0.2713947015670686 0.19 0  0.2639263993299336 0.19 0  0.2564580970927985 0.19 0  0.2607803159922026 0.2000727136295815 0  0.5887803774232762 0.2001272386983733 0  0.5745072403740523 0.2002044435018727 0  0.5511891430099709 0.2001122610077113 0  0.2751288526855082 0.20000000000002 0  0.5365194309847112 0.1999999999999436 0  0.2894621222999649 0.1998691686390484 0  0.5215828265105155 0.1999999999999228 0  0.3127789816668748 0.1998657885438805 0  0.3274069683451451 0.2000000000000796 0  0.5066462220363641 0.199999999999908 0  0.3650630746574081 0.199866017807523 0  0.476773013087985 0.1999999999998713 0  0.3417402379596385 0.1998691686391011 0  0.3796850840047755 0.200000000000134 0  0.4618364086138087 0.1999999999998546 0  0.4917096175621762 0.1999999999998808 0  0.3946216884789568 0.2000000000001512 0  0.446899804139621 0.1999999999998389 0  0.4089549580935208 0.1998691686391595 0  0.4322718174608562 0.200127451265745 0  0.4201487168029707 0.1999966199048527 0  0.3528922713220932 0.2000185703532356 0  0.5633122436674589 0.1999814296467508 0  0.3006558810093873 0.1999966199048318 0  0.5815926498168407 0.1966545283159175 0  0.2677053789419034 0.1964246479135325 0  0.5290511287476175 0.1970915826863981 0  0.5439877332217911 0.197091582686394 0  0.2825131256993216 0.2035478995978015 0  0.3199386661080599 0.202908417313604 0  0.4842413153250809 0.1970915826863873 0  0.5141145242734466 0.1970915826863843 0  0.3722167817676917 0.2029084173136195 0  0.4693047108508938 0.1970915826863783 0  0.3348752705822316 0.202908417313609 0  0.3871533862418661 0.2029084173136212 0  0.4543681063767183 0.1970915826863795 0  0.4991779197992749 0.1970915826863902 0  0.4020059614928624 0.203547899597858 0  0.4394315019025246 0.1970915826863714 0  0.2550657455369551 0.2034088125358657 0  0.2548908499171161 0.1966940311614271 0  0.5946539510196798 0.2024302972968126 0  0.267698176732111 0.2039977513680092 0  0.4261685417851465 0.196409292431739 0  0.3590076176283495 0.196411355804271 0  0.5571672426447437 0.2036011176410121 0  0.3066757059912147 0.1964092924317024 0  0.594380730180568 0.1966558399668133 0  0.4842413153245942 0.2040749161535287 0  0.4693047108503577 0.2040749161535231 0  0.3871533862424271 0.1959250838464788 0  0.372246743208829 0.1959123236376545 0  0.5141145242731028 0.2040749161535395 0  0.4543681063761134 0.2040749161535186 0  0.4019979587101454 0.1959834479682427 0  0.4394608940728603 0.2040870543693135 0  0.5439623148931173 0.2040856076781014 0  0.5290511287473298 0.2040749161535501 0  0.4991779197988497 0.2040749161535382 0  0.3347912413592433 0.1959225448935183 0  0.3199680582793816 0.1959123018030061 0  0.2825051229162361 0.1959834479681729 0  0.3590471196690275 0.2036304442587945 0  0.5571594006495384 0.1963685282145804 0  0.3067669986803285 0.203627750582736 0  0.4262598344738712 0.2036568242185335 0  0.5814408164431408 0.2041285596160068 0  0.5688286748170428 0.1961819304477386 0  0.4145905603063645 0.2038180695522843 0  0.3473758401724931 0.2038180695522752 0  0.2950977245128307 0.2038180695522663 0  0.5688286748170693 0.203818069552238 0  0.2950977245127906 0.1961819304477774 0  0.3473758401723931 0.1961819304478349 0  0.4145905603061963 0.1961819304479011 0  0.2601812407614425 0.2056861609747042
[...]
<PointData  Vectors="f_40-1"> 
<DataArray  type="Float64"  Name="f_40-1"  NumberOfComponents="3" format="ascii">0.0000000000000000e+00 0.0000000000000000e+00 0.0000000000000000e+00  0.0000000000000000e+00 0.0000000000000000e+00 0.0000000000000000e+00  0.0000000000000000e+00 0.0000000000000000e+00 0.0000000000000000e+00  0.0000000000000000e+00 0.0000000000000000e+00 0.0000000000000000e+00  -2.1836938369314508e-06 -3.0943211544297953e-05 0.0000000000000000e+00  5.3613779788287402e-07 -3.2376995214151503e-05 0.0000000000000000e+00  0.0000000000000000e+00 0.0000000000000000e+00 0.0000000000000000e+00  0.0000000000000000e+00 0.0000000000000000e+00 0.0000000000000000e+00  0.0000000000000000e+00 0.0000000000000000e+00 0.0000000000000000e+00  0.0000000000000000e+00 0.0000000000000000e+00 0.0000000000000000e+00  -9.7914756604899560e-07 -3.1659042504841284e-05 0.0000000000000000e+00  0.0000000000000000e+00 0.0000000000000000e+00 0.0000000000000000e+00  0.0000000000000000e+00 0.0000000000000000e+00 0.0000000000000000e+00  0.0000000000000000e+00 0.0000000000000000e+00 0.0000000000000000e+00  0.0000000000000000e+00 0.0000000000000000e+00 0.0000000000000000e+00  0.0000000000000000e+00 0.0000000000000000e+00 0.0000000000000000e+00  0.0000000000000000e+00 0.0000000000000000e+00 0.0000000000000000e+00  0.0000000000000000e+00 0.0000000000000000e+00 0.0000000000000000e+00  0.0000000000000000e+00 0.0000000000000000e+00 0.0000000000000000e+00  0.0000000000000000e+00 0.0000000000000000e+00 0.0000000000000000e+00  0.0000000000000000e+00 0.0000000000000000e+00 0.0000000000000000e+00  0.0000000000000000e+00 0.0000000000000000e+00 0.0000000000000000e+00  0.0000000000000000e+00 0.0000000000000000e+00 0.0000000000000000e+00  0.0000000000000000e+00 0.0000000000000000e+00 0.0000000000000000e+00  0.0000000000000000e+00 0.0000000000000000e+00 0.0000000000000000e+00  0.0000000000000000e+00 0.0000000000000000e+00 0.0000000000000000e+00  0.0000000000000000e+00 0.0000000000000000e+00 0.0000000000000000e+00  0.0000000000000000e+00 0.0000000000000000e+00 0.0000000000000000e+00  0.0000000000000000e+00 0.0000000000000000e+00 0.0000000000000000e+00  0.0000000000000000e+00 0.0000000000000000e+00 0.0000000000000000e+00  0.0000000000000000e+00 0.0000000000000000e+00 0.0000000000000000e+00  0.0000000000000000e+00 0.0000000000000000e+00 0.0000000000000000e+00  0.0000000000000000e+00 0.0000000000000000e+00 0.0000000000000000e+00  0.0000000000000000e+00 0.0000000000000000e+00 0.0000000000000000e+00  0.0000000000000000e+00 0.0000000000000000e+00 0.0000000000000000e+00  0.0000000000000000e+00 0.0000000000000000e+00 0.0000000000000000e+00  0.0000000000000000e+00 0.0000000000000000e+00 0.0000000000000000e+00  0.0000000000000000e+00 0.0000000000000000e+00 0.0000000000000000e+00  0.0000000000000000e+00 0.0000000000000000e+00 0.0000000000000000e+00  0.0000000000000000e+00 0.0000000000000000e+00 0.0000000000000000e+00  0.0000000000000000e+00 0.0000000000000000e+00 0.0000000000000000e+00  0.0000000000000000e+00 0.0000000000000000e+00 0.0000000000000000e+00  0.0000000000000000e+00 0.0000000000000000e+00 0.0000000000000000e+00  0.0000000000000000e+00 0.0000000000000000e+00 0.0000000000000000e+00  0.0000000000000000e+00 0.0000000000000000e+00 0.0000000000000000e+00  0.0000000000000000e+00 0.0000000000000000e+00 0.0000000000000000e+00  0.0000000000000000e+00 0.0000000000000000e+00 0.0000000000000000e+00  0.0000000000000000e+00 0.0000000000000000e+00 0.0000000000000000e+00  0.0000000000000000e+00 0.0000000000000000e+00 0.0000000000000000e+00  0.0000000000000000e+00 0.0000000000000000e+00 0.0000000000000000e+00  0.0000000000000000e+00 0.0000000000000000e+00 0.0000000000000000e+00  0.0000000000000000e+00 0.0000000000000000e+00 0.0000000000000000e+00  0.0000000000000000e+00 0.0000000000000000e+00 0.0000000000000000e+00  0.0000000000000000e+00 0.0000000000000000e+00 0.0000000000000000e+00  0.0000000000000000e+00 0.0000000000000000e+00 0.0000000000000000e+00  0.0000000000000000e+00 0.0000000000000000e+00 0.0000000000000000e+00  0.0000000000000000e+00 0.0000000000000000e+00 0.0000000000000000e+00  0.0000000000000000e+00 0.0000000000000000e+00 0.0000000000000000e+00  0.0000000000000000e+00 0.0000000000000000e+00 0.0000000000000000e+00  0.0000000000000000e+00 0.0000000000000000e+00 0.0000000000000000e+00  0.0000000000000000e+00 0.0000000000000000e+00 0.0000000000000000e+00  0.0000000000000000e+00 0.0000000000000000e+00 0.0000000000000000e+00  0.0000000000000000e+00 0.0000000000000000e+00 0.0000000000000000e+00  0.0000000000000000e+00 0.0000000000000000e+00 0.0000000000000000e+00  0.0000000000000000e+00 0.0000000000000000e+00 0.0000000000000000e+00  0.0000000000000000e+00 0.0000000000000000e+00 0.0000000000000000e+00  0.0000000000000000e+00 0.0000000000000000e+00 0.0000000000000000e+00  0.0000000000000000e+00 0.0000000000000000e+00 0.0000000000000000e+00  0.0000000000000000e+00 0.0000000000000000e+00 0.0000000000000000e+00  0.0000000000000000e+00 0.0000000000000000e+00 0.0000000000000000e+00  0.0000000000000000e+00 0.0000000000000000e+00 0.0000000000000000e+00  0.0000000000000000e+00 0.0000000000000000e+00 0.0000000000000000e+00  0.0000000000000000e+00 0.0000000000000000e+00 0.0000000000000000e+00  0.0000000000000000e+00 0.0000000000000000e+00 0.0000000000000000e+00  0.0000000000000000e+00 0.0000000000000000e+00 0.0000000000000000e+00  0.0000000000000000e+00 0.0000000000000000e+00 0.0000000000000000e+00  0.0000000000000000e+00 0.0000000000000000e+00 0.0000000000000000e+00  0.0000000000000000e+00 0.0000000000000000e+00 0.0000000000000000e+00  0.0000000000000000e+00 0.0000000000000000e+00 0.0000000000000000e+00  0.0000000000000000e+00 0.0000000000000000e+00 0.0000000000000000e+00  0.0000000000000000e+00 0.0000000000000000e+00 0.0000000000000000e+00  0.0000000000000000e+00 0.0000000000000000e+00 0.0000000000000000e+00  0.0000000000000000e+00 0.0000000000000000e+00 0.0000000000000000e+00  0.0000000000000000e+00 0.0000000000000000e+00 0.0000000000000000e+00  0.0000000000000000e+00 0.0000000000000000e+00 0.0000000000000000e+00  0.0000000000000000e+00 0.0000000000000000e+00 0.0000000000000000e+00  0.0000000000000000e+00 0.0000000000000000e+00 0.0000000000000000e+00  0.0000000000000000e+00 0.0000000000000000e+00 0.0000000000000000e+00  0.0000000000000000e+00 0.0000000000000000e+00 0.0000000000000000e+00  0.0000000000000000e+00 0.0000000000000000e+00 0.0000000000000000e+00  0.0000000000000000e+00 0.0000000000000000e+00 0.0000000000000000e+00  0.0000000000000000e+00 0.0000000000000000e+00 0.0000000000000000e+00  0.0000000000000000e+00 0.0000000000000000e+00 0.0000000000000000e+00  0.0000000000000000e+00 0.0000000000000000e+00 0.0000000000000000e+00  0.0000000000000000e+00 0.0000000000000000e+00 0.0000000000000000e+00  0.0000000000000000e+00 0.0000000000000000e+00 0.0000000000000000e+00  0.0000000000000000e+00 0.0000000000000000e+00 0.0000000000000000e+00  0.0000000000000000e+00 0.0000000000000000e+00 0.0000000000000000e+00  0.0000000000000000e+00 0.0000000000000000e+00 0.0000000000000000e+00  0.0000000000000000e+00 0.0000000000000000e+00 0.0000000000000000e+00  0.0000000000000000e+00 0.0000000000000000e+00 0.0000000000000000e+00  0.0000000000000000e+00 0.0000000000000000e+00 0.0000000000000000e+00  0.0000000000000000e+00 0.0000000000000000e+00 0.0000000000000000e+00  0.0000000000000000e+00 0.0000000000000000e+00 0.0000000000000000e+00  0.0000000000000000e+00 0.0000000000000000e+00 0.0000000000000000e+00  0.0000000000000000e+00 0.0000000000000000e+00 0.0000000000000000e+00  0.0000000000000000e+00 0.0000000000000000e+00 0.0000000000000000e+00  0.0000000000000000e+00 0.0000000000000000e+00 0.0000000000000000e+00  0.0000000000000000e+00 0.0000000000000000e+00 0.0000000000000000e+00  0.0000000000000000e+00 0.0000000000000000e+00 0.0000000000000000e+00  0.0000000000000000e+00 0.0000000000000000e+00 0.0000000000000000e+00  0.0000000000000000e+00 0.0000000000000000e+00 0.0000000000000000e+00  0.0000000000000000e+00 0.0000000000000000e+00 0.0000000000000000e+00  0.0000000000000000e+00 0.0000000000000000e+00 0.0000000000000000e+00  0.0000000000000000e+00 0.0000000000000000e+00 0.0000000000000000e+00  0.0000000000000000e+00 0.0000000000000000e+00 0.0000000000000000e+00  0.0000000000000000e+00 0.0000000000000000e+00 0.0000000000000000e+00  0.0000000000000000e+00 0.0000000000000000e+00 0.0000000000000000e+00  0.0000000000000000e+00 0.0000000000000000e+00 0.0000000000000000e+00  0.0000000000000000e+00 0.0000000000000000e+00 0.0000000000000000e+00  0.0000000000000000e+00 0.0000000000000000e+00 0.0000000000000000e+00  0.0000000000000000e+00 0.0000000000000000e+00 0.0000000000000000e+00  0.0000000000000000e+00 0.0000000000000000e+00 0.0000000000000000e+00  0.0000000000000000e+00 0.0000000000000000e+00 0.0000000000000000e+00  0.0000000000000000e+00 0.0000000000000000e+00 0.0000000000000000e+00  0.0000000000000000e+00 0.0000000000000000e+00 0.0000000000000000e+00  0.0000000000000000e+00 0.0000000000000000e+00 0.0000000000000000e+00  0.0000000000000000e+00 0.0000000000000000e+00 0.0000000000000000e+00  0.0000000000000000e+00 0.0000000000000000e+00 0.0000000000000000e+00  0.0000000000000000e+00 0.0000000000000000e+00 0.0000000000000000e+00  0.0000000000000000e+00 0.0000000000000000e+00 0.0000000000000000e+00  0.0000000000000000e+00 0.0000000000000000e+00 0.0000000000000000e+00  0.0000000000000000e+00 0.0000000000000000e+00 0.0000000000000000e+00  0.0000000000000000e+00 0.0000000000000000e+00 0.0000000000000000e+00  0.0000000000000000e+00 0.0000000000000000e+00 0.0000000000000000e+00  0.0000000000000000e+00 0.0000000000000000e+00 0.0000000000000000e+00  0.0000000000000000e+00 0.0000000000000000e+00 0.0000000000000000e+00  0.0000000000000000e+00 0.0000000000000000e+00 0.0000000000000000e+00  0.0000000000000000e+00 0.0000000000000000e+00 0.0000000000000000e+00  0.0000000000000000e+00 0.0000000000000000e+00 0.0000000000000000e+00  0.0000000000000000e+00 0.0000000000000000e+00 0.0000000000000000e+00  0.0000000000000000e+00 0.0000000000000000e+00 0.0000000000000000e+00  0.0000000000000000e+00 0.0000000000000000e+00 0.0000000000000000e+00  1.6031028794817521e-07 -1.2715209542088862e-06 0.0000000000000000e+00  3.6894016948708809e-07 -1.4303308228852421e-06 0.0000000000000000e+00  6.3983825338455228e-07 -1.5569366780251208e-06 0.0000000000000000e+00  9.3472201555206277e-07 -1.6941449257527139e-06 0.0000000000000000e+00  1.2306313162739571e-06 -1.8640569998999249e-06 0.0000000000000000e+00  1.5179548989899234e-06 -2.0945182451989316e-06 0.0000000000000000e+00  1.7884479180854356e-06 -2.3494216448657347e-06 0.0000000000000000e+00  2.0405140851078141e-06 -2.6519353444034378e-06 0.0000000000000000e+00  2.2920900380170903e-06 -2.9865464062651032e-06 0.0000000000000000e+00  2.5165109149184636e-06 -3.3532070440087626e-06 0.0000000000000000e+00  2.7373085800622525e-06 -3.7621985787023833e-06 0.0000000000000000e+00  2.9335670702909668e-06 -4.1964188719801998e-06 0.0000000000000000e+00  3.1198710255310856e-06 -4.6648233955809063e-06 0.0000000000000000e+00  3.2885789250062734e-06 -5.1611467932437806e-06 0.0000000000000000e+00  3.4393531108467505e-06 -5.6863323934110975e-06 0.0000000000000000e+00  3.5878099125663632e-06 -6.2417484276205240e-06 0.0000000000000000e+00  3.7065548013358037e-06 -6.8160960034718700e-06 0.0000000000000000e+00  3.8225316862454102e-06 -7.4281532694587608e-06 0.0000000000000000e+00  3.9112280577301487e-06 -8.0519712224392587e-06 0.0000000000000000e+00  3.9970958404022394e-06 -8.7097758388588819e-06 0.0000000000000000e+00  4.0567635107765478e-06 -9.3797697714225527e-06 0.0000000000000000e+00  4.1094353391141220e-06 -1.0078898252118532e-05 0.0000000000000000e+00  4.1417685867824561e-06 -1.0797193166719377e-05 0.0000000000000000e+00  4.1610021241080087e-06 -1.1534090286689680e-05 0.0000000000000000e+00  4.1701988192667107e-06 -1.2294395002523184e-05 0.0000000000000000e+00  4.1594097750656035e-06 -1.3064905434191201e-05 0.0000000000000000e+00  4.1335127204304298e-06 -1.3866452970420432e-05 0.0000000000000000e+00  4.0920969805228860e-06 -1.4673091429342136e-05 0.0000000000000000e+00  4.0380212116529846e-06 -1.5504973490249982e-05 0.0000000000000000e+00  3.9659881809697576e-06 -1.6345987130446235e-05 0.0000000000000000e+00  3.8825186011556894e-06 -1.7208340688883523e-05 0.0000000000000000e+00  3.7794633097727145e-06 -1.8075324831904449e-05 0.0000000000000000e+00  3.6650574150733137e-06 -1.8964692686435487e-05 0.0000000000000000e+00  3.5315033246422646e-06 -1.9855285764158534e-05 0.0000000000000000e+00  3.3847686373048432e-06 -2.0767839029339522e-05 0.0000000000000000e+00  3.2202119507529598e-06 -2.1681296756435866e-05 0.0000000000000000e+00  3.0451180626407672e-06 -2.2611531091674444e-05 0.0000000000000000e+00  2.8512019075909458e-06 -2.3544127745289844e-05 0.0000000000000000e+00  2.6442222366690207e-06 -2.4493217269927395e-05 0.0000000000000000e+00  2.4192222172783948e-06 -2.5441754936000492e-05 0.0000000000000000e+00  2.1783854578771219e-06 -2.6401967416363506e-05 0.0000000000000000e+00  1.9221531882276316e-06 -2.7365288422774321e-05 0.0000000000000000e+00  1.6513757059929734e-06 -2.8337269395769781e-05 0.0000000000000000e+00  1.3687337096149270e-06 -2.9308884682058986e-05 0.0000000000000000e+00  1.0748228810847837e-06 -3.0281158612451881e-05 0.0000000000000000e+00  7.7183582395246049e-07 -3.1276679700857077e-05 0.0000000000000000e+00  -2.8142757531424794e-07 -3.2007914392442928e-05 0.0000000000000000e+00  -1.6201370816593587e-06 -3.1306516908515199e-05 0.0000000000000000e+00  -1.9147138492365592e-06 -3.0024052632832465e-05 0.0000000000000000e+00  -1.6065556275008327e-06 -2.9009786295680106e-05 0.0000000000000000e+00  -1.2933935742442722e-06 -2.7988116293470893e-05 0.0000000000000000e+00  -9.9929465597975803e-07 -2.6974698405938211e-05 0.0000000000000000e+00  -7.1161375332474482e-07 -2.5970344521736132e-05 0.0000000000000000e+00  -4.4415382925467579e-07 -2.4969720405548452e-05 0.0000000000000000e+00  -1.8149161122499470e-07 -2.3975881799030818e-05 0.0000000000000000e+00  5.8323223750990370e-08 -2.2987635208455654e-05 0.0000000000000000e+00  2.9355432661131157e-07 -2.2011652670155134e-05 0.0000000000000000e+00  5.0671976219794478e-07 -2.1037869295879148e-05 0.0000000000000000e+00  7.1137358657191769e-07 -2.0079623198735948e-05 0.0000000000000000e+00  8.9810104686387356e-07 -1.9126288709445216e-05 0.0000000000000000e+00  1.0764076722163628e-06 -1.8187861364640907e-05 0.0000000000000000e+00  1.2375848852607328e-06 -1.7253908911262222e-05 0.0000000000000000e+00  1.3884440972197245e-06 -1.6340168139656135e-05 0.0000000000000000e+00  1.5237712330900160e-06 -1.5431082102490380e-05 0.0000000000000000e+00  1.6487651373438961e-06 -1.4543093930000294e-05 0.0000000000000000e+00  1.7569108608709390e-06 -1.3661893041737341e-05 0.0000000000000000e+00  1.8589279357962860e-06 -1.2804502545565473e-05 0.0000000000000000e+00  1.9399428048138488e-06 -1.1955306315688355e-05 0.0000000000000000e+00  2.0176276109138236e-06 -1.1132204983594244e-05 0.0000000000000000e+00  2.0718910305284561e-06 -1.0318481298045108e-05 0.0000000000000000e+00  2.1207006871215631e-06 -9.5291994153973248e-06 0.0000000000000000e+00  2.1514358035131934e-06 -8.7577490947838879e-06 0.0000000000000000e+00  2.1692162903214566e-06 -8.0062309921613160e-06 0.0000000000000000e+00  2.1805390854072225e-06 -7.2783362051118170e-06 0.0000000000000000e+00  2.1772772183370637e-06 -6.5672407598472410e-06 0.0000000000000000e+00  2.1600123115515802e-06 -5.8861724010558455e-06 0.0000000000000000e+00  2.1278027053173982e-06 -5.2198730257173434e-06 0.0000000000000000e+00  2.0853252844680331e-06 -4.5880611568478599e-06 0.0000000000000000e+00  2.0299342321455752e-06 -3.9691966053305922e-06 0.0000000000000000e+00  1.9630395250857136e-06 -3.3885455057307417e-06 0.0000000000000000e+00  1.8832087659648211e-06 -2.8283464750434623e-06 0.0000000000000000e+00  1.7878385474402560e-06 -2.3026901004350282e-06 0.0000000000000000e+00  1.6874426757352007e-06 -1.8000426876207984e-06 0.0000000000000000e+00  1.5728240046910773e-06 -1.3331043523862958e-06 0.0000000000000000e+00  1.4493133775175168e-06 -8.9944947390023860e-07 0.0000000000000000e+00  1.3122140419139531e-06 -4.9656368073825899e-07 0.0000000000000000e+00  1.1658461898397737e-06 -1.3731983517939059e-07 0.0000000000000000e+00  1.0078161544405603e-06 1.9249233841223657e-07 0.0000000000000000e+00  8.2990778583325485e-07 4.8078297698177301e-07 0.0000000000000000e+00  6.6231377176305088e-07 7.3085431060423331e-07 0.0000000000000000e+00  4.6964859495618305e-07 9.5018236665228473e-07 0.0000000000000000e+00  2.9830295598591918e-07 1.1203443549717707e-06 0.0000000000000000e+00  1.3559623775021455e-07 1.2096079748758875e-06 0.0000000000000000e+00  4.6917126470718539e-08 1.1773003356736855e-06 0.0000000000000000e+00  -4.8550742140194434e-08 -5.3966551430349609e-08 0.0000000000000000e+00  -4.5017757321980035e-07 -3.0150543993016660e-05 0.0000000000000000e+00  1.7235357902785208e-07 -2.8247324731743928e-05 0.0000000000000000e+00  1.0055423942197227e-06 -2.5165090795825665e-05 0.0000000000000000e+00  5.7054746820763987e-07 -2.6236395719910540e-07 0.0000000000000000e+00  1.4475692150719414e-06 -2.3252007501245620e-05 0.0000000000000000e+00  1.0326604882338297e-06 -6.1766663660242394e-07 0.0000000000000000e+00  1.8570846958880529e-06 -2.1345011428956471e-05 0.0000000000000000e+00  1.6946603174900141e-06 -1.5374070523907243e-06 0.0000000000000000e+00  2.0568004918328724e-06 -2.3112013070911282e-06 0.0000000000000000e+00  2.2089360741784676e-06 -1.9475953291347647e-05 0.0000000000000000e+00  2.7387436152434945e-06 -4.8086039036947672e-06 0.0000000000000000e+00  2.7416067876575931e-06 -1.5870954233380550e-05 0.0000000000000000e+00  2.3529321902818049e-06 -3.1621164818791077e-06 0.0000000000000000e+00  2.9227646760014103e-06 -5.9935633463748319e-06 0.0000000000000000e+00  2.9233291210864127e-06 -1.4148579295944861e-05 0.0000000000000000e+00  2.5038276001489683e-06 -1.7648801859667134e-05 0.0000000000000000e+00  3.0480629308429054e-06 -7.2853393511934518e-06 0.0000000000000000e+00  3.0487994109260392e-06 -1.2491216916859991e-05 0.0000000000000000e+00  3.1053444536098090e-06 -8.5969080606963219e-06 0.0000000000000000e+00  3.1321629075778760e-06 -1.0948639686390673e-05 0.0000000000000000e+00  3.1296890802637543e-06 -9.7057765014536663e-06 0.0000000000000000e+00  2.5589138310731477e-06 -3.9367135479387328e-06 0.0000000000000000e+00  5.6055550545705902e-07 -2.6749936656936414e-05 0.0000000000000000e+00  1.3643303700128777e-06 -1.0359482054480514e-06 0.0000000000000000e+00  -5.9487421308104736e-07 -2.8964866815743413e-05 0.0000000000000000e+00  2.3445366858806250e-07 3.6485945631387360e-07 0.0000000000000000e+00  1.2891355073809209e-06 -2.2069785751581088e-05 0.0000000000000000e+00  8.4455135819718194e-07 -2.4003846023136649e-05 0.0000000000000000e+00  9.0636462432450935e-07 -9.0348244870017721e-07 0.0000000000000000e+00  2.0300037085599442e-06 -2.2693184114516219e-06 0.0000000000000000e+00  2.2846121191734047e-06 -1.6499127987085085e-05 0.0000000000000000e+00  1.6768620262257987e-06 -2.0171393106996655e-05 0.0000000000000000e+00  3.0715406830133073e-06 -5.7133310720342829e-06 0.0000000000000000e+00  2.5054534103927257e-06 -1.4738676001467625e-05 0.0000000000000000e+00  2.3952177154344957e-06 -3.1016650985728400e-06 0.0000000000000000e+00  3.2424774479002710e-06 -6.9486061584284999e-06 0.0000000000000000e+00  2.6714403325622602e-06 -1.3038780742468573e-05 0.0000000000000000e+00  2.0087069142490089e-06 -1.8311976023036550e-05 0.0000000000000000e+00  3.4175463357482587e-06 -8.3381236407308124e-06 0.0000000000000000e+00  2.7824999709562965e-06 -1.1406403129624941e-05 0.0000000000000000e+00  -1.5945022919792156e-07 -3.0661116059722969e-07 0.0000000000000000e+00  -1.7641683517646917e-07 2.5932178578349932e-07 0.0000000000000000e+00  -4.0810149448977253e-07 -3.1086811713689109e-05 0.0000000000000000e+00  3.4959506370949379e-07 -6.9130785959631985e-07 0.0000000000000000e+00