<?xml version="1.0"?>
<VTKFile type="UnstructuredGrid"  version="0.1"  >
<UnstructuredGrid>
<Piece  NumberOfPoints="1419" NumberOfCells="2698">
<Points>
<DataArray  type="Float64"  NumberOfComponents="3"  format="ascii">0 0 0  0 0.41 0  2.5 0 0  2.5 0.41 0  0.6 0.19 0  0.6 0.21 0  0.25 0.2 0  0.15 0.2 0  0.2489897948556636 0.21 0  0.2489897948556636 0.19 0  0.6 0.2 0  0 0.3807142857143437 0  0 0.3514285714286952 0  0 0.3221428571430699 0  0 0.29285714285744 0  0 0.2635714285718054 0  0 0.2342857142861561 0  0 0.2050000000005308 0  0 0.175714285714732 0  0 0.1464285714289574 0  0 0.1171428571431897 0  0 0.08785714285737878 0  0 0.05857142857161107 0  0 0.02928571428580012 0  0.03015443760436003 0 0  0.06140001986583606 0 0  0.09377624077125973 0 0  0.1273239957535082 0 0  0.1620856860351972 0 0  0.1981052433264291 0 0  0.235428184091502 0 0  0.2741016576309132 0 0  0.3141745521465447 0 0  0.3556974926295285 0 0  0.3987229542472677 0 0  0.4433053055141081 0 0  0.4895008759286886 0 0  0.5373680609405097 0 0  0.5869673343216626 0 0  0.6383613676634521 0 0  0.6916151138468254 0 0  0.7467958595648856 0 0  0.8039733463919316 0 0  0.8632198139502143 0 0  0.9246101326867038 0 0  0.9882218810934433 0 0  1.054135445558498 0 0  1.122434100542598 0 0  1.193204177141305 0 0  1.266535089879536 0 0  1.342519516046404 0 0  1.421253448503939 0 0  1.502836389106271 0 0  1.587371439758838 0 0  1.674965418777374 0 0  1.765729001825544 0 0  1.859776908880082 0 0  1.957227977487062 0 0  2.058205329869943 0 0  2.162836591189951 0 0  2.271253957290865 0 0  2.383594446803425 0 0  2.5 0.1024999999997612 0  2.5 0.2049999999994743 0  2.5 0.3074999999997183 0  2.383594446803656 0.41 0  2.271253957291315 0.41 0  2.162836591190598 0.41 0  2.058205329870775 0.41 0  1.957227977488067 0.41 0  1.859776908881246 0.41 0  1.765729001826854 0.41 0  1.674965418778818 0.41 0  1.58737143976041 0.41 0  1.502836389107956 0.41 0  1.421253448505726 0.41 0  1.342519516048286 0.41 0  1.266535089881505 0.41 0  1.193204177143353 0.41 0  1.122434100544716 0.41 0  1.05413544556068 0.41 0  0.9882218810956305 0.41 0  0.9246101326886647 0.41 0  0.8632198139519631 0.41 0  0.8039733463934788 0.41 0  0.7467958595662458 0.41 0  0.6916151138480078 0.41 0  0.6383613676644679 0.41 0  0.5869673343225223 0.41 0  0.5373680609412221 0.41 0  0.4895008759292634 0.41 0  0.4433053055145528 0.41 0  0.3987229542475914 0.41 0  0.3556974926297398 0.41 0  0.3141745521466497 0.41 0  0.2741016576310038 0.41 0  0.2354281840915826 0.41 0  0.1981052433265003 0.41 0  0.1620856860352591 0.41 0  0.1273239957535623 0.41 0  0.09377624077128965 0.41 0  0.06140001986584975 0.41 0  0.03015443760436654 0.41 0  0.2497468076502589 0.2050254481002335 0  0.2497468076502614 0.1949745518997913 0  0.2469965252529372 0.1829317073451959 0  0.2439893735792749 0.1762316384219906 0  0.2400332147834255 0.1700443375285386 0  0.2352133972704371 0.1645032867342007 0  0.2296339016332438 0.1597280261969788 0  0.2234150974217223 0.1558215752574715 0  0.2166911463437691 0.1528682099456123 0  0.2096071079204251 0.1509316448471593 0  0.2023158100364996 0.1500536585536553 0  0.194974551899914 0.1502531923497262 0  0.1877417105387872 0.1515259415822739 0  0.1807733240461124 0.153844448527136 0  0.1742197252835808 0.15715869474974 0  0.1682222986673531 0.1613971801805478 0  0.162910430003803 0.1664684656256651 0  0.1583987151779087 0.1722631454351573 0  0.1547844879126891 0.178656207771761 0  0.1521457199348551 0.1855097315605723 0  0.1505393388476355 0.1926758619366523 0  0.1505393388476328 0.2073241380633295 0  0.1521457199348437 0.2144902684393899 0  0.1547844879126531 0.221343792228163 0  0.1583987151778488 0.2277368545647528 0  0.1629104300036858 0.2335315343742052 0  0.1682222986671726 0.2386028198193036 0  0.1742197252833576 0.2428413052501257 0  0.1807733240458683 0.2461555514727623 0  0.1877417105384929 0.2484740584176516 0  0.1949745518995776 0.2497468076502398 0  0.202315810036185 0.2499463414463592 0  0.2096071079201568 0.2490683551528932 0  0.2166911463435495 0.2471317900544655 0  0.2234150974215506 0.2441784247426195 0  0.2296339016331197 0.2402719738031125 0  0.2352133972703547 0.2354967132658811 0  0.2400332147833751 0.2299556624715287 0  0.2439893735792577 0.2237683615780412 0  0.246996525252926 0.2170682926548348 0  0.25645809709277 0.21 0  0.2639263993298655 0.21 0  0.271394701566961 0.21 0  0.2788630038040554 0.21 0  0.2863313060411479 0.21 0  0.2937996082782405 0.21 0  0.301267910515333 0.21 0  0.3087362127524279 0.21 0  0.3162045149895234 0.21 0  0.3236728172265972 0.21 0  0.3311411194636928 0.21 0  0.3386094217007701 0.21 0  0.3460777239378666 0.21 0  0.3535460261749672 0.21 0  0.3610143284120516 0.21 0  0.3684826306491596 0.21 0  0.3759509328862226 0.21 0  0.383419235123329 0.21 0  0.3908875373604028 0.21 0  0.3983558395975142 0.21 0  0.4058241418345938 0.21 0  0.4132924440716992 0.21 0  0.4207607463087888 0.21 0  0.4282290485459029 0.21 0  0.4356973507830418 0.21 0  0.4431656530201649 0.21 0  0.4506339552573136 0.21 0  0.4581022574944306 0.21 0  0.4655705597315852 0.21 0  0.4730388619686996 0.21 0  0.480507164205851 0.21 0  0.4879754664429498 0.21 0  0.4954437686800938 0.21 0  0.502912070917267 0.21 0  0.5103803731544119 0.21 0  0.5178486753915261 0.21 0  0.5253169776286404 0.21 0  0.5327852798657868 0.21 0  0.5402535821029386 0.21 0  0.54772188434007 0.21 0  0.5551901865771842 0.21 0  0.5626584888143201 0.21 0  0.5701267910514778 0.21 0  0.5775950932886138 0.21 0  0.5850633955257281 0.21 0  0.5925316977628483 0.21 0  0.6 0.2050000000000054 0  0.6 0.1950000000000217 0  0.5925316977628897 0.19 0  0.5850633955257988 0.19 0  0.5775950932887378 0.19 0  0.5701267910515998 0.19 0  0.5626584888145268 0.19 0  0.5551901865773963 0.19 0  0.547721884340339 0.19 0  0.5402535821032429 0.19 0  0.5327852798661811 0.19 0  0.5253169776290537 0.19 0  0.5178486753919799 0.19 0  0.5103803731549078 0.19 0  0.502912070917822 0.19 0  0.4954437686807294 0.19 0  0.4879754664436223 0.19 0  0.4805071642065402 0.19 0  0.4730388619694271 0.19 0  0.4655705597323621 0.19 0  0.4581022574952563 0.19 0  0.4506339552581777 0.19 0  0.4431656530210671 0.19 0  0.4356973507839815 0.19 0  0.4282290485468779 0.19 0  0.4207607463097617 0.19 0  0.4132924440726327 0.19 0  0.4058241418354857 0.19 0  0.3983558395983636 0.19 0  0.3908875373612097 0.19 0  0.3834192351240934 0.19 0  0.3759509328869369 0.19 0  0.3684826306498175 0.19 0  0.361014328412667 0.19 0  0.3535460261755617 0.19 0  0.3460777239384295 0.19 0  0.3386094217012945 0.19 0  0.3311411194641595 0.19 0  0.3236728172270245 0.19 0  0.3162045149898895 0.19 0  0.3087362127527544 0.19 0  0.3012679105156187 0.19 0  0.2937996082784807 0.19 0  0.2863313060413428 0.19 0  0.2788630038042048 0.19 0  0.2713947015670686 0.19 0  0.2639263993299336 0.19 0  0.2564580970927985 0.19 0  0.2607803159922026 0.2000727136295815 0  0.5887803774232762 0.2001272386983733 0  0.5745072403740523 0.2002044435018727 0  0.5511891430099709 0.2001122610077113 0  0.2751288526855082 0.20000000000002 0  0.5365194309847112 0.1999999999999436 0  0.2894621222999649 0.1998691686390484 0  0.5215828265105155 0.1999999999999228 0  0.3127789816668748 0.1998657885438805 0  0.3274069683451451 0.2000000000000796 0  0.5066462220363641 0.199999999999908 0  0.3650630746574081 0.199866017807523 0  0.476773013087985 0.1999999999998713 0  0.3417402379596385 0.1998691686391011 0  0.3796850840047755 0.200000000000134 0  0.4618364086138087 0.1999999999998546 0  0.4917096175621762 0.1999999999998808 0  0.3946216884789568 0.2000000000001512 0  0.446899804139621 0.1999999999998389 0  0.4089549580935208 0.1998691686391595 0  0.4322718174608562 0.200127451265745 0  0.4201487168029707 0.1999966199048527 0  0.3528922713220932 0.2000185703532356 0  0.5633122436674589 0.1999814296467508 0  0.3006558810093873 0.1999966199048318 0  0.5815926498168407 0.1966545283159175 0  0.2677053789419034 0.1964246479135325 0  0.5290511287476175 0.1970915826863981 0  0.5439877332217911 0.197091582686394 0  0.2825131256993216 0.2035478995978015 0  0.3199386661080599 0.202908417313604 0  0.4842413153250809 0.1970915826863873 0  0.5141145242734466 0.1970915826863843 0  0.3722167817676917 0.2029084173136195 0  0.4693047108508938 0.1970915826863783 0  0.3348752705822316 0.202908417313609 0  0.3871533862418661 0.2029084173136212 0  0.4543681063767183 0.1970915826863795 0  0.4991779197992749 0.1970915826863902 0  0.4020059614928624 0.203547899597858 0  0.4394315019025246 0.1970915826863714 0  0.2550657455369551 0.2034088125358657 0  0.2548908499171161 0.1966940311614271 0  0.5946539510196798 0.2024302972968126 0  0.267698176732111 0.2039977513680092 0  0.4261685417851465 0.196409292431739 0  0.3590076176283495 0.196411355804271 0  0.5571672426447437 0.2036011176410121 0  0.3066757059912147 0.1964092924317024 0  0.594380730180568 0.1966558399668133 0  0.4842413153245942 0.2040749161535287 0  0.4693047108503577 0.2040749161535231 0  0.3871533862424271 0.1959250838464788 0  0.372246743208829 0.1959123236376545 0  0.5141145242731028 0.2040749161535395 0  0.4543681063761134 0.2040749161535186 0  0.4019979587101454 0.1959834479682427 0  0.4394608940728603 0.2040870543693135 0  0.5439623148931173 0.2040856076781014 0  0.5290511287473298 0.2040749161535501 0  0.4991779197988497 0.2040749161535382 0  0.3347912413592433 0.1959225448935183 0  0.3199680582793816 0.1959123018030061 0  0.2825051229162361 0.1959834479681729 0  0.3590471196690275 0.2036304442587945 0  0.5571594006495384 0.1963685282145804 0  0.3067669986803285 0.203627750582736 0  0.4262598344738712 0.2036568242185335 0  0.5814408164431408 0.2041285596160068 0  0.5688286748170428 0.1961819304477386 0  0.4145905603063645 0.2038180695522843 0  0.3473758401724931 0.2038180695522752 0  0.2950977245128307 0.2038180695522663 0  0.5688286748170693 0.203818069552238 0  0.2950977245127906 0.1961819304477774 0  0.3473758401723931 0.1961819304478349 0  0.4145905603061963 0.1961819304479011 0  0.2601812407614425 0.2056861609747042
[...]
<PointData  Vectors="f_40-1"> 
<DataArray  type="Float64"  Name="f_40-1"  NumberOfComponents="3" format="ascii">0.0000000000000000e+00 0.0000000000000000e+00 0.0000000000000000e+00  0.0000000000000000e+00 0.0000000000000000e+00 0.0000000000000000e+00  0.0000000000000000e+00 0.0000000000000000e+00 0.0000000000000000e+00  0.0000000000000000e+00 0.0000000000000000e+00 0.0000000000000000e+00  7.5985604174592039e-06 -4.9493758694198805e-04 0.0000000000000000e+00  4.7757916946901956e-05 -4.9644828694317541e-04 0.0000000000000000e+00  0.0000000000000000e+00 0.0000000000000000e+00 0.0000000000000000e+00  0.0000000000000000e+00 0.0000000000000000e+00 0.0000000000000000e+00  0.0000000000000000e+00 0.0000000000000000e+00 0.0000000000000000e+00  0.0000000000000000e+00 0.0000000000000000e+00 0.0000000000000000e+00  2.7279818008600331e-05 -4.9568348786538732e-04 0.0000000000000000e+00  0.0000000000000000e+00 0.0000000000000000e+00 0.0000000000000000e+00  0.0000000000000000e+00 0.0000000000000000e+00 0.0000000000000000e+00  0.0000000000000000e+00 0.0000000000000000e+00 0.0000000000000000e+00  0.0000000000000000e+00 0.0000000000000000e+00 0.0000000000000000e+00  0.0000000000000000e+00 0.0000000000000000e+00 0.0000000000000000e+00  0.0000000000000000e+00 0.0000000000000000e+00 0.0000000000000000e+00  0.0000000000000000e+00 0.0000000000000000e+00 0.0000000000000000e+00  0.0000000000000000e+00 0.0000000000000000e+00 0.0000000000000000e+00  0.0000000000000000e+00 0.0000000000000000e+00 0.0000000000000000e+00  0.0000000000000000e+00 0.0000000000000000e+00 0.0000000000000000e+00  0.0000000000000000e+00 0.0000000000000000e+00 0.0000000000000000e+00  0.0000000000000000e+00 0.0000000000000000e+00 0.0000000000000000e+00  0.0000000000000000e+00 0.0000000000000000e+00 0.0000000000000000e+00  0.0000000000000000e+00 0.0000000000000000e+00 0.0000000000000000e+00  0.0000000000000000e+00 0.0000000000000000e+00 0.0000000000000000e+00  0.0000000000000000e+00 0.0000000000000000e+00 0.0000000000000000e+00  0.0000000000000000e+00 0.0000000000000000e+00 0.0000000000000000e+00  0.0000000000000000e+00 0.0000000000000000e+00 0.0000000000000000e+00  0.0000000000000000e+00 0.0000000000000000e+00 0.0000000000000000e+00  0.0000000000000000e+00 0.0000000000000000e+00 0.0000000000000000e+00  0.0000000000000000e+00 0.0000000000000000e+00 0.0000000000000000e+00  0.0000000000000000e+00 0.0000000000000000e+00 0.0000000000000000e+00  0.0000000000000000e+00 0.0000000000000000e+00 0.0000000000000000e+00  0.0000000000000000e+00 0.0000000000000000e+00 0.0000000000000000e+00  0.0000000000000000e+00 0.0000000000000000e+00 0.0000000000000000e+00  0.0000000000000000e+00 0.0000000000000000e+00 0.0000000000000000e+00  0.0000000000000000e+00 0.0000000000000000e+00 0.0000000000000000e+00  0.0000000000000000e+00 0.0000000000000000e+00 0.0000000000000000e+00  0.0000000000000000e+00 0.0000000000000000e+00 0.0000000000000000e+00  0.0000000000000000e+00 0.0000000000000000e+00 0.0000000000000000e+00  0.0000000000000000e+00 0.0000000000000000e+00 0.0000000000000000e+00  0.0000000000000000e+00 0.0000000000000000e+00 0.0000000000000000e+00  0.0000000000000000e+00 0.0000000000000000e+00 0.0000000000000000e+00  0.0000000000000000e+00 0.0000000000000000e+00 0.0000000000000000e+00  0.0000000000000000e+00 0.0000000000000000e+00 0.0000000000000000e+00  0.0000000000000000e+00 0.0000000000000000e+00 0.0000000000000000e+00  0.0000000000000000e+00 0.0000000000000000e+00 0.0000000000000000e+00  0.0000000000000000e+00 0.0000000000000000e+00 0.0000000000000000e+00  0.0000000000000000e+00 0.0000000000000000e+00 0.0000000000000000e+00  0.0000000000000000e+00 0.0000000000000000e+00 0.0000000000000000e+00  0.0000000000000000e+00 0.0000000000000000e+00 0.0000000000000000e+00  0.0000000000000000e+00 0.0000000000000000e+00 0.0000000000000000e+00  0.0000000000000000e+00 0.0000000000000000e+00 0.0000000000000000e+00  0.0000000000000000e+00 0.0000000000000000e+00 0.0000000000000000e+00  0.0000000000000000e+00 0.0000000000000000e+00 0.0000000000000000e+00  0.0000000000000000e+00 0.0000000000000000e+00 0.0000000000000000e+00  0.0000000000000000e+00 0.0000000000000000e+00 0.0000000000000000e+00  0.0000000000000000e+00 0.0000000000000000e+00 0.0000000000000000e+00  0.0000000000000000e+00 0.0000000000000000e+00 0.0000000000000000e+00  0.0000000000000000e+00 0.0000000000000000e+00 0.0000000000000000e+00  0.0000000000000000e+00 0.0000000000000000e+00 0.0000000000000000e+00  0.0000000000000000e+00 0.0000000000000000e+00 0.0000000000000000e+00  0.0000000000000000e+00 0.0000000000000000e+00 0.0000000000000000e+00  0.0000000000000000e+00 0.0000000000000000e+00 0.0000000000000000e+00  0.0000000000000000e+00 0.0000000000000000e+00 0.0000000000000000e+00  0.0000000000000000e+00 0.0000000000000000e+00 0.0000000000000000e+00  0.0000000000000000e+00 0.0000000000000000e+00 0.0000000000000000e+00  0.0000000000000000e+00 0.0000000000000000e+00 0.0000000000000000e+00  0.0000000000000000e+00 0.0000000000000000e+00 0.0000000000000000e+00  0.0000000000000000e+00 0.0000000000000000e+00 0.0000000000000000e+00  0.0000000000000000e+00 0.0000000000000000e+00 0.0000000000000000e+00  0.0000000000000000e+00 0.0000000000000000e+00 0.0000000000000000e+00  0.0000000000000000e+00 0.0000000000000000e+00 0.0000000000000000e+00  0.0000000000000000e+00 0.0000000000000000e+00 0.0000000000000000e+00  0.0000000000000000e+00 0.0000000000000000e+00 0.0000000000000000e+00  0.0000000000000000e+00 0.0000000000000000e+00 0.0000000000000000e+00  0.0000000000000000e+00 0.0000000000000000e+00 0.0000000000000000e+00  0.0000000000000000e+00 0.0000000000000000e+00 0.0000000000000000e+00  0.0000000000000000e+00 0.0000000000000000e+00 0.0000000000000000e+00  0.0000000000000000e+00 0.0000000000000000e+00 0.0000000000000000e+00  0.0000000000000000e+00 0.0000000000000000e+00 0.0000000000000000e+00  0.0000000000000000e+00 0.0000000000000000e+00 0.0000000000000000e+00  0.0000000000000000e+00 0.0000000000000000e+00 0.0000000000000000e+00  0.0000000000000000e+00 0.0000000000000000e+00 0.0000000000000000e+00  0.0000000000000000e+00 0.0000000000000000e+00 0.0000000000000000e+00  0.0000000000000000e+00 0.0000000000000000e+00 0.0000000000000000e+00  0.0000000000000000e+00 0.0000000000000000e+00 0.0000000000000000e+00  0.0000000000000000e+00 0.0000000000000000e+00 0.0000000000000000e+00  0.0000000000000000e+00 0.0000000000000000e+00 0.0000000000000000e+00  0.0000000000000000e+00 0.0000000000000000e+00 0.0000000000000000e+00  0.0000000000000000e+00 0.0000000000000000e+00 0.0000000000000000e+00  0.0000000000000000e+00 0.0000000000000000e+00 0.0000000000000000e+00  0.0000000000000000e+00 0.0000000000000000e+00 0.0000000000000000e+00  0.0000000000000000e+00 0.0000000000000000e+00 0.0000000000000000e+00  0.0000000000000000e+00 0.0000000000000000e+00 0.0000000000000000e+00  0.0000000000000000e+00 0.0000000000000000e+00 0.0000000000000000e+00  0.0000000000000000e+00 0.0000000000000000e+00 0.0000000000000000e+00  0.0000000000000000e+00 0.0000000000000000e+00 0.0000000000000000e+00  0.0000000000000000e+00 0.0000000000000000e+00 0.0000000000000000e+00  0.0000000000000000e+00 0.0000000000000000e+00 0.0000000000000000e+00  0.0000000000000000e+00 0.0000000000000000e+00 0.0000000000000000e+00  0.0000000000000000e+00 0.0000000000000000e+00 0.0000000000000000e+00  0.0000000000000000e+00 0.0000000000000000e+00 0.0000000000000000e+00  0.0000000000000000e+00 0.0000000000000000e+00 0.0000000000000000e+00  0.0000000000000000e+00 0.0000000000000000e+00 0.0000000000000000e+00  0.0000000000000000e+00 0.0000000000000000e+00 0.0000000000000000e+00  0.0000000000000000e+00 0.0000000000000000e+00 0.0000000000000000e+00  0.0000000000000000e+00 0.0000000000000000e+00 0.0000000000000000e+00  0.0000000000000000e+00 0.0000000000000000e+00 0.0000000000000000e+00  0.0000000000000000e+00 0.0000000000000000e+00 0.0000000000000000e+00  0.0000000000000000e+00 0.0000000000000000e+00 0.0000000000000000e+00  0.0000000000000000e+00 0.0000000000000000e+00 0.0000000000000000e+00  0.0000000000000000e+00 0.0000000000000000e+00 0.0000000000000000e+00  0.0000000000000000e+00 0.0000000000000000e+00 0.0000000000000000e+00  0.0000000000000000e+00 0.0000000000000000e+00 0.0000000000000000e+00  0.0000000000000000e+00 0.0000000000000000e+00 0.0000000000000000e+00  0.0000000000000000e+00 0.0000000000000000e+00 0.0000000000000000e+00  0.0000000000000000e+00 0.0000000000000000e+00 0.0000000000000000e+00  0.0000000000000000e+00 0.0000000000000000e+00 0.0000000000000000e+00  0.0000000000000000e+00 0.0000000000000000e+00 0.0000000000000000e+00  0.0000000000000000e+00 0.0000000000000000e+00 0.0000000000000000e+00  0.0000000000000000e+00 0.0000000000000000e+00 0.0000000000000000e+00  0.0000000000000000e+00 0.0000000000000000e+00 0.0000000000000000e+00  0.0000000000000000e+00 0.0000000000000000e+00 0.0000000000000000e+00  0.0000000000000000e+00 0.0000000000000000e+00 0.0000000000000000e+00  0.0000000000000000e+00 0.0000000000000000e+00 0.0000000000000000e+00  0.0000000000000000e+00 0.0000000000000000e+00 0.0000000000000000e+00  0.0000000000000000e+00 0.0000000000000000e+00 0.0000000000000000e+00  0.0000000000000000e+00 0.0000000000000000e+00 0.0000000000000000e+00  0.0000000000000000e+00 0.0000000000000000e+00 0.0000000000000000e+00  0.0000000000000000e+00 0.0000000000000000e+00 0.0000000000000000e+00  0.0000000000000000e+00 0.0000000000000000e+00 0.0000000000000000e+00  0.0000000000000000e+00 0.0000000000000000e+00 0.0000000000000000e+00  0.0000000000000000e+00 0.0000000000000000e+00 0.0000000000000000e+00  0.0000000000000000e+00 0.0000000000000000e+00 0.0000000000000000e+00  0.0000000000000000e+00 0.0000000000000000e+00 0.0000000000000000e+00  0.0000000000000000e+00 0.0000000000000000e+00 0.0000000000000000e+00  0.0000000000000000e+00 0.0000000000000000e+00 0.0000000000000000e+00  0.0000000000000000e+00 0.0000000000000000e+00 0.0000000000000000e+00  0.0000000000000000e+00 0.0000000000000000e+00 0.0000000000000000e+00  0.0000000000000000e+00 0.0000000000000000e+00 0.0000000000000000e+00  0.0000000000000000e+00 0.0000000000000000e+00 0.0000000000000000e+00  1.5905668573989587e-06 -2.1743348190104408e-06 0.0000000000000000e+00  3.4037945519832428e-06 -3.2078539059935673e-06 0.0000000000000000e+00  5.2440901699877189e-06 -4.8170886704396590e-06 0.0000000000000000e+00  7.2378276100859022e-06 -7.0809639142081768e-06 0.0000000000000000e+00  9.1038226922496694e-06 -9.9767975243311694e-06 0.0000000000000000e+00  1.1117767394223620e-05 -1.3582879073941805e-05 0.0000000000000000e+00  1.2942457452933568e-05 -1.7719695392006193e-05 0.0000000000000000e+00  1.4755945489155374e-05 -2.2572015132403956e-05 0.0000000000000000e+00  1.6702521336873987e-05 -2.7981850825981011e-05 0.0000000000000000e+00  1.8416957209420195e-05 -3.3983337259932055e-05 0.0000000000000000e+00  2.0298565013622936e-05 -4.0590152029472896e-05 0.0000000000000000e+00  2.1936048204430009e-05 -4.7745470397921472e-05 0.0000000000000000e+00  2.3690144069295097e-05 -5.5452179606548272e-05 0.0000000000000000e+00  2.5257654418034718e-05 -6.3613955045391311e-05 0.0000000000000000e+00  2.6785792120935636e-05 -7.2342578119158251e-05 0.0000000000000000e+00  2.8390022490459589e-05 -8.1510323405501093e-05 0.0000000000000000e+00  2.9779452371104034e-05 -9.1126363108570455e-05 0.0000000000000000e+00  3.1266250008373143e-05 -1.0121363185822283e-04 0.0000000000000000e+00  3.2543994041571322e-05 -1.1168430052877501e-04 0.0000000000000000e+00  3.3893946722094798e-05 -1.2256318984588824e-04 0.0000000000000000e+00  3.5081899222845794e-05 -1.3380472946699945e-04 0.0000000000000000e+00  3.6294985704147186e-05 -1.4542934891248108e-04 0.0000000000000000e+00  3.7367497859184071e-05 -1.5733044136012644e-04 0.0000000000000000e+00  3.8387458017748034e-05 -1.6958569369166638e-04 0.0000000000000000e+00  3.9422941436236405e-05 -1.8209588040522936e-04 0.0000000000000000e+00  4.0339130897621384e-05 -1.9487963933617850e-04 0.0000000000000000e+00  4.1219696606115401e-05 -2.0794136501589756e-04 0.0000000000000000e+00  4.2019555607033409e-05 -2.2119781545851914e-04 0.0000000000000000e+00  4.2782631167880308e-05 -2.3469678498064283e-04 0.0000000000000000e+00  4.3467469672310134e-05 -2.4835822828783862e-04 0.0000000000000000e+00  4.4114353352099193e-05 -2.6222147800282751e-04 0.0000000000000000e+00  4.4687796549072884e-05 -2.7620934730629031e-04 0.0000000000000000e+00  4.5223481516258490e-05 -2.9036746980383172e-04 0.0000000000000000e+00  4.5687303623278888e-05 -3.0461936702764634e-04 0.0000000000000000e+00  4.6113072447433588e-05 -3.1901382673416067e-04 0.0000000000000000e+00  4.6475831190398395e-05 -3.3347435463668558e-04 0.0000000000000000e+00  4.6803147300640563e-05 -3.4804377801463565e-04 0.0000000000000000e+00  4.7069614914391785e-05 -3.6266257824456300e-04 0.0000000000000000e+00  4.7297009228944145e-05 -3.7736920606268434e-04 0.0000000000000000e+00  4.7468947954494564e-05 -3.9210464067645839e-04 0.0000000000000000e+00  4.7600103035569644e-05 -4.0690181010603796e-04 0.0000000000000000e+00  4.7678820755719668e-05 -4.2172110355841289e-04 0.0000000000000000e+00  4.7718835669875326e-05 -4.3658030664700352e-04 0.0000000000000000e+00  4.7726888375193128e-05 -4.5145049087572944e-04 0.0000000000000000e+00  4.7698674684627065e-05 -4.6632602109265023e-04 0.0000000000000000e+00  4.7646392474333541e-05 -4.8126406367437390e-04 0.0000000000000000e+00  3.7361356785969269e-05 -4.9603692088860132e-04 0.0000000000000000e+00  1.7343689878432179e-05 -4.9532057204432212e-04 0.0000000000000000e+00  7.5951444751819901e-06 -4.8015425629463666e-04 0.0000000000000000e+00  7.6798922377354605e-06 -4.6517905254120085e-04 0.0000000000000000e+00  7.7770777621209225e-06 -4.5018437920167951e-04 0.0000000000000000e+00  7.8310710314228684e-06 -4.3522539519963248e-04 0.0000000000000000e+00  7.8713376201350840e-06 -4.2029772075957597e-04 0.0000000000000000e+00  7.8702702587436366e-06 -4.0539581450647736e-04 0.0000000000000000e+00  7.8705408711035735e-06 -3.9053426455410188e-04 0.0000000000000000e+00  7.8151860009673042e-06 -3.7571087333229788e-04 0.0000000000000000e+00  7.7726415304038979e-06 -3.6095427296249384e-04 0.0000000000000000e+00  7.6702259894525096e-06 -3.4624533246455319e-04 0.0000000000000000e+00  7.5826296627395236e-06 -3.3162523012047383e-04 0.0000000000000000e+00  7.4412375728106702e-06 -3.1707668106579069e-04 0.0000000000000000e+00  7.3217321489595417e-06 -3.0263566119262533e-04 0.0000000000000000e+00  7.1466236987185386e-06 -2.8829049436638525e-04 0.0000000000000000e+00  7.0016646241094729e-06 -2.7408895076548438e-04 0.0000000000000000e+00  6.7960122596546492e-06 -2.6000769367262236e-04 0.0000000000000000e+00  6.6313832457366864e-06 -2.4610178910394905e-04 0.0000000000000000e+00  6.3957561899464484e-06 -2.3234926288883962e-04 0.0000000000000000e+00  6.2250857114979244e-06 -2.1880606649357922e-04 0.0000000000000000e+00  5.9627835156813359e-06 -2.0545646143952862e-04 0.0000000000000000e+00  5.7901302088884090e-06 -1.9235877904958117e-04 0.0000000000000000e+00  5.5050384143914127e-06 -1.7949073605435579e-04 0.0000000000000000e+00  5.3137711918862676e-06 -1.6691350784071274e-04 0.0000000000000000e+00  5.0309456716760125e-06 -1.5459361476342960e-04 0.0000000000000000e+00  4.7474878735002282e-06 -1.4262942602348303e-04 0.0000000000000000e+00  4.5279761839806814e-06 -1.3094477128410993e-04 0.0000000000000000e+00  4.2637120000502509e-06 -1.1963866965044623e-04 0.0000000000000000e+00  4.0174795454312396e-06 -1.0870134192483793e-04 0.0000000000000000e+00  3.7350287632683761e-06 -9.8157503175766003e-05 0.0000000000000000e+00  3.4822158243575141e-06 -8.8039896922794027e-05 0.0000000000000000e+00  3.1999532796128702e-06 -7.8328867981163750e-05 0.0000000000000000e+00  2.9895923276004624e-06 -6.9144739322866844e-05 0.0000000000000000e+00  2.6815183928396962e-06 -6.0363218718520757e-05 0.0000000000000000e+00  2.3561627404296472e-06 -5.2161674784919297e-05 0.0000000000000000e+00  2.1482940349463103e-06 -4.4380549809617293e-05 0.0000000000000000e+00  1.8705387890128323e-06 -3.7206083339709045e-05 0.0000000000000000e+00  1.6519562317877230e-06 -3.0571424248746711e-05 0.0000000000000000e+00  1.3828713884068027e-06 -2.4518550466100024e-05 0.0000000000000000e+00  1.2285293969145873e-06 -1.9131076307289287e-05 0.0000000000000000e+00  9.4246991520828625e-07 -1.4255742524439395e-05 0.0000000000000000e+00  6.4922898667479830e-07 -1.0111252370550908e-05 0.0000000000000000e+00  5.2041994452137615e-07 -6.4891267951314910e-06 0.0000000000000000e+00  2.8005156456680441e-07 -3.5687928050221496e-06 0.0000000000000000e+00  1.7858201872581728e-07 -1.3184327477478285e-06 0.0000000000000000e+00  -9.0466012931989096e-09 2.1933240341474148e-07 0.0000000000000000e+00  1.6681092969106768e-08 1.0057002186516425e-06 0.0000000000000000e+00  1.0154619641635383e-06 -5.7961292966820780e-07 0.0000000000000000e+00  2.7775712417952408e-05 -4.7319115683073999e-04 0.0000000000000000e+00  2.8124988665471862e-05 -4.4464377436868478e-04 0.0000000000000000e+00  2.7879816936977445e-05 -3.9817791415015612e-04 0.0000000000000000e+00  3.2099251910440097e-06 -3.6822637990686050e-06 0.0000000000000000e+00  2.7437921217421968e-05 -3.6912560201194831e-04 0.0000000000000000e+00  5.1955063932987098e-06 -9.2088864864208902e-06 0.0000000000000000e+00  2.7082987508608942e-05 -3.3978347220336752e-04 0.0000000000000000e+00  8.4333094376307419e-06 -2.3275634839522395e-05 0.0000000000000000e+00  1.0531862318269758e-05 -3.5149875212530689e-05 0.0000000000000000e+00  2.6591542359786449e-05 -3.1075426036594549e-04 0.0000000000000000e+00  1.5174364302171594e-05 -7.5327666979499157e-05 0.0000000000000000e+00  2.5203324201051305e-05 -2.5404249641221765e-04 0.0000000000000000e+00  1.2300056845580178e-05 -4.8862875003116777e-05 0.0000000000000000e+00  1.7027036222788022e-05 -9.4305561806746726e-05 0.0000000000000000e+00  2.4307888378785862e-05 -2.2660428953880535e-04 0.0000000000000000e+00  2.5965025749505829e-05 -2.8213431773796915e-04 0.0000000000000000e+00  1.8638360115136309e-05 -1.1534733676764190e-04 0.0000000000000000e+00  2.3276845377591862e-05 -1.9997203729025970e-04 0.0000000000000000e+00  1.9868714170367213e-05 -1.3696486932797666e-04 0.0000000000000000e+00  2.2357659625627400e-05 -1.7483559825054543e-04 0.0000000000000000e+00  2.1087143264911869e-05 -1.5481928402302254e-04 0.0000000000000000e+00  1.3861594390164692e-05 -6.1012640426408375e-05 0.0000000000000000e+00  2.7677675418008536e-05 -4.2229458651365430e-04 0.0000000000000000e+00  6.8273105864777993e-06 -1.5321862678878776e-05 0.0000000000000000e+00  2.0958901253127885e-05 -4.5860228691056829e-04 0.0000000000000000e+00  1.3451121841915093e-06 -1.1913420714437652e-06 0.0000000000000000e+00  2.1577344946212284e-05 -3.5417472859554367e-04 0.0000000000000000e+00  2.1817570953851012e-05 -3.8366069034780195e-04 0.0000000000000000e+00  5.6295946554901763e-06 -6.9309016381335722e-06 0.0000000000000000e+00  1.1858974617340482e-05 -2.9363656301669975e-05 0.0000000000000000e+00  2.0150671128862748e-05 -2.6771360081664567e-04 0.0000000000000000e+00  2.1216749566206553e-05 -3.2495946074749120e-04 0.0000000000000000e+00  1.9926813329191118e-05 -8.4901282749264505e-05 0.0000000000000000e+00  1.9452266990176230e-05 -2.3991574094686630e-04 0.0000000000000000e+00  1.4295260032479754e-05 -4.2593932316108630e-05 0.0000000000000000e+00  2.1919570946048799e-05 -1.0510043278917606e-04 0.0000000000000000e+00  1.8647197960353618e-05 -2.1284499220051054e-04 0.0000000000000000e+00  2.0740149340401998e-05 -2.9610169781900647e-04 0.0000000000000000e+00  2.4717699717708129e-05 -1.2688021451239619e-04 0.0000000000000000e+00  1.7734393966213500e-05 -1.8665886957224459e-04 0.0000000000000000e+00  4.3511222268093185e-07 -4.8718649356217417e-07 0.0000000000000000e+00  1.5329599553894190e-07 2.7409051059705885e-07 0.0000000000000000e+00  3.2267365436478198e-05 -4.8508846545335766e-04 0.0000000000000000e+00  2.9775254124708357e-06 -2.5713935655060009e-06 0.0000000000000000e+00  1.571817