<?xml version="1.0"?>
<VTKFile type="UnstructuredGrid"  version="0.1"  >
<UnstructuredGrid>
<Piece  NumberOfPoints="1419" NumberOfCells="2698">
<Points>
<DataArray  type="Float64"  NumberOfComponents="3"  format="ascii">0 0 0  0 0.41 0  2.5 0 0  2.5 0.41 0  0.6 0.19 0  0.6 0.21 0  0.25 0.2 0  0.15 0.2 0  0.2489897948556636 0.21 0  0.2489897948556636 0.19 0  0.6 0.2 0  0 0.3807142857143437 0  0 0.3514285714286952 0  0 0.3221428571430699 0  0 0.29285714285744 0  0 0.2635714285718054 0  0 0.2342857142861561 0  0 0.2050000000005308 0  0 0.175714285714732 0  0 0.1464285714289574 0  0 0.1171428571431897 0  0 0.08785714285737878 0  0 0.05857142857161107 0  0 0.02928571428580012 0  0.03015443760436003 0 0  0.06140001986583606 0 0  0.09377624077125973 0 0  0.1273239957535082 0 0  0.1620856860351972 0 0  0.1981052433264291 0 0  0.235428184091502 0 0  0.2741016576309132 0 0  0.3141745521465447 0 0  0.3556974926295285 0 0  0.3987229542472677 0 0  0.4433053055141081 0 0  0.4895008759286886 0 0  0.5373680609405097 0 0  0.5869673343216626 0 0  0.6383613676634521 0 0  0.6916151138468254 0 0  0.7467958595648856 0 0  0.8039733463919316 0 0  0.8632198139502143 0 0  0.9246101326867038 0 0  0.9882218810934433 0 0  1.054135445558498 0 0  1.122434100542598 0 0  1.193204177141305 0 0  1.266535089879536 0 0  1.342519516046404 0 0  1.421253448503939 0 0  1.502836389106271 0 0  1.587371439758838 0 0  1.674965418777374 0 0  1.765729001825544 0 0  1.859776908880082 0 0  1.957227977487062 0 0  2.058205329869943 0 0  2.162836591189951 0 0  2.271253957290865 0 0  2.383594446803425 0 0  2.5 0.1024999999997612 0  2.5 0.2049999999994743 0  2.5 0.3074999999997183 0  2.383594446803656 0.41 0  2.271253957291315 0.41 0  2.162836591190598 0.41 0  2.058205329870775 0.41 0  1.957227977488067 0.41 0  1.859776908881246 0.41 0  1.765729001826854 0.41 0  1.674965418778818 0.41 0  1.58737143976041 0.41 0  1.502836389107956 0.41 0  1.421253448505726 0.41 0  1.342519516048286 0.41 0  1.266535089881505 0.41 0  1.193204177143353 0.41 0  1.122434100544716 0.41 0  1.05413544556068 0.41 0  0.9882218810956305 0.41 0  0.9246101326886647 0.41 0  0.8632198139519631 0.41 0  0.8039733463934788 0.41 0  0.7467958595662458 0.41 0  0.6916151138480078 0.41 0  0.6383613676644679 0.41 0  0.5869673343225223 0.41 0  0.5373680609412221 0.41 0  0.4895008759292634 0.41 0  0.4433053055145528 0.41 0  0.3987229542475914 0.41 0  0.3556974926297398 0.41 0  0.3141745521466497 0.41 0  0.2741016576310038 0.41 0  0.2354281840915826 0.41 0  0.1981052433265003 0.41 0  0.1620856860352591 0.41 0  0.1273239957535623 0.41 0  0.09377624077128965 0.41 0  0.06140001986584975 0.41 0  0.03015443760436654 0.41 0  0.2497468076502589 0.2050254481002335 0  0.2497468076502614 0.1949745518997913 0  0.2469965252529372 0.1829317073451959 0  0.2439893735792749 0.1762316384219906 0  0.2400332147834255 0.1700443375285386 0  0.2352133972704371 0.1645032867342007 0  0.2296339016332438 0.1597280261969788 0  0.2234150974217223 0.1558215752574715 0  0.2166911463437691 0.1528682099456123 0  0.2096071079204251 0.1509316448471593 0  0.2023158100364996 0.1500536585536553 0  0.194974551899914 0.1502531923497262 0  0.1877417105387872 0.1515259415822739 0  0.1807733240461124 0.153844448527136 0  0.1742197252835808 0.15715869474974 0  0.1682222986673531 0.1613971801805478 0  0.162910430003803 0.1664684656256651 0  0.1583987151779087 0.1722631454351573 0  0.1547844879126891 0.178656207771761 0  0.1521457199348551 0.1855097315605723 0  0.1505393388476355 0.1926758619366523 0  0.1505393388476328 0.2073241380633295 0  0.1521457199348437 0.2144902684393899 0  0.1547844879126531 0.221343792228163 0  0.1583987151778488 0.2277368545647528 0  0.1629104300036858 0.2335315343742052 0  0.1682222986671726 0.2386028198193036 0  0.1742197252833576 0.2428413052501257 0  0.1807733240458683 0.2461555514727623 0  0.1877417105384929 0.2484740584176516 0  0.1949745518995776 0.2497468076502398 0  0.202315810036185 0.2499463414463592 0  0.2096071079201568 0.2490683551528932 0  0.2166911463435495 0.2471317900544655 0  0.2234150974215506 0.2441784247426195 0  0.2296339016331197 0.2402719738031125 0  0.2352133972703547 0.2354967132658811 0  0.2400332147833751 0.2299556624715287 0  0.2439893735792577 0.2237683615780412 0  0.246996525252926 0.2170682926548348 0  0.25645809709277 0.21 0  0.2639263993298655 0.21 0  0.271394701566961 0.21 0  0.2788630038040554 0.21 0  0.2863313060411479 0.21 0  0.2937996082782405 0.21 0  0.301267910515333 0.21 0  0.3087362127524279 0.21 0  0.3162045149895234 0.21 0  0.3236728172265972 0.21 0  0.3311411194636928 0.21 0  0.3386094217007701 0.21 0  0.3460777239378666 0.21 0  0.3535460261749672 0.21 0  0.3610143284120516 0.21 0  0.3684826306491596 0.21 0  0.3759509328862226 0.21 0  0.383419235123329 0.21 0  0.3908875373604028 0.21 0  0.3983558395975142 0.21 0  0.4058241418345938 0.21 0  0.4132924440716992 0.21 0  0.4207607463087888 0.21 0  0.4282290485459029 0.21 0  0.4356973507830418 0.21 0  0.4431656530201649 0.21 0  0.4506339552573136 0.21 0  0.4581022574944306 0.21 0  0.4655705597315852 0.21 0  0.4730388619686996 0.21 0  0.480507164205851 0.21 0  0.4879754664429498 0.21 0  0.4954437686800938 0.21 0  0.502912070917267 0.21 0  0.5103803731544119 0.21 0  0.5178486753915261 0.21 0  0.5253169776286404 0.21 0  0.5327852798657868 0.21 0  0.5402535821029386 0.21 0  0.54772188434007 0.21 0  0.5551901865771842 0.21 0  0.5626584888143201 0.21 0  0.5701267910514778 0.21 0  0.5775950932886138 0.21 0  0.5850633955257281 0.21 0  0.5925316977628483 0.21 0  0.6 0.2050000000000054 0  0.6 0.1950000000000217 0  0.5925316977628897 0.19 0  0.5850633955257988 0.19 0  0.5775950932887378 0.19 0  0.5701267910515998 0.19 0  0.5626584888145268 0.19 0  0.5551901865773963 0.19 0  0.547721884340339 0.19 0  0.5402535821032429 0.19 0  0.5327852798661811 0.19 0  0.5253169776290537 0.19 0  0.5178486753919799 0.19 0  0.5103803731549078 0.19 0  0.502912070917822 0.19 0  0.4954437686807294 0.19 0  0.4879754664436223 0.19 0  0.4805071642065402 0.19 0  0.4730388619694271 0.19 0  0.4655705597323621 0.19 0  0.4581022574952563 0.19 0  0.4506339552581777 0.19 0  0.4431656530210671 0.19 0  0.4356973507839815 0.19 0  0.4282290485468779 0.19 0  0.4207607463097617 0.19 0  0.4132924440726327 0.19 0  0.4058241418354857 0.19 0  0.3983558395983636 0.19 0  0.3908875373612097 0.19 0  0.3834192351240934 0.19 0  0.3759509328869369 0.19 0  0.3684826306498175 0.19 0  0.361014328412667 0.19 0  0.3535460261755617 0.19 0  0.3460777239384295 0.19 0  0.3386094217012945 0.19 0  0.3311411194641595 0.19 0  0.3236728172270245 0.19 0  0.3162045149898895 0.19 0  0.3087362127527544 0.19 0  0.3012679105156187 0.19 0  0.2937996082784807 0.19 0  0.2863313060413428 0.19 0  0.2788630038042048 0.19 0  0.2713947015670686 0.19 0  0.2639263993299336 0.19 0  0.2564580970927985 0.19 0  0.2607803159922026 0.2000727136295815 0  0.5887803774232762 0.2001272386983733 0  0.5745072403740523 0.2002044435018727 0  0.5511891430099709 0.2001122610077113 0  0.2751288526855082 0.20000000000002 0  0.5365194309847112 0.1999999999999436 0  0.2894621222999649 0.1998691686390484 0  0.5215828265105155 0.1999999999999228 0  0.3127789816668748 0.1998657885438805 0  0.3274069683451451 0.2000000000000796 0  0.5066462220363641 0.199999999999908 0  0.3650630746574081 0.199866017807523 0  0.476773013087985 0.1999999999998713 0  0.3417402379596385 0.1998691686391011 0  0.3796850840047755 0.200000000000134 0  0.4618364086138087 0.1999999999998546 0  0.4917096175621762 0.1999999999998808 0  0.3946216884789568 0.2000000000001512 0  0.446899804139621 0.1999999999998389 0  0.4089549580935208 0.1998691686391595 0  0.4322718174608562 0.200127451265745 0  0.4201487168029707 0.1999966199048527 0  0.3528922713220932 0.2000185703532356 0  0.5633122436674589 0.1999814296467508 0  0.3006558810093873 0.1999966199048318 0  0.5815926498168407 0.1966545283159175 0  0.2677053789419034 0.1964246479135325 0  0.5290511287476175 0.1970915826863981 0  0.5439877332217911 0.197091582686394 0  0.2825131256993216 0.2035478995978015 0  0.3199386661080599 0.202908417313604 0  0.4842413153250809 0.1970915826863873 0  0.5141145242734466 0.1970915826863843 0  0.3722167817676917 0.2029084173136195 0  0.4693047108508938 0.1970915826863783 0  0.3348752705822316 0.202908417313609 0  0.3871533862418661 0.2029084173136212 0  0.4543681063767183 0.1970915826863795 0  0.4991779197992749 0.1970915826863902 0  0.4020059614928624 0.203547899597858 0  0.4394315019025246 0.1970915826863714 0  0.2550657455369551 0.2034088125358657 0  0.2548908499171161 0.1966940311614271 0  0.5946539510196798 0.2024302972968126 0  0.267698176732111 0.2039977513680092 0  0.4261685417851465 0.196409292431739 0  0.3590076176283495 0.196411355804271 0  0.5571672426447437 0.2036011176410121 0  0.3066757059912147 0.1964092924317024 0  0.594380730180568 0.1966558399668133 0  0.4842413153245942 0.2040749161535287 0  0.4693047108503577 0.2040749161535231 0  0.3871533862424271 0.1959250838464788 0  0.372246743208829 0.1959123236376545 0  0.5141145242731028 0.2040749161535395 0  0.4543681063761134 0.2040749161535186 0  0.4019979587101454 0.1959834479682427 0  0.4394608940728603 0.2040870543693135 0  0.5439623148931173 0.2040856076781014 0  0.5290511287473298 0.2040749161535501 0  0.4991779197988497 0.2040749161535382 0  0.3347912413592433 0.1959225448935183 0  0.3199680582793816 0.1959123018030061 0  0.2825051229162361 0.1959834479681729 0  0.3590471196690275 0.2036304442587945 0  0.5571594006495384 0.1963685282145804 0  0.3067669986803285 0.203627750582736 0  0.4262598344738712 0.2036568242185335 0  0.5814408164431408 0.2041285596160068 0  0.5688286748170428 0.1961819304477386 0  0.4145905603063645 0.2038180695522843 0  0.3473758401724931 0.2038180695522752 0  0.2950977245128307 0.2038180695522663 0  0.5688286748170693 0.203818069552238 0  0.2950977245127906 0.1961819304477774 0  0.3473758401723931 0.1961819304478349 0  0.4145905603061963 0.1961819304479011 0  0.2601812407614425 0.2056861609747042
[...]
<PointData  Vectors="f_40-1"> 
<DataArray  type="Float64"  Name="f_40-1"  NumberOfComponents="3" format="ascii">0.0000000000000000e+00 0.0000000000000000e+00 0.0000000000000000e+00  0.0000000000000000e+00 0.0000000000000000e+00 0.0000000000000000e+00  0.0000000000000000e+00 0.0000000000000000e+00 0.0000000000000000e+00  0.0000000000000000e+00 0.0000000000000000e+00 0.0000000000000000e+00  7.5761338452960355e-06 -5.3646655252340277e-04 0.0000000000000000e+00  5.1260492613416598e-05 -5.3777336950431838e-04 0.0000000000000000e+00  0.0000000000000000e+00 0.0000000000000000e+00 0.0000000000000000e+00  0.0000000000000000e+00 0.0000000000000000e+00 0.0000000000000000e+00  0.0000000000000000e+00 0.0000000000000000e+00 0.0000000000000000e+00  0.0000000000000000e+00 0.0000000000000000e+00 0.0000000000000000e+00  2.9025584320266462e-05 -5.3711045512647030e-04 0.0000000000000000e+00  0.0000000000000000e+00 0.0000000000000000e+00 0.0000000000000000e+00  0.0000000000000000e+00 0.0000000000000000e+00 0.0000000000000000e+00  0.0000000000000000e+00 0.0000000000000000e+00 0.0000000000000000e+00  0.0000000000000000e+00 0.0000000000000000e+00 0.0000000000000000e+00  0.0000000000000000e+00 0.0000000000000000e+00 0.0000000000000000e+00  0.0000000000000000e+00 0.0000000000000000e+00 0.0000000000000000e+00  0.0000000000000000e+00 0.0000000000000000e+00 0.0000000000000000e+00  0.0000000000000000e+00 0.0000000000000000e+00 0.0000000000000000e+00  0.0000000000000000e+00 0.0000000000000000e+00 0.0000000000000000e+00  0.0000000000000000e+00 0.0000000000000000e+00 0.0000000000000000e+00  0.0000000000000000e+00 0.0000000000000000e+00 0.0000000000000000e+00  0.0000000000000000e+00 0.0000000000000000e+00 0.0000000000000000e+00  0.0000000000000000e+00 0.0000000000000000e+00 0.0000000000000000e+00  0.0000000000000000e+00 0.0000000000000000e+00 0.0000000000000000e+00  0.0000000000000000e+00 0.0000000000000000e+00 0.0000000000000000e+00  0.0000000000000000e+00 0.0000000000000000e+00 0.0000000000000000e+00  0.0000000000000000e+00 0.0000000000000000e+00 0.0000000000000000e+00  0.0000000000000000e+00 0.0000000000000000e+00 0.0000000000000000e+00  0.0000000000000000e+00 0.0000000000000000e+00 0.0000000000000000e+00  0.0000000000000000e+00 0.0000000000000000e+00 0.0000000000000000e+00  0.0000000000000000e+00 0.0000000000000000e+00 0.0000000000000000e+00  0.0000000000000000e+00 0.0000000000000000e+00 0.0000000000000000e+00  0.0000000000000000e+00 0.0000000000000000e+00 0.0000000000000000e+00  0.0000000000000000e+00 0.0000000000000000e+00 0.0000000000000000e+00  0.0000000000000000e+00 0.0000000000000000e+00 0.0000000000000000e+00  0.0000000000000000e+00 0.0000000000000000e+00 0.0000000000000000e+00  0.0000000000000000e+00 0.0000000000000000e+00 0.0000000000000000e+00  0.0000000000000000e+00 0.0000000000000000e+00 0.0000000000000000e+00  0.0000000000000000e+00 0.0000000000000000e+00 0.0000000000000000e+00  0.0000000000000000e+00 0.0000000000000000e+00 0.0000000000000000e+00  0.0000000000000000e+00 0.0000000000000000e+00 0.0000000000000000e+00  0.0000000000000000e+00 0.0000000000000000e+00 0.0000000000000000e+00  0.0000000000000000e+00 0.0000000000000000e+00 0.0000000000000000e+00  0.0000000000000000e+00 0.0000000000000000e+00 0.0000000000000000e+00  0.0000000000000000e+00 0.0000000000000000e+00 0.0000000000000000e+00  0.0000000000000000e+00 0.0000000000000000e+00 0.0000000000000000e+00  0.0000000000000000e+00 0.0000000000000000e+00 0.0000000000000000e+00  0.0000000000000000e+00 0.0000000000000000e+00 0.0000000000000000e+00  0.0000000000000000e+00 0.0000000000000000e+00 0.0000000000000000e+00  0.0000000000000000e+00 0.0000000000000000e+00 0.0000000000000000e+00  0.0000000000000000e+00 0.0000000000000000e+00 0.0000000000000000e+00  0.0000000000000000e+00 0.0000000000000000e+00 0.0000000000000000e+00  0.0000000000000000e+00 0.0000000000000000e+00 0.0000000000000000e+00  0.0000000000000000e+00 0.0000000000000000e+00 0.0000000000000000e+00  0.0000000000000000e+00 0.0000000000000000e+00 0.0000000000000000e+00  0.0000000000000000e+00 0.0000000000000000e+00 0.0000000000000000e+00  0.0000000000000000e+00 0.0000000000000000e+00 0.0000000000000000e+00  0.0000000000000000e+00 0.0000000000000000e+00 0.0000000000000000e+00  0.0000000000000000e+00 0.0000000000000000e+00 0.0000000000000000e+00  0.0000000000000000e+00 0.0000000000000000e+00 0.0000000000000000e+00  0.0000000000000000e+00 0.0000000000000000e+00 0.0000000000000000e+00  0.0000000000000000e+00 0.0000000000000000e+00 0.0000000000000000e+00  0.0000000000000000e+00 0.0000000000000000e+00 0.0000000000000000e+00  0.0000000000000000e+00 0.0000000000000000e+00 0.0000000000000000e+00  0.0000000000000000e+00 0.0000000000000000e+00 0.0000000000000000e+00  0.0000000000000000e+00 0.0000000000000000e+00 0.0000000000000000e+00  0.0000000000000000e+00 0.0000000000000000e+00 0.0000000000000000e+00  0.0000000000000000e+00 0.0000000000000000e+00 0.0000000000000000e+00  0.0000000000000000e+00 0.0000000000000000e+00 0.0000000000000000e+00  0.0000000000000000e+00 0.0000000000000000e+00 0.0000000000000000e+00  0.0000000000000000e+00 0.0000000000000000e+00 0.0000000000000000e+00  0.0000000000000000e+00 0.0000000000000000e+00 0.0000000000000000e+00  0.0000000000000000e+00 0.0000000000000000e+00 0.0000000000000000e+00  0.0000000000000000e+00 0.0000000000000000e+00 0.0000000000000000e+00  0.0000000000000000e+00 0.0000000000000000e+00 0.0000000000000000e+00  0.0000000000000000e+00 0.0000000000000000e+00 0.0000000000000000e+00  0.0000000000000000e+00 0.0000000000000000e+00 0.0000000000000000e+00  0.0000000000000000e+00 0.0000000000000000e+00 0.0000000000000000e+00  0.0000000000000000e+00 0.0000000000000000e+00 0.0000000000000000e+00  0.0000000000000000e+00 0.0000000000000000e+00 0.0000000000000000e+00  0.0000000000000000e+00 0.0000000000000000e+00 0.0000000000000000e+00  0.0000000000000000e+00 0.0000000000000000e+00 0.0000000000000000e+00  0.0000000000000000e+00 0.0000000000000000e+00 0.0000000000000000e+00  0.0000000000000000e+00 0.0000000000000000e+00 0.0000000000000000e+00  0.0000000000000000e+00 0.0000000000000000e+00 0.0000000000000000e+00  0.0000000000000000e+00 0.0000000000000000e+00 0.0000000000000000e+00  0.0000000000000000e+00 0.0000000000000000e+00 0.0000000000000000e+00  0.0000000000000000e+00 0.0000000000000000e+00 0.0000000000000000e+00  0.0000000000000000e+00 0.0000000000000000e+00 0.0000000000000000e+00  0.0000000000000000e+00 0.0000000000000000e+00 0.0000000000000000e+00  0.0000000000000000e+00 0.0000000000000000e+00 0.0000000000000000e+00  0.0000000000000000e+00 0.0000000000000000e+00 0.0000000000000000e+00  0.0000000000000000e+00 0.0000000000000000e+00 0.0000000000000000e+00  0.0000000000000000e+00 0.0000000000000000e+00 0.0000000000000000e+00  0.0000000000000000e+00 0.0000000000000000e+00 0.0000000000000000e+00  0.0000000000000000e+00 0.0000000000000000e+00 0.0000000000000000e+00  0.0000000000000000e+00 0.0000000000000000e+00 0.0000000000000000e+00  0.0000000000000000e+00 0.0000000000000000e+00 0.0000000000000000e+00  0.0000000000000000e+00 0.0000000000000000e+00 0.0000000000000000e+00  0.0000000000000000e+00 0.0000000000000000e+00 0.0000000000000000e+00  0.0000000000000000e+00 0.0000000000000000e+00 0.0000000000000000e+00  0.0000000000000000e+00 0.0000000000000000e+00 0.0000000000000000e+00  0.0000000000000000e+00 0.0000000000000000e+00 0.0000000000000000e+00  0.0000000000000000e+00 0.0000000000000000e+00 0.0000000000000000e+00  0.0000000000000000e+00 0.0000000000000000e+00 0.0000000000000000e+00  0.0000000000000000e+00 0.0000000000000000e+00 0.0000000000000000e+00  0.0000000000000000e+00 0.0000000000000000e+00 0.0000000000000000e+00  0.0000000000000000e+00 0.0000000000000000e+00 0.0000000000000000e+00  0.0000000000000000e+00 0.0000000000000000e+00 0.0000000000000000e+00  0.0000000000000000e+00 0.0000000000000000e+00 0.0000000000000000e+00  0.0000000000000000e+00 0.0000000000000000e+00 0.0000000000000000e+00  0.0000000000000000e+00 0.0000000000000000e+00 0.0000000000000000e+00  0.0000000000000000e+00 0.0000000000000000e+00 0.0000000000000000e+00  0.0000000000000000e+00 0.0000000000000000e+00 0.0000000000000000e+00  0.0000000000000000e+00 0.0000000000000000e+00 0.0000000000000000e+00  0.0000000000000000e+00 0.0000000000000000e+00 0.0000000000000000e+00  0.0000000000000000e+00 0.0000000000000000e+00 0.0000000000000000e+00  0.0000000000000000e+00 0.0000000000000000e+00 0.0000000000000000e+00  0.0000000000000000e+00 0.0000000000000000e+00 0.0000000000000000e+00  0.0000000000000000e+00 0.0000000000000000e+00 0.0000000000000000e+00  0.0000000000000000e+00 0.0000000000000000e+00 0.0000000000000000e+00  0.0000000000000000e+00 0.0000000000000000e+00 0.0000000000000000e+00  0.0000000000000000e+00 0.0000000000000000e+00 0.0000000000000000e+00  0.0000000000000000e+00 0.0000000000000000e+00 0.0000000000000000e+00  0.0000000000000000e+00 0.0000000000000000e+00 0.0000000000000000e+00  0.0000000000000000e+00 0.0000000000000000e+00 0.0000000000000000e+00  0.0000000000000000e+00 0.0000000000000000e+00 0.0000000000000000e+00  0.0000000000000000e+00 0.0000000000000000e+00 0.0000000000000000e+00  0.0000000000000000e+00 0.0000000000000000e+00 0.0000000000000000e+00  0.0000000000000000e+00 0.0000000000000000e+00 0.0000000000000000e+00  0.0000000000000000e+00 0.0000000000000000e+00 0.0000000000000000e+00  0.0000000000000000e+00 0.0000000000000000e+00 0.0000000000000000e+00  0.0000000000000000e+00 0.0000000000000000e+00 0.0000000000000000e+00  0.0000000000000000e+00 0.0000000000000000e+00 0.0000000000000000e+00  0.0000000000000000e+00 0.0000000000000000e+00 0.0000000000000000e+00  0.0000000000000000e+00 0.0000000000000000e+00 0.0000000000000000e+00  0.0000000000000000e+00 0.0000000000000000e+00 0.0000000000000000e+00  0.0000000000000000e+00 0.0000000000000000e+00 0.0000000000000000e+00  0.0000000000000000e+00 0.0000000000000000e+00 0.0000000000000000e+00  0.0000000000000000e+00 0.0000000000000000e+00 0.0000000000000000e+00  0.0000000000000000e+00 0.0000000000000000e+00 0.0000000000000000e+00  0.0000000000000000e+00 0.0000000000000000e+00 0.0000000000000000e+00  1.6304471820413381e-06 -1.9966096139281873e-06 0.0000000000000000e+00  3.4912314893521788e-06 -3.0411068913605998e-06 0.0000000000000000e+00  5.3714916568514193e-06 -4.7095785389692086e-06 0.0000000000000000e+00  7.4161648935224769e-06 -7.0764672148288503e-06 0.0000000000000000e+00  9.3277202586995951e-06 -1.0121045609579888e-05 0.0000000000000000e+00  1.1407542810951163e-05 -1.3920235261722813e-05 0.0000000000000000e+00  1.3289333859226512e-05 -1.8293924192400664e-05 0.0000000000000000e+00  1.5168510948055446e-05 -2.3439789228686775e-05 0.0000000000000000e+00  1.7198420458425835e-05 -2.9190706881462849e-05 0.0000000000000000e+00  1.8984607565645103e-05 -3.5588097522664869e-05 0.0000000000000000e+00  2.0960873024005267e-05 -4.2643471124287780e-05 0.0000000000000000e+00  2.2677646469237483e-05 -5.0304194558052244e-05 0.0000000000000000e+00  2.4531945824320207e-05 -5.8569024022042366e-05 0.0000000000000000e+00  2.6186029100775361e-05 -6.7335252894974593e-05 0.0000000000000000e+00  2.7805083801279174e-05 -7.6729206136639432e-05 0.0000000000000000e+00  2.9513096716510120e-05 -8.6606640035732994e-05 0.0000000000000000e+00  3.0992270777110143e-05 -9.6984212435420754e-05 0.0000000000000000e+00  3.2584831235057658e-05 -1.0787995270132490e-04 0.0000000000000000e+00  3.3952746557143690e-05 -1.1920729036046976e-04 0.0000000000000000e+00  3.5405452017889892e-05 -1.3098401374893342e-04 0.0000000000000000e+00  3.6685424686777199e-05 -1.4316882138594360e-04 0.0000000000000000e+00  3.7998169144438667e-05 -1.5577742069946483e-04 0.0000000000000000e+00  3.9159155036365428e-05 -1.6869365696240259e-04 0.0000000000000000e+00  4.0266493509641529e-05 -1.8200540443195212e-04 0.0000000000000000e+00  4.1395160906542308e-05 -1.9559851717198943e-04 0.0000000000000000e+00  4.2397218397612577e-05 -2.0949885627396617e-04 0.0000000000000000e+00  4.3363623925129502e-05 -2.2370350560362273e-04 0.0000000000000000e+00  4.4244976200119579e-05 -2.3812805056365994e-04 0.0000000000000000e+00  4.5088366126877059e-05 -2.5281828291207065e-04 0.0000000000000000e+00  4.5850070632010125e-05 -2.6768984620636175e-04 0.0000000000000000e+00  4.6572429803827227e-05 -2.8278214389824112e-04 0.0000000000000000e+00  4.7218848024827282e-05 -2.9801422691991584e-04 0.0000000000000000e+00  4.7826316116273050e-05 -3.1343091871468811e-04 0.0000000000000000e+00  4.8359493951053158e-05 -3.2895280407216527e-04 0.0000000000000000e+00  4.8853695346912341e-05 -3.4462799941396355e-04 0.0000000000000000e+00  4.9283163547191986e-05 -3.6037714354538516e-04 0.0000000000000000e+00  4.9675894924993270e-05 -3.7624312329052282e-04 0.0000000000000000e+00  5.0006742110480166e-05 -3.9216351488999626e-04 0.0000000000000000e+00  5.0297909583602444e-05 -4.0817659576116702e-04 0.0000000000000000e+00  5.0532908841184185e-05 -4.2422185215241305e-04 0.0000000000000000e+00  5.0727490952465623e-05 -4.4033214076100245e-04 0.0000000000000000e+00  5.0868549302063784e-05 -4.5646571371142647e-04 0.0000000000000000e+00  5.0971365830840803e-05 -4.7264127339892621e-04 0.0000000000000000e+00  5.1042637457036792e-05 -4.8882847474509541e-04 0.0000000000000000e+00  5.1077272312016068e-05 -5.0502157675655888e-04 0.0000000000000000e+00  5.1088519484626759e-05 -5.2127712817787695e-04 0.0000000000000000e+00  3.9987577100946758e-05 -5.3741320808704785e-04 0.0000000000000000e+00  1.8207115240694727e-05 -5.3679838095942981e-04 0.0000000000000000e+00  7.5119607258387464e-06 -5.2036255681867051e-04 0.0000000000000000e+00  7.5348296427728701e-06 -5.0407217599948652e-04 0.0000000000000000e+00  7.5698796399789317e-06 -4.8776290212157512e-04 0.0000000000000000e+00  7.5640078940879813e-06 -4.7149009659604673e-04 0.0000000000000000e+00  7.5445056605886355e-06 -4.5524867225711857e-04 0.0000000000000000e+00  7.4860424232304796e-06 -4.3903501793470364e-04 0.0000000000000000e+00  7.4303113665929669e-06 -4.2286348070331796e-04 0.0000000000000000e+00  7.3205660555021906e-06 -4.0673256074438613e-04 0.0000000000000000e+00  7.2262144723337745e-06 -3.9067194344372233e-04 0.0000000000000000e+00  7.0729589996473321e-06 -3.7466380292286851e-04 0.0000000000000000e+00  6.9391132782062926e-06 -3.5875006210902107e-04 0.0000000000000000e+00  6.7512314610408680e-06 -3.4291496655191841e-04 0.0000000000000000e+00  6.5913241981070876e-06 -3.2719589407988620e-04 0.0000000000000000e+00  6.3746510252541114e-06 -3.1158338004588250e-04 0.0000000000000000e+00  6.1962254953499660e-06 -2.9612576916695566e-04 0.0000000000000000e+00  5.9546176276634752e-06 -2.8080310761239679e-04 0.0000000000000000e+00  5.7639247733463187e-06 -2.6567085632955124e-04 0.0000000000000000e+00  5.4987357888175090e-06 -2.5071089942631003e-04 0.0000000000000000e+00  5.3100519719580186e-06 -2.3597933644081597e-04 0.0000000000000000e+00  5.0256382042969231e-06 -2.2146512140891451e-04 0.0000000000000000e+00  4.8441579301147058e-06 -2.0722715691470227e-04 0.0000000000000000e+00  4.5448042332419860e-06 -1.9324786844780143e-04 0.0000000000000000e+00  4.3537785425518776e-06 -1.7958976203748413e-04 0.0000000000000000e+00  4.0667910067075177e-06 -1.6621857034066170e-04 0.0000000000000000e+00  3.7837327400287013e-06 -1.5324434418318621e-04 0.0000000000000000e+00  3.5770182529232044e-06 -1.4057916856570455e-04 0.0000000000000000e+00  3.3243548708768687e-06 -1.2833865927341109e-04 0.0000000000000000e+00  3.0989878506353502e-06 -1.1650550939408605e-04 0.0000000000000000e+00  2.8379014241274044e-06 -1.0511407807308142e-04 0.0000000000000000e+00  2.6152327667400836e-06 -9.4192605421606289e-05 0.0000000000000000e+00  2.3636339374159396e-06 -8.3727322507811791e-05 0.0000000000000000e+00  2.1981211035203685e-06 -7.3842720644229853e-05 0.0000000000000000e+00  1.9264452133285419e-06 -6.4404451411864501e-05 0.0000000000000000e+00  1.6412501505354291e-06 -5.5606731722691603e-05 0.0000000000000000e+00  1.4891532736845103e-06 -4.7272838071723765e-05 0.0000000000000000e+00  1.2629512835733033e-06 -3.9605311481995468e-05 0.0000000000000000e+00  1.1047864663841905e-06 -3.2528858283323154e-05 0.0000000000000000e+00  8.9343785868745967e-07 -2.6088736969157363e-05 0.0000000000000000e+00  8.0986723045058362e-07 -2.0371551058809348e-05 0.0000000000000000e+00  5.8223720757670173e-07 -1.5210175840669230e-05 0.0000000000000000e+00  3.5024426095471729e-07 -1.0838652607604050e-05 0.0000000000000000e+00  2.9130226154657338e-07 -7.0269336280362081e-06 0.0000000000000000e+00  1.1309280022207994e-07 -3.9695665408940190e-06 0.0000000000000000e+00  7.4069855208146056e-08 -1.6244064878115378e-06 0.0000000000000000e+00  -6.4962706789074708e-08 -2.2418924353728082e-08 0.0000000000000000e+00  -1.6438006898413112e-09 8.0568954103175530e-07 0.0000000000000000e+00  1.0665614062408568e-06 -5.8015703501745117e-07 0.0000000000000000e+00  2.9447434885766637e-05 -5.1263909201227211e-04 0.0000000000000000e+00  2.9689341317893501e-05 -4.8157527916891290e-04 0.0000000000000000e+00  2.9238477694716835e-05 -4.3100671196066100e-04 0.0000000000000000e+00  3.2211629842145197e-06 -3.8001222282514981e-06 0.0000000000000000e+00  2.8661773443723776e-05 -3.9938422357827847e-04 0.0000000000000000e+00  5.1905931790222632e-06 -9.5960411995655327e-06 0.0000000000000000e+00  2.8192306569985032e-05 -3.6743960861602309e-04 0.0000000000000000e+00  8.4291722645468333e-06 -2.4472871728430677e-05 0.0000000000000000e+00  1.0553789335670452e-05 -3.7112845024471708e-05 0.0000000000000000e+00  2.7589187701296922e-05 -3.3583323049066980e-04 0.0000000000000000e+00  1.5292400464651971e-05 -8.0214826684309225e-05 0.0000000000000000e+00  2.5985938677846439e-05 -2.7409340698407919e-04 0.0000000000000000e+00  1.2343963983872332e-05 -5.1780962478293559e-05 0.0000000000000000e+00  1.7220941625785602e-05 -1.0067780104273872e-04 0.0000000000000000e+00  2.4987333052281531e-05 -2.4423415694633404e-04 0.0000000000000000e+00  2.6853708298209193e-05 -3.0467353331772092e-04 0.0000000000000000e+00  1.8905700524292186e-05 -1.2342584313116691e-04 0.0000000000000000e+00  2.3856222301219953e-05 -2.1526613712531361e-04 0.0000000000000000e+00  2.0196882191541252e-05 -1.4684639822738408e-04 0.0000000000000000e+00  2.2861247563732786e-05 -1.8794298726265821e-04 0.0000000000000000e+00  2.1497876628494389e-05 -1.6621202793734680e-04 0.0000000000000000e+00  1.3950915429171775e-05 -6.4814227879342044e-05 0.0000000000000000e+00  2.9111056456979692e-05 -4.5725686791712485e-04 0.0000000000000000e+00  6.8244064076379339e-06 -1.6041795863148280e-05 0.0000000000000000e+00  2.1957452826974058e-05 -4.9681782549785777e-04 0.0000000000000000e+00  1.3360797084560816e-06 -1.3135366242080818e-06 0.0000000000000000e+00  2.2238211096797709e-05 -3.8316174824958141e-04 0.0000000000000000e+00  2.2590980554177265e-05 -4.1525815175872744e-04 0.0000000000000000e+00  5.7032870787622763e-06 -7.0995163605205683e-06 0.0000000000000000e+00  1.2022904054960494e-05 -3.0861254612424583e-05 0.0000000000000000e+00  2.0503772079066397e-05 -2.8903666502441726e-04 0.0000000000000000e+00  2.1769826546934081e-05 -3.5135630188540512e-04 0.0000000000000000e+00  2.0381668955635054e-05 -9.0450997116979794e-05 0.0000000000000000e+00  1.9714063522754979e-05 -2.5878322392559064e-04 0.0000000000000000e+00  1.4525158233457101e-05 -4.4984002580321178e-05 0.0000000000000000e+00  2.2478957044144679e-05 -1.1226529458961816e-04 0.0000000000000000e+00  1.8824236108168422e-05 -2.2933266027320675e-04 0.0000000000000000e+00  2.1190473408514306e-05 -3.1993958974208442e-04 0.0000000000000000e+00  2.5466879476559646e-05 -1.3582302742131064e-04 0.0000000000000000e+00  1.7833426990881136e-05 -2.0086261444145925e-04 0.0000000000000000e+00  4.8784086980296429e-07 -4.3569199236428667e-07 0.0000000000000000e+00  1.9401364183068699e-07 2.3920659050485631e-07 0.0000000000000000e+00  3.4395607611951806e-05 -5.2554922625078432e-04 0.0000000000000000e+00  3.0413798626084761e-06 -2.5307952657588306e-06 0.0000000000000000e+00  1.5658