<?xml version="1.0"?>
<VTKFile type="UnstructuredGrid"  version="0.1"  >
<UnstructuredGrid>
<Piece  NumberOfPoints="1419" NumberOfCells="2698">
<Points>
<DataArray  type="Float64"  NumberOfComponents="3"  format="ascii">0 0 0  0 0.41 0  2.5 0 0  2.5 0.41 0  0.6 0.19 0  0.6 0.21 0  0.25 0.2 0  0.15 0.2 0  0.2489897948556636 0.21 0  0.2489897948556636 0.19 0  0.6 0.2 0  0 0.3807142857143437 0  0 0.3514285714286952 0  0 0.3221428571430699 0  0 0.29285714285744 0  0 0.2635714285718054 0  0 0.2342857142861561 0  0 0.2050000000005308 0  0 0.175714285714732 0  0 0.1464285714289574 0  0 0.1171428571431897 0  0 0.08785714285737878 0  0 0.05857142857161107 0  0 0.02928571428580012 0  0.03015443760436003 0 0  0.06140001986583606 0 0  0.09377624077125973 0 0  0.1273239957535082 0 0  0.1620856860351972 0 0  0.1981052433264291 0 0  0.235428184091502 0 0  0.2741016576309132 0 0  0.3141745521465447 0 0  0.3556974926295285 0 0  0.3987229542472677 0 0  0.4433053055141081 0 0  0.4895008759286886 0 0  0.5373680609405097 0 0  0.5869673343216626 0 0  0.6383613676634521 0 0  0.6916151138468254 0 0  0.7467958595648856 0 0  0.8039733463919316 0 0  0.8632198139502143 0 0  0.9246101326867038 0 0  0.9882218810934433 0 0  1.054135445558498 0 0  1.122434100542598 0 0  1.193204177141305 0 0  1.266535089879536 0 0  1.342519516046404 0 0  1.421253448503939 0 0  1.502836389106271 0 0  1.587371439758838 0 0  1.674965418777374 0 0  1.765729001825544 0 0  1.859776908880082 0 0  1.957227977487062 0 0  2.058205329869943 0 0  2.162836591189951 0 0  2.271253957290865 0 0  2.383594446803425 0 0  2.5 0.1024999999997612 0  2.5 0.2049999999994743 0  2.5 0.3074999999997183 0  2.383594446803656 0.41 0  2.271253957291315 0.41 0  2.162836591190598 0.41 0  2.058205329870775 0.41 0  1.957227977488067 0.41 0  1.859776908881246 0.41 0  1.765729001826854 0.41 0  1.674965418778818 0.41 0  1.58737143976041 0.41 0  1.502836389107956 0.41 0  1.421253448505726 0.41 0  1.342519516048286 0.41 0  1.266535089881505 0.41 0  1.193204177143353 0.41 0  1.122434100544716 0.41 0  1.05413544556068 0.41 0  0.9882218810956305 0.41 0  0.9246101326886647 0.41 0  0.8632198139519631 0.41 0  0.8039733463934788 0.41 0  0.7467958595662458 0.41 0  0.6916151138480078 0.41 0  0.6383613676644679 0.41 0  0.5869673343225223 0.41 0  0.5373680609412221 0.41 0  0.4895008759292634 0.41 0  0.4433053055145528 0.41 0  0.3987229542475914 0.41 0  0.3556974926297398 0.41 0  0.3141745521466497 0.41 0  0.2741016576310038 0.41 0  0.2354281840915826 0.41 0  0.1981052433265003 0.41 0  0.1620856860352591 0.41 0  0.1273239957535623 0.41 0  0.09377624077128965 0.41 0  0.06140001986584975 0.41 0  0.03015443760436654 0.41 0  0.2497468076502589 0.2050254481002335 0  0.2497468076502614 0.1949745518997913 0  0.2469965252529372 0.1829317073451959 0  0.2439893735792749 0.1762316384219906 0  0.2400332147834255 0.1700443375285386 0  0.2352133972704371 0.1645032867342007 0  0.2296339016332438 0.1597280261969788 0  0.2234150974217223 0.1558215752574715 0  0.2166911463437691 0.1528682099456123 0  0.2096071079204251 0.1509316448471593 0  0.2023158100364996 0.1500536585536553 0  0.194974551899914 0.1502531923497262 0  0.1877417105387872 0.1515259415822739 0  0.1807733240461124 0.153844448527136 0  0.1742197252835808 0.15715869474974 0  0.1682222986673531 0.1613971801805478 0  0.162910430003803 0.1664684656256651 0  0.1583987151779087 0.1722631454351573 0  0.1547844879126891 0.178656207771761 0  0.1521457199348551 0.1855097315605723 0  0.1505393388476355 0.1926758619366523 0  0.1505393388476328 0.2073241380633295 0  0.1521457199348437 0.2144902684393899 0  0.1547844879126531 0.221343792228163 0  0.1583987151778488 0.2277368545647528 0  0.1629104300036858 0.2335315343742052 0  0.1682222986671726 0.2386028198193036 0  0.1742197252833576 0.2428413052501257 0  0.1807733240458683 0.2461555514727623 0  0.1877417105384929 0.2484740584176516 0  0.1949745518995776 0.2497468076502398 0  0.202315810036185 0.2499463414463592 0  0.2096071079201568 0.2490683551528932 0  0.2166911463435495 0.2471317900544655 0  0.2234150974215506 0.2441784247426195 0  0.2296339016331197 0.2402719738031125 0  0.2352133972703547 0.2354967132658811 0  0.2400332147833751 0.2299556624715287 0  0.2439893735792577 0.2237683615780412 0  0.246996525252926 0.2170682926548348 0  0.25645809709277 0.21 0  0.2639263993298655 0.21 0  0.271394701566961 0.21 0  0.2788630038040554 0.21 0  0.2863313060411479 0.21 0  0.2937996082782405 0.21 0  0.301267910515333 0.21 0  0.3087362127524279 0.21 0  0.3162045149895234 0.21 0  0.3236728172265972 0.21 0  0.3311411194636928 0.21 0  0.3386094217007701 0.21 0  0.3460777239378666 0.21 0  0.3535460261749672 0.21 0  0.3610143284120516 0.21 0  0.3684826306491596 0.21 0  0.3759509328862226 0.21 0  0.383419235123329 0.21 0  0.3908875373604028 0.21 0  0.3983558395975142 0.21 0  0.4058241418345938 0.21 0  0.4132924440716992 0.21 0  0.4207607463087888 0.21 0  0.4282290485459029 0.21 0  0.4356973507830418 0.21 0  0.4431656530201649 0.21 0  0.4506339552573136 0.21 0  0.4581022574944306 0.21 0  0.4655705597315852 0.21 0  0.4730388619686996 0.21 0  0.480507164205851 0.21 0  0.4879754664429498 0.21 0  0.4954437686800938 0.21 0  0.502912070917267 0.21 0  0.5103803731544119 0.21 0  0.5178486753915261 0.21 0  0.5253169776286404 0.21 0  0.5327852798657868 0.21 0  0.5402535821029386 0.21 0  0.54772188434007 0.21 0  0.5551901865771842 0.21 0  0.5626584888143201 0.21 0  0.5701267910514778 0.21 0  0.5775950932886138 0.21 0  0.5850633955257281 0.21 0  0.5925316977628483 0.21 0  0.6 0.2050000000000054 0  0.6 0.1950000000000217 0  0.5925316977628897 0.19 0  0.5850633955257988 0.19 0  0.5775950932887378 0.19 0  0.5701267910515998 0.19 0  0.5626584888145268 0.19 0  0.5551901865773963 0.19 0  0.547721884340339 0.19 0  0.5402535821032429 0.19 0  0.5327852798661811 0.19 0  0.5253169776290537 0.19 0  0.5178486753919799 0.19 0  0.5103803731549078 0.19 0  0.502912070917822 0.19 0  0.4954437686807294 0.19 0  0.4879754664436223 0.19 0  0.4805071642065402 0.19 0  0.4730388619694271 0.19 0  0.4655705597323621 0.19 0  0.4581022574952563 0.19 0  0.4506339552581777 0.19 0  0.4431656530210671 0.19 0  0.4356973507839815 0.19 0  0.4282290485468779 0.19 0  0.4207607463097617 0.19 0  0.4132924440726327 0.19 0  0.4058241418354857 0.19 0  0.3983558395983636 0.19 0  0.3908875373612097 0.19 0  0.3834192351240934 0.19 0  0.3759509328869369 0.19 0  0.3684826306498175 0.19 0  0.361014328412667 0.19 0  0.3535460261755617 0.19 0  0.3460777239384295 0.19 0  0.3386094217012945 0.19 0  0.3311411194641595 0.19 0  0.3236728172270245 0.19 0  0.3162045149898895 0.19 0  0.3087362127527544 0.19 0  0.3012679105156187 0.19 0  0.2937996082784807 0.19 0  0.2863313060413428 0.19 0  0.2788630038042048 0.19 0  0.2713947015670686 0.19 0  0.2639263993299336 0.19 0  0.2564580970927985 0.19 0  0.2607803159922026 0.2000727136295815 0  0.5887803774232762 0.2001272386983733 0  0.5745072403740523 0.2002044435018727 0  0.5511891430099709 0.2001122610077113 0  0.2751288526855082 0.20000000000002 0  0.5365194309847112 0.1999999999999436 0  0.2894621222999649 0.1998691686390484 0  0.5215828265105155 0.1999999999999228 0  0.3127789816668748 0.1998657885438805 0  0.3274069683451451 0.2000000000000796 0  0.5066462220363641 0.199999999999908 0  0.3650630746574081 0.199866017807523 0  0.476773013087985 0.1999999999998713 0  0.3417402379596385 0.1998691686391011 0  0.3796850840047755 0.200000000000134 0  0.4618364086138087 0.1999999999998546 0  0.4917096175621762 0.1999999999998808 0  0.3946216884789568 0.2000000000001512 0  0.446899804139621 0.1999999999998389 0  0.4089549580935208 0.1998691686391595 0  0.4322718174608562 0.200127451265745 0  0.4201487168029707 0.1999966199048527 0  0.3528922713220932 0.2000185703532356 0  0.5633122436674589 0.1999814296467508 0  0.3006558810093873 0.1999966199048318 0  0.5815926498168407 0.1966545283159175 0  0.2677053789419034 0.1964246479135325 0  0.5290511287476175 0.1970915826863981 0  0.5439877332217911 0.197091582686394 0  0.2825131256993216 0.2035478995978015 0  0.3199386661080599 0.202908417313604 0  0.4842413153250809 0.1970915826863873 0  0.5141145242734466 0.1970915826863843 0  0.3722167817676917 0.2029084173136195 0  0.4693047108508938 0.1970915826863783 0  0.3348752705822316 0.202908417313609 0  0.3871533862418661 0.2029084173136212 0  0.4543681063767183 0.1970915826863795 0  0.4991779197992749 0.1970915826863902 0  0.4020059614928624 0.203547899597858 0  0.4394315019025246 0.1970915826863714 0  0.2550657455369551 0.2034088125358657 0  0.2548908499171161 0.1966940311614271 0  0.5946539510196798 0.2024302972968126 0  0.267698176732111 0.2039977513680092 0  0.4261685417851465 0.196409292431739 0  0.3590076176283495 0.196411355804271 0  0.5571672426447437 0.2036011176410121 0  0.3066757059912147 0.1964092924317024 0  0.594380730180568 0.1966558399668133 0  0.4842413153245942 0.2040749161535287 0  0.4693047108503577 0.2040749161535231 0  0.3871533862424271 0.1959250838464788 0  0.372246743208829 0.1959123236376545 0  0.5141145242731028 0.2040749161535395 0  0.4543681063761134 0.2040749161535186 0  0.4019979587101454 0.1959834479682427 0  0.4394608940728603 0.2040870543693135 0  0.5439623148931173 0.2040856076781014 0  0.5290511287473298 0.2040749161535501 0  0.4991779197988497 0.2040749161535382 0  0.3347912413592433 0.1959225448935183 0  0.3199680582793816 0.1959123018030061 0  0.2825051229162361 0.1959834479681729 0  0.3590471196690275 0.2036304442587945 0  0.5571594006495384 0.1963685282145804 0  0.3067669986803285 0.203627750582736 0  0.4262598344738712 0.2036568242185335 0  0.5814408164431408 0.2041285596160068 0  0.5688286748170428 0.1961819304477386 0  0.4145905603063645 0.2038180695522843 0  0.3473758401724931 0.2038180695522752 0  0.2950977245128307 0.2038180695522663 0  0.5688286748170693 0.203818069552238 0  0.2950977245127906 0.1961819304477774 0  0.3473758401723931 0.1961819304478349 0  0.4145905603061963 0.1961819304479011 0  0.2601812407614425 0.2056861609747042
[...]
<PointData  Vectors="f_40-1"> 
<DataArray  type="Float64"  Name="f_40-1"  NumberOfComponents="3" format="ascii">0.0000000000000000e+00 0.0000000000000000e+00 0.0000000000000000e+00  0.0000000000000000e+00 0.0000000000000000e+00 0.0000000000000000e+00  0.0000000000000000e+00 0.0000000000000000e+00 0.0000000000000000e+00  0.0000000000000000e+00 0.0000000000000000e+00 0.0000000000000000e+00  -2.9168724641933695e-07 8.4836485373671717e-09 0.0000000000000000e+00  -2.8919288083075258e-07 -2.3405018342516625e-08 0.0000000000000000e+00  0.0000000000000000e+00 0.0000000000000000e+00 0.0000000000000000e+00  0.0000000000000000e+00 0.0000000000000000e+00 0.0000000000000000e+00  0.0000000000000000e+00 0.0000000000000000e+00 0.0000000000000000e+00  0.0000000000000000e+00 0.0000000000000000e+00 0.0000000000000000e+00  -2.9108883208522490e-07 -7.3976976835270322e-09 0.0000000000000000e+00  0.0000000000000000e+00 0.0000000000000000e+00 0.0000000000000000e+00  0.0000000000000000e+00 0.0000000000000000e+00 0.0000000000000000e+00  0.0000000000000000e+00 0.0000000000000000e+00 0.0000000000000000e+00  0.0000000000000000e+00 0.0000000000000000e+00 0.0000000000000000e+00  0.0000000000000000e+00 0.0000000000000000e+00 0.0000000000000000e+00  0.0000000000000000e+00 0.0000000000000000e+00 0.0000000000000000e+00  0.0000000000000000e+00 0.0000000000000000e+00 0.0000000000000000e+00  0.0000000000000000e+00 0.0000000000000000e+00 0.0000000000000000e+00  0.0000000000000000e+00 0.0000000000000000e+00 0.0000000000000000e+00  0.0000000000000000e+00 0.0000000000000000e+00 0.0000000000000000e+00  0.0000000000000000e+00 0.0000000000000000e+00 0.0000000000000000e+00  0.0000000000000000e+00 0.0000000000000000e+00 0.0000000000000000e+00  0.0000000000000000e+00 0.0000000000000000e+00 0.0000000000000000e+00  0.0000000000000000e+00 0.0000000000000000e+00 0.0000000000000000e+00  0.0000000000000000e+00 0.0000000000000000e+00 0.0000000000000000e+00  0.0000000000000000e+00 0.0000000000000000e+00 0.0000000000000000e+00  0.0000000000000000e+00 0.0000000000000000e+00 0.0000000000000000e+00  0.0000000000000000e+00 0.0000000000000000e+00 0.0000000000000000e+00  0.0000000000000000e+00 0.0000000000000000e+00 0.0000000000000000e+00  0.0000000000000000e+00 0.0000000000000000e+00 0.0000000000000000e+00  0.0000000000000000e+00 0.0000000000000000e+00 0.0000000000000000e+00  0.0000000000000000e+00 0.0000000000000000e+00 0.0000000000000000e+00  0.0000000000000000e+00 0.0000000000000000e+00 0.0000000000000000e+00  0.0000000000000000e+00 0.0000000000000000e+00 0.0000000000000000e+00  0.0000000000000000e+00 0.0000000000000000e+00 0.0000000000000000e+00  0.0000000000000000e+00 0.0000000000000000e+00 0.0000000000000000e+00  0.0000000000000000e+00 0.0000000000000000e+00 0.0000000000000000e+00  0.0000000000000000e+00 0.0000000000000000e+00 0.0000000000000000e+00  0.0000000000000000e+00 0.0000000000000000e+00 0.0000000000000000e+00  0.0000000000000000e+00 0.0000000000000000e+00 0.0000000000000000e+00  0.0000000000000000e+00 0.0000000000000000e+00 0.0000000000000000e+00  0.0000000000000000e+00 0.0000000000000000e+00 0.0000000000000000e+00  0.0000000000000000e+00 0.0000000000000000e+00 0.0000000000000000e+00  0.0000000000000000e+00 0.0000000000000000e+00 0.0000000000000000e+00  0.0000000000000000e+00 0.0000000000000000e+00 0.0000000000000000e+00  0.0000000000000000e+00 0.0000000000000000e+00 0.0000000000000000e+00  0.0000000000000000e+00 0.0000000000000000e+00 0.0000000000000000e+00  0.0000000000000000e+00 0.0000000000000000e+00 0.0000000000000000e+00  0.0000000000000000e+00 0.0000000000000000e+00 0.0000000000000000e+00  0.0000000000000000e+00 0.0000000000000000e+00 0.0000000000000000e+00  0.0000000000000000e+00 0.0000000000000000e+00 0.0000000000000000e+00  0.0000000000000000e+00 0.0000000000000000e+00 0.0000000000000000e+00  0.0000000000000000e+00 0.0000000000000000e+00 0.0000000000000000e+00  0.0000000000000000e+00 0.0000000000000000e+00 0.0000000000000000e+00  0.0000000000000000e+00 0.0000000000000000e+00 0.0000000000000000e+00  0.0000000000000000e+00 0.0000000000000000e+00 0.0000000000000000e+00  0.0000000000000000e+00 0.0000000000000000e+00 0.0000000000000000e+00  0.0000000000000000e+00 0.0000000000000000e+00 0.0000000000000000e+00  0.0000000000000000e+00 0.0000000000000000e+00 0.0000000000000000e+00  0.0000000000000000e+00 0.0000000000000000e+00 0.0000000000000000e+00  0.0000000000000000e+00 0.0000000000000000e+00 0.0000000000000000e+00  0.0000000000000000e+00 0.0000000000000000e+00 0.0000000000000000e+00  0.0000000000000000e+00 0.0000000000000000e+00 0.0000000000000000e+00  0.0000000000000000e+00 0.0000000000000000e+00 0.0000000000000000e+00  0.0000000000000000e+00 0.0000000000000000e+00 0.0000000000000000e+00  0.0000000000000000e+00 0.0000000000000000e+00 0.0000000000000000e+00  0.0000000000000000e+00 0.0000000000000000e+00 0.0000000000000000e+00  0.0000000000000000e+00 0.0000000000000000e+00 0.0000000000000000e+00  0.0000000000000000e+00 0.0000000000000000e+00 0.0000000000000000e+00  0.0000000000000000e+00 0.0000000000000000e+00 0.0000000000000000e+00  0.0000000000000000e+00 0.0000000000000000e+00 0.0000000000000000e+00  0.0000000000000000e+00 0.0000000000000000e+00 0.0000000000000000e+00  0.0000000000000000e+00 0.0000000000000000e+00 0.0000000000000000e+00  0.0000000000000000e+00 0.0000000000000000e+00 0.0000000000000000e+00  0.0000000000000000e+00 0.0000000000000000e+00 0.0000000000000000e+00  0.0000000000000000e+00 0.0000000000000000e+00 0.0000000000000000e+00  0.0000000000000000e+00 0.0000000000000000e+00 0.0000000000000000e+00  0.0000000000000000e+00 0.0000000000000000e+00 0.0000000000000000e+00  0.0000000000000000e+00 0.0000000000000000e+00 0.0000000000000000e+00  0.0000000000000000e+00 0.0000000000000000e+00 0.0000000000000000e+00  0.0000000000000000e+00 0.0000000000000000e+00 0.0000000000000000e+00  0.0000000000000000e+00 0.0000000000000000e+00 0.0000000000000000e+00  0.0000000000000000e+00 0.0000000000000000e+00 0.0000000000000000e+00  0.0000000000000000e+00 0.0000000000000000e+00 0.0000000000000000e+00  0.0000000000000000e+00 0.0000000000000000e+00 0.0000000000000000e+00  0.0000000000000000e+00 0.0000000000000000e+00 0.0000000000000000e+00  0.0000000000000000e+00 0.0000000000000000e+00 0.0000000000000000e+00  0.0000000000000000e+00 0.0000000000000000e+00 0.0000000000000000e+00  0.0000000000000000e+00 0.0000000000000000e+00 0.0000000000000000e+00  0.0000000000000000e+00 0.0000000000000000e+00 0.0000000000000000e+00  0.0000000000000000e+00 0.0000000000000000e+00 0.0000000000000000e+00  0.0000000000000000e+00 0.0000000000000000e+00 0.0000000000000000e+00  0.0000000000000000e+00 0.0000000000000000e+00 0.0000000000000000e+00  0.0000000000000000e+00 0.0000000000000000e+00 0.0000000000000000e+00  0.0000000000000000e+00 0.0000000000000000e+00 0.0000000000000000e+00  0.0000000000000000e+00 0.0000000000000000e+00 0.0000000000000000e+00  0.0000000000000000e+00 0.0000000000000000e+00 0.0000000000000000e+00  0.0000000000000000e+00 0.0000000000000000e+00 0.0000000000000000e+00  0.0000000000000000e+00 0.0000000000000000e+00 0.0000000000000000e+00  0.0000000000000000e+00 0.0000000000000000e+00 0.0000000000000000e+00  0.0000000000000000e+00 0.0000000000000000e+00 0.0000000000000000e+00  0.0000000000000000e+00 0.0000000000000000e+00 0.0000000000000000e+00  0.0000000000000000e+00 0.0000000000000000e+00 0.0000000000000000e+00  0.0000000000000000e+00 0.0000000000000000e+00 0.0000000000000000e+00  0.0000000000000000e+00 0.0000000000000000e+00 0.0000000000000000e+00  0.0000000000000000e+00 0.0000000000000000e+00 0.0000000000000000e+00  0.0000000000000000e+00 0.0000000000000000e+00 0.0000000000000000e+00  0.0000000000000000e+00 0.0000000000000000e+00 0.0000000000000000e+00  0.0000000000000000e+00 0.0000000000000000e+00 0.0000000000000000e+00  0.0000000000000000e+00 0.0000000000000000e+00 0.0000000000000000e+00  0.0000000000000000e+00 0.0000000000000000e+00 0.0000000000000000e+00  0.0000000000000000e+00 0.0000000000000000e+00 0.0000000000000000e+00  0.0000000000000000e+00 0.0000000000000000e+00 0.0000000000000000e+00  0.0000000000000000e+00 0.0000000000000000e+00 0.0000000000000000e+00  0.0000000000000000e+00 0.0000000000000000e+00 0.0000000000000000e+00  0.0000000000000000e+00 0.0000000000000000e+00 0.0000000000000000e+00  0.0000000000000000e+00 0.0000000000000000e+00 0.0000000000000000e+00  0.0000000000000000e+00 0.0000000000000000e+00 0.0000000000000000e+00  0.0000000000000000e+00 0.0000000000000000e+00 0.0000000000000000e+00  0.0000000000000000e+00 0.0000000000000000e+00 0.0000000000000000e+00  0.0000000000000000e+00 0.0000000000000000e+00 0.0000000000000000e+00  0.0000000000000000e+00 0.0000000000000000e+00 0.0000000000000000e+00  0.0000000000000000e+00 0.0000000000000000e+00 0.0000000000000000e+00  0.0000000000000000e+00 0.0000000000000000e+00 0.0000000000000000e+00  0.0000000000000000e+00 0.0000000000000000e+00 0.0000000000000000e+00  0.0000000000000000e+00 0.0000000000000000e+00 0.0000000000000000e+00  0.0000000000000000e+00 0.0000000000000000e+00 0.0000000000000000e+00  0.0000000000000000e+00 0.0000000000000000e+00 0.0000000000000000e+00  0.0000000000000000e+00 0.0000000000000000e+00 0.0000000000000000e+00  0.0000000000000000e+00 0.0000000000000000e+00 0.0000000000000000e+00  0.0000000000000000e+00 0.0000000000000000e+00 0.0000000000000000e+00  0.0000000000000000e+00 0.0000000000000000e+00 0.0000000000000000e+00  0.0000000000000000e+00 0.0000000000000000e+00 0.0000000000000000e+00  0.0000000000000000e+00 0.0000000000000000e+00 0.0000000000000000e+00  0.0000000000000000e+00 0.0000000000000000e+00 0.0000000000000000e+00  0.0000000000000000e+00 0.0000000000000000e+00 0.0000000000000000e+00  0.0000000000000000e+00 0.0000000000000000e+00 0.0000000000000000e+00  0.0000000000000000e+00 0.0000000000000000e+00 0.0000000000000000e+00  0.0000000000000000e+00 0.0000000000000000e+00 0.0000000000000000e+00  0.0000000000000000e+00 0.0000000000000000e+00 0.0000000000000000e+00  0.0000000000000000e+00 0.0000000000000000e+00 0.0000000000000000e+00  0.0000000000000000e+00 0.0000000000000000e+00 0.0000000000000000e+00  -5.3447692086092405e-09 -2.4768904846144549e-08 0.0000000000000000e+00  -1.0195594034108545e-08 -2.6615939811361785e-08 0.0000000000000000e+00  -1.3842578018207633e-08 -2.7071758169414959e-08 0.0000000000000000e+00  -1.6975084430219113e-08 -2.6710144429684338e-08 0.0000000000000000e+00  -1.9848361533273460e-08 -2.6352305893005301e-08 0.0000000000000000e+00  -2.2933545652090359e-08 -2.6215837485036386e-08 0.0000000000000000e+00  -2.6075318038764267e-08 -2.6003616235425045e-08 0.0000000000000000e+00  -2.9442833916142326e-08 -2.5848418846292493e-08 0.0000000000000000e+00  -3.2891468090636546e-08 -2.5663048829460840e-08 0.0000000000000000e+00  -3.6508228114201540e-08 -2.5470993974408278e-08 0.0000000000000000e+00  -4.0280375296601687e-08 -2.5333808267881312e-08 0.0000000000000000e+00  -4.4180001089769683e-08 -2.5149478908516137e-08 0.0000000000000000e+00  -4.8283424018370675e-08 -2.4955502021432731e-08 0.0000000000000000e+00  -5.2478354457915549e-08 -2.4807453350642835e-08 0.0000000000000000e+00  -5.6902758298303880e-08 -2.4612933114863318e-08 0.0000000000000000e+00  -6.1415716444081865e-08 -2.4475012428788787e-08 0.0000000000000000e+00  -6.6155261079605301e-08 -2.4252033115590786e-08 0.0000000000000000e+00  -7.1022084646970422e-08 -2.4145490242332291e-08 0.0000000000000000e+00  -7.6092562186773271e-08 -2.3922548691869508e-08 0.0000000000000000e+00  -8.1278259244525000e-08 -2.3787023600994480e-08 0.0000000000000000e+00  -8.6687343541313704e-08 -2.3527782578791606e-08 0.0000000000000000e+00  -9.2246237057429565e-08 -2.3283120484886621e-08 0.0000000000000000e+00  -9.7954553982080743e-08 -2.3061456212674492e-08 0.0000000000000000e+00  -1.0386103323367733e-07 -2.2739637462088598e-08 0.0000000000000000e+00  -1.0990724312494809e-07 -2.2500962562051229e-08 0.0000000000000000e+00  -1.1617013083895179e-07 -2.2122413317641601e-08 0.0000000000000000e+00  -1.2258886870685102e-07 -2.1889083692119811e-08 0.0000000000000000e+00  -1.2919825470813570e-07 -2.1507149442156228e-08 0.0000000000000000e+00  -1.3594457849822258e-07 -2.1222958941420069e-08 0.0000000000000000e+00  -1.4290235501034405e-07 -2.0897292453954482e-08 0.0000000000000000e+00  -1.4997465626488215e-07 -2.0635534800916808e-08 0.0000000000000000e+00  -1.5729692231189809e-07 -2.0328296277675023e-08 0.0000000000000000e+00  -1.6473138776205439e-07 -2.0145896348750067e-08 0.0000000000000000e+00  -1.7238176165362104e-07 -1.9866394155360269e-08 0.0000000000000000e+00  -1.8021839110004380e-07 -1.9760966597714298e-08 0.0000000000000000e+00  -1.8824453991179528e-07 -1.9614240042674731e-08 0.0000000000000000e+00  -1.9644318095517642e-07 -1.9616039409303576e-08 0.0000000000000000e+00  -2.0482508998015671e-07 -1.9611957372052704e-08 0.0000000000000000e+00  -2.1342323150954120e-07 -1.9736610596586197e-08 0.0000000000000000e+00  -2.2221497539967464e-07 -1.9858162426749916e-08 0.0000000000000000e+00  -2.3125384441378897e-07 -2.0099109956577258e-08 0.0000000000000000e+00  -2.4044219753201534e-07 -2.0378791052136558e-08 0.0000000000000000e+00  -2.4991014094171723e-07 -2.0764953632278615e-08 0.0000000000000000e+00  -2.5949264704901390e-07 -2.1153849232580034e-08 0.0000000000000000e+00  -2.6930573582334049e-07 -2.1582152398179064e-08 0.0000000000000000e+00  -2.7935213780279495e-07 -2.2151139172283089e-08 0.0000000000000000e+00  -2.9044491630266953e-07 -1.5356921031059250e-08 0.0000000000000000e+00  -2.9155387077973411e-07 5.7099105446518147e-10 0.0000000000000000e+00  -2.8159031566245674e-07 9.1287686750068413e-09 0.0000000000000000e+00  -2.7147023436903360e-07 1.0239586572132462e-08 0.0000000000000000e+00  -2.6146857656661252e-07 1.1350500829893958e-08 0.0000000000000000e+00  -2.5171115893021464e-07 1.2398155514425512e-08 0.0000000000000000e+00  -2.4207601785219457e-07 1.3336186504846057e-08 0.0000000000000000e+00  -2.3273921063791581e-07 1.4211806127937803e-08 0.0000000000000000e+00  -2.2350219896863627e-07 1.5035267858352521e-08 0.0000000000000000e+00  -2.1455428060836152e-07 1.5760617579858756e-08 0.0000000000000000e+00  -2.0572701323106839e-07 1.6402839266671095e-08 0.0000000000000000e+00  -1.9717763636301203e-07 1.7021077611741507e-08 0.0000000000000000e+00  -1.8879190530449642e-07 1.7525119533444801e-08 0.0000000000000000e+00  -1.8064778279988497e-07 1.7998768671351452e-08 0.0000000000000000e+00  -1.7267414818750155e-07 1.8355284189289244e-08 0.0000000000000000e+00  -1.6491996937350002e-07 1.8734989904401571e-08 0.0000000000000000e+00  -1.5736739606508198e-07 1.8997976187537205e-08 0.0000000000000000e+00  -1.5000392342260889e-07 1.9295081439929588e-08 0.0000000000000000e+00  -1.4282449576626743e-07 1.9518971761683517e-08 0.0000000000000000e+00  -1.3586494286281463e-07 1.9776847518365238e-08 0.0000000000000000e+00  -1.2907117034708179e-07 1.9944601490220940e-08 0.0000000000000000e+00  -1.2248790384144054e-07 2.0177621895445210e-08 0.0000000000000000e+00  -1.1606693569513664e-07 2.0350893094152331e-08 0.0000000000000000e+00  -1.0984694643344535e-07 2.0592594047440334e-08 0.0000000000000000e+00  -1.0381550999158500e-07 2.0829874709954556e-08 0.0000000000000000e+00  -9.7936794978662958e-08 2.1049452943696050e-08 0.0000000000000000e+00  -9.2275625659803423e-08 2.1327479613609894e-08 0.0000000000000000e+00  -8.6738837906031860e-08 2.1562896451092603e-08 0.0000000000000000e+00  -8.1386096715106456e-08 2.1888585891264642e-08 0.0000000000000000e+00  -7.6188273722390796e-08 2.2134565424259315e-08 0.0000000000000000e+00  -7.1186441538346055e-08 2.2514861806595103e-08 0.0000000000000000e+00  -6.6318120561038464e-08 2.2764490208668861e-08 0.0000000000000000e+00  -6.1615380645477475e-08 2.3142761770423344e-08 0.0000000000000000e+00  -5.7076039044642901e-08 2.3425067807341170e-08 0.0000000000000000e+00  -5.2658784453340735e-08 2.3744053479565264e-08 0.0000000000000000e+00  -4.8426595743060289e-08 2.4041555572042310e-08 0.0000000000000000e+00  -4.4373005101498417e-08 2.4363391544796444e-08 0.0000000000000000e+00  -4.0424844607192573e-08 2.4650159412592128e-08 0.0000000000000000e+00  -3.6653564533146511e-08 2.4909670363870789e-08 0.0000000000000000e+00  -3.2996971233643816e-08 2.5203099909425797e-08 0.0000000000000000e+00  -2.9563822621960589e-08 2.5450911794760760e-08 0.0000000000000000e+00  -2.6164232109271134e-08 2.5691016703185488e-08 0.0000000000000000e+00  -2.3027772750984145e-08 2.5963971177283825e-08 0.0000000000000000e+00  -1.9898677451974231e-08 2.6169229275854472e-08 0.0000000000000000e+00  -1.7010045560747953e-08 2.6573036254301698e-08 0.0000000000000000e+00  -1.3831060633512456e-08 2.6937477471477171e-08 0.0000000000000000e+00  -1.0207019936463759e-08 2.6472335296651434e-08 0.0000000000000000e+00  -5.4437822999508381e-09 2.4556118099892226e-08 0.0000000000000000e+00  -1.2807213815727331e-08 -2.2058050624948990e-10 0.0000000000000000e+00  -2.7554202861893369e-07 -6.2579560047211256e-09 0.0000000000000000e+00  -2.5638728921841363e-07 -4.8847547559907472e-09 0.0000000000000000e+00  -2.2701879060469384e-07 -2.8005837892255128e-09 0.0000000000000000e+00  -1.5515417437952093e-08 -7.3903164538173816e-11 0.0000000000000000e+00  -2.0958629856641964e-07 -1.7355467746866758e-09 0.0000000000000000e+00  -2.1096483115498935e-08 2.4684305036670218e-10 0.0000000000000000e+00  -1.9261381235459156e-07 -1.1229496531016682e-09 0.0000000000000000e+00  -3.1312186728701454e-08 1.2800101130862868e-10 0.0000000000000000e+00  -3.8425564628809582e-08 -3.0847598127441079e-10 0.0000000000000000e+00  -1.7643383078554724e-07 -7.8253083407800627e-10 0.0000000000000000e+00  -5.9380677906888796e-08 -3.1010154615837530e-10 0.0000000000000000e+00  -1.4637975156615014e-07 -6.5581995890859964e-10 0.0000000000000000e+00  -4.5925471070569429e-08 -1.0317988376073828e-10 0.0000000000000000e+00  -6.8620088071015100e-08 -7.8340526205240670e-10 0.0000000000000000e+00  -1.3246882535994421e-07 -7.4476987776797273e-10 0.0000000000000000e+00  -1.6102709039180783e-07 -6.5444115201910726e-10 0.0000000000000000e+00  -7.8690707695660135e-08 -9.2215932888002667e-10 0.0000000000000000e+00  -1.1928197671800216e-07 -8.7320500887852665e-10 0.0000000000000000e+00  -8.8968543163969410e-08 -6.9489778092013915e-10 0.0000000000000000e+00  -1.0705132890202038e-07 -1.2378050621873952e-09 0.0000000000000000e+00  -9.7475661073243515e-08 -9.9655929053050098e-10 0.0000000000000000e+00  -5.2201660498667954e-08 -5.6629905138173718e-10 0.0000000000000000e+00  -2.4209936053447502e-07 -3.5154998363319815e-09 0.0000000000000000e+00  -2.5870619176199838e-08 -1.4413378541834600e-10 0.0000000000000000e+00  -2.6615470156464814e-07 8.2576079192630066e-11 0.0000000000000000e+00  -1.3409970057165899e-08 1.0021559263380708e-08 0.0000000000000000e+00  -2.0113268836844105e-07 3.8770136669206461e-09 0.0000000000000000e+00  -2.1856216334140436e-07 2.9632135657884220e-09 0.0000000000000000e+00  -1.8326980345593889e-08 -9.4483869372750337e-09 0.0000000000000000e+00  -3.4719384314207088e-08 -7.6100708934907150e-09 0.0000000000000000e+00  -1.5363083440700199e-07 5.1132263198385003e-09 0.0000000000000000e+00  -1.8451337554093151e-07 4.5170565060082973e-09 0.0000000000000000e+00  -6.3810706104779399e-08 -7.5928142009382255e-09 0.0000000000000000e+00  -1.3933484781843994e-07 5.2184446807579785e-09 0.0000000000000000e+00  -4.2254036191970151e-08 -7.5954509975388740e-09 0.0000000000000000e+00  -7.3569746728026944e-08 -7.6100229931791736e-09 0.0000000000000000e+00  -1.2578365408830842e-07 5.2514785554770876e-09 0.0000000000000000e+00  -1.6868386307428003e-07 4.9048385103649004e-09 0.0000000000000000e+00  -8.3910657166851491e-08 -9.0331472345042621e-09 0.0000000000000000e+00  -1.1295553665297069e-07 5.2923067423442727e-09 0.0000000000000000e+00  -9.0614656635968454e-09 -5.9234009751488184e-09 0.0000000000000000e+00  -8.8452056097788714e-09 5.2841823750156149e-09 0.0000000000000000e+00  -2.8339749593513557e-07 -1.0554574234178869e-08 0.0000000000000000e+0