<?xml version="1.0"?>
<VTKFile type="UnstructuredGrid"  version="0.1"  >
<UnstructuredGrid>
<Piece  NumberOfPoints="1419" NumberOfCells="2698">
<Points>
<DataArray  type="Float64"  NumberOfComponents="3"  format="ascii">0 0 0  0 0.41 0  2.5 0 0  2.5 0.41 0  0.6 0.19 0  0.6 0.21 0  0.25 0.2 0  0.15 0.2 0  0.2489897948556636 0.21 0  0.2489897948556636 0.19 0  0.6 0.2 0  0 0.3807142857143437 0  0 0.3514285714286952 0  0 0.3221428571430699 0  0 0.29285714285744 0  0 0.2635714285718054 0  0 0.2342857142861561 0  0 0.2050000000005308 0  0 0.175714285714732 0  0 0.1464285714289574 0  0 0.1171428571431897 0  0 0.08785714285737878 0  0 0.05857142857161107 0  0 0.02928571428580012 0  0.03015443760436003 0 0  0.06140001986583606 0 0  0.09377624077125973 0 0  0.1273239957535082 0 0  0.1620856860351972 0 0  0.1981052433264291 0 0  0.235428184091502 0 0  0.2741016576309132 0 0  0.3141745521465447 0 0  0.3556974926295285 0 0  0.3987229542472677 0 0  0.4433053055141081 0 0  0.4895008759286886 0 0  0.5373680609405097 0 0  0.5869673343216626 0 0  0.6383613676634521 0 0  0.6916151138468254 0 0  0.7467958595648856 0 0  0.8039733463919316 0 0  0.8632198139502143 0 0  0.9246101326867038 0 0  0.9882218810934433 0 0  1.054135445558498 0 0  1.122434100542598 0 0  1.193204177141305 0 0  1.266535089879536 0 0  1.342519516046404 0 0  1.421253448503939 0 0  1.502836389106271 0 0  1.587371439758838 0 0  1.674965418777374 0 0  1.765729001825544 0 0  1.859776908880082 0 0  1.957227977487062 0 0  2.058205329869943 0 0  2.162836591189951 0 0  2.271253957290865 0 0  2.383594446803425 0 0  2.5 0.1024999999997612 0  2.5 0.2049999999994743 0  2.5 0.3074999999997183 0  2.383594446803656 0.41 0  2.271253957291315 0.41 0  2.162836591190598 0.41 0  2.058205329870775 0.41 0  1.957227977488067 0.41 0  1.859776908881246 0.41 0  1.765729001826854 0.41 0  1.674965418778818 0.41 0  1.58737143976041 0.41 0  1.502836389107956 0.41 0  1.421253448505726 0.41 0  1.342519516048286 0.41 0  1.266535089881505 0.41 0  1.193204177143353 0.41 0  1.122434100544716 0.41 0  1.05413544556068 0.41 0  0.9882218810956305 0.41 0  0.9246101326886647 0.41 0  0.8632198139519631 0.41 0  0.8039733463934788 0.41 0  0.7467958595662458 0.41 0  0.6916151138480078 0.41 0  0.6383613676644679 0.41 0  0.5869673343225223 0.41 0  0.5373680609412221 0.41 0  0.4895008759292634 0.41 0  0.4433053055145528 0.41 0  0.3987229542475914 0.41 0  0.3556974926297398 0.41 0  0.3141745521466497 0.41 0  0.2741016576310038 0.41 0  0.2354281840915826 0.41 0  0.1981052433265003 0.41 0  0.1620856860352591 0.41 0  0.1273239957535623 0.41 0  0.09377624077128965 0.41 0  0.06140001986584975 0.41 0  0.03015443760436654 0.41 0  0.2497468076502589 0.2050254481002335 0  0.2497468076502614 0.1949745518997913 0  0.2469965252529372 0.1829317073451959 0  0.2439893735792749 0.1762316384219906 0  0.2400332147834255 0.1700443375285386 0  0.2352133972704371 0.1645032867342007 0  0.2296339016332438 0.1597280261969788 0  0.2234150974217223 0.1558215752574715 0  0.2166911463437691 0.1528682099456123 0  0.2096071079204251 0.1509316448471593 0  0.2023158100364996 0.1500536585536553 0  0.194974551899914 0.1502531923497262 0  0.1877417105387872 0.1515259415822739 0  0.1807733240461124 0.153844448527136 0  0.1742197252835808 0.15715869474974 0  0.1682222986673531 0.1613971801805478 0  0.162910430003803 0.1664684656256651 0  0.1583987151779087 0.1722631454351573 0  0.1547844879126891 0.178656207771761 0  0.1521457199348551 0.1855097315605723 0  0.1505393388476355 0.1926758619366523 0  0.1505393388476328 0.2073241380633295 0  0.1521457199348437 0.2144902684393899 0  0.1547844879126531 0.221343792228163 0  0.1583987151778488 0.2277368545647528 0  0.1629104300036858 0.2335315343742052 0  0.1682222986671726 0.2386028198193036 0  0.1742197252833576 0.2428413052501257 0  0.1807733240458683 0.2461555514727623 0  0.1877417105384929 0.2484740584176516 0  0.1949745518995776 0.2497468076502398 0  0.202315810036185 0.2499463414463592 0  0.2096071079201568 0.2490683551528932 0  0.2166911463435495 0.2471317900544655 0  0.2234150974215506 0.2441784247426195 0  0.2296339016331197 0.2402719738031125 0  0.2352133972703547 0.2354967132658811 0  0.2400332147833751 0.2299556624715287 0  0.2439893735792577 0.2237683615780412 0  0.246996525252926 0.2170682926548348 0  0.25645809709277 0.21 0  0.2639263993298655 0.21 0  0.271394701566961 0.21 0  0.2788630038040554 0.21 0  0.2863313060411479 0.21 0  0.2937996082782405 0.21 0  0.301267910515333 0.21 0  0.3087362127524279 0.21 0  0.3162045149895234 0.21 0  0.3236728172265972 0.21 0  0.3311411194636928 0.21 0  0.3386094217007701 0.21 0  0.3460777239378666 0.21 0  0.3535460261749672 0.21 0  0.3610143284120516 0.21 0  0.3684826306491596 0.21 0  0.3759509328862226 0.21 0  0.383419235123329 0.21 0  0.3908875373604028 0.21 0  0.3983558395975142 0.21 0  0.4058241418345938 0.21 0  0.4132924440716992 0.21 0  0.4207607463087888 0.21 0  0.4282290485459029 0.21 0  0.4356973507830418 0.21 0  0.4431656530201649 0.21 0  0.4506339552573136 0.21 0  0.4581022574944306 0.21 0  0.4655705597315852 0.21 0  0.4730388619686996 0.21 0  0.480507164205851 0.21 0  0.4879754664429498 0.21 0  0.4954437686800938 0.21 0  0.502912070917267 0.21 0  0.5103803731544119 0.21 0  0.5178486753915261 0.21 0  0.5253169776286404 0.21 0  0.5327852798657868 0.21 0  0.5402535821029386 0.21 0  0.54772188434007 0.21 0  0.5551901865771842 0.21 0  0.5626584888143201 0.21 0  0.5701267910514778 0.21 0  0.5775950932886138 0.21 0  0.5850633955257281 0.21 0  0.5925316977628483 0.21 0  0.6 0.2050000000000054 0  0.6 0.1950000000000217 0  0.5925316977628897 0.19 0  0.5850633955257988 0.19 0  0.5775950932887378 0.19 0  0.5701267910515998 0.19 0  0.5626584888145268 0.19 0  0.5551901865773963 0.19 0  0.547721884340339 0.19 0  0.5402535821032429 0.19 0  0.5327852798661811 0.19 0  0.5253169776290537 0.19 0  0.5178486753919799 0.19 0  0.5103803731549078 0.19 0  0.502912070917822 0.19 0  0.4954437686807294 0.19 0  0.4879754664436223 0.19 0  0.4805071642065402 0.19 0  0.4730388619694271 0.19 0  0.4655705597323621 0.19 0  0.4581022574952563 0.19 0  0.4506339552581777 0.19 0  0.4431656530210671 0.19 0  0.4356973507839815 0.19 0  0.4282290485468779 0.19 0  0.4207607463097617 0.19 0  0.4132924440726327 0.19 0  0.4058241418354857 0.19 0  0.3983558395983636 0.19 0  0.3908875373612097 0.19 0  0.3834192351240934 0.19 0  0.3759509328869369 0.19 0  0.3684826306498175 0.19 0  0.361014328412667 0.19 0  0.3535460261755617 0.19 0  0.3460777239384295 0.19 0  0.3386094217012945 0.19 0  0.3311411194641595 0.19 0  0.3236728172270245 0.19 0  0.3162045149898895 0.19 0  0.3087362127527544 0.19 0  0.3012679105156187 0.19 0  0.2937996082784807 0.19 0  0.2863313060413428 0.19 0  0.2788630038042048 0.19 0  0.2713947015670686 0.19 0  0.2639263993299336 0.19 0  0.2564580970927985 0.19 0  0.2607803159922026 0.2000727136295815 0  0.5887803774232762 0.2001272386983733 0  0.5745072403740523 0.2002044435018727 0  0.5511891430099709 0.2001122610077113 0  0.2751288526855082 0.20000000000002 0  0.5365194309847112 0.1999999999999436 0  0.2894621222999649 0.1998691686390484 0  0.5215828265105155 0.1999999999999228 0  0.3127789816668748 0.1998657885438805 0  0.3274069683451451 0.2000000000000796 0  0.5066462220363641 0.199999999999908 0  0.3650630746574081 0.199866017807523 0  0.476773013087985 0.1999999999998713 0  0.3417402379596385 0.1998691686391011 0  0.3796850840047755 0.200000000000134 0  0.4618364086138087 0.1999999999998546 0  0.4917096175621762 0.1999999999998808 0  0.3946216884789568 0.2000000000001512 0  0.446899804139621 0.1999999999998389 0  0.4089549580935208 0.1998691686391595 0  0.4322718174608562 0.200127451265745 0  0.4201487168029707 0.1999966199048527 0  0.3528922713220932 0.2000185703532356 0  0.5633122436674589 0.1999814296467508 0  0.3006558810093873 0.1999966199048318 0  0.5815926498168407 0.1966545283159175 0  0.2677053789419034 0.1964246479135325 0  0.5290511287476175 0.1970915826863981 0  0.5439877332217911 0.197091582686394 0  0.2825131256993216 0.2035478995978015 0  0.3199386661080599 0.202908417313604 0  0.4842413153250809 0.1970915826863873 0  0.5141145242734466 0.1970915826863843 0  0.3722167817676917 0.2029084173136195 0  0.4693047108508938 0.1970915826863783 0  0.3348752705822316 0.202908417313609 0  0.3871533862418661 0.2029084173136212 0  0.4543681063767183 0.1970915826863795 0  0.4991779197992749 0.1970915826863902 0  0.4020059614928624 0.203547899597858 0  0.4394315019025246 0.1970915826863714 0  0.2550657455369551 0.2034088125358657 0  0.2548908499171161 0.1966940311614271 0  0.5946539510196798 0.2024302972968126 0  0.267698176732111 0.2039977513680092 0  0.4261685417851465 0.196409292431739 0  0.3590076176283495 0.196411355804271 0  0.5571672426447437 0.2036011176410121 0  0.3066757059912147 0.1964092924317024 0  0.594380730180568 0.1966558399668133 0  0.4842413153245942 0.2040749161535287 0  0.4693047108503577 0.2040749161535231 0  0.3871533862424271 0.1959250838464788 0  0.372246743208829 0.1959123236376545 0  0.5141145242731028 0.2040749161535395 0  0.4543681063761134 0.2040749161535186 0  0.4019979587101454 0.1959834479682427 0  0.4394608940728603 0.2040870543693135 0  0.5439623148931173 0.2040856076781014 0  0.5290511287473298 0.2040749161535501 0  0.4991779197988497 0.2040749161535382 0  0.3347912413592433 0.1959225448935183 0  0.3199680582793816 0.1959123018030061 0  0.2825051229162361 0.1959834479681729 0  0.3590471196690275 0.2036304442587945 0  0.5571594006495384 0.1963685282145804 0  0.3067669986803285 0.203627750582736 0  0.4262598344738712 0.2036568242185335 0  0.5814408164431408 0.2041285596160068 0  0.5688286748170428 0.1961819304477386 0  0.4145905603063645 0.2038180695522843 0  0.3473758401724931 0.2038180695522752 0  0.2950977245128307 0.2038180695522663 0  0.5688286748170693 0.203818069552238 0  0.2950977245127906 0.1961819304477774 0  0.3473758401723931 0.1961819304478349 0  0.4145905603061963 0.1961819304479011 0  0.2601812407614425 0.2056861609747042
[...]
<PointData  Vectors="f_40-1"> 
<DataArray  type="Float64"  Name="f_40-1"  NumberOfComponents="3" format="ascii">0.0000000000000000e+00 0.0000000000000000e+00 0.0000000000000000e+00  0.0000000000000000e+00 0.0000000000000000e+00 0.0000000000000000e+00  0.0000000000000000e+00 0.0000000000000000e+00 0.0000000000000000e+00  0.0000000000000000e+00 0.0000000000000000e+00 0.0000000000000000e+00  3.7450138493677185e-06 -1.7073937062043868e-04 0.0000000000000000e+00  1.7648503055941455e-05 -1.7280563865449550e-04 0.0000000000000000e+00  0.0000000000000000e+00 0.0000000000000000e+00 0.0000000000000000e+00  0.0000000000000000e+00 0.0000000000000000e+00 0.0000000000000000e+00  0.0000000000000000e+00 0.0000000000000000e+00 0.0000000000000000e+00  0.0000000000000000e+00 0.0000000000000000e+00 0.0000000000000000e+00  1.0374587589542815e-05 -1.7176873267717244e-04 0.0000000000000000e+00  0.0000000000000000e+00 0.0000000000000000e+00 0.0000000000000000e+00  0.0000000000000000e+00 0.0000000000000000e+00 0.0000000000000000e+00  0.0000000000000000e+00 0.0000000000000000e+00 0.0000000000000000e+00  0.0000000000000000e+00 0.0000000000000000e+00 0.0000000000000000e+00  0.0000000000000000e+00 0.0000000000000000e+00 0.0000000000000000e+00  0.0000000000000000e+00 0.0000000000000000e+00 0.0000000000000000e+00  0.0000000000000000e+00 0.0000000000000000e+00 0.0000000000000000e+00  0.0000000000000000e+00 0.0000000000000000e+00 0.0000000000000000e+00  0.0000000000000000e+00 0.0000000000000000e+00 0.0000000000000000e+00  0.0000000000000000e+00 0.0000000000000000e+00 0.0000000000000000e+00  0.0000000000000000e+00 0.0000000000000000e+00 0.0000000000000000e+00  0.0000000000000000e+00 0.0000000000000000e+00 0.0000000000000000e+00  0.0000000000000000e+00 0.0000000000000000e+00 0.0000000000000000e+00  0.0000000000000000e+00 0.0000000000000000e+00 0.0000000000000000e+00  0.0000000000000000e+00 0.0000000000000000e+00 0.0000000000000000e+00  0.0000000000000000e+00 0.0000000000000000e+00 0.0000000000000000e+00  0.0000000000000000e+00 0.0000000000000000e+00 0.0000000000000000e+00  0.0000000000000000e+00 0.0000000000000000e+00 0.0000000000000000e+00  0.0000000000000000e+00 0.0000000000000000e+00 0.0000000000000000e+00  0.0000000000000000e+00 0.0000000000000000e+00 0.0000000000000000e+00  0.0000000000000000e+00 0.0000000000000000e+00 0.0000000000000000e+00  0.0000000000000000e+00 0.0000000000000000e+00 0.0000000000000000e+00  0.0000000000000000e+00 0.0000000000000000e+00 0.0000000000000000e+00  0.0000000000000000e+00 0.0000000000000000e+00 0.0000000000000000e+00  0.0000000000000000e+00 0.0000000000000000e+00 0.0000000000000000e+00  0.0000000000000000e+00 0.0000000000000000e+00 0.0000000000000000e+00  0.0000000000000000e+00 0.0000000000000000e+00 0.0000000000000000e+00  0.0000000000000000e+00 0.0000000000000000e+00 0.0000000000000000e+00  0.0000000000000000e+00 0.0000000000000000e+00 0.0000000000000000e+00  0.0000000000000000e+00 0.0000000000000000e+00 0.0000000000000000e+00  0.0000000000000000e+00 0.0000000000000000e+00 0.0000000000000000e+00  0.0000000000000000e+00 0.0000000000000000e+00 0.0000000000000000e+00  0.0000000000000000e+00 0.0000000000000000e+00 0.0000000000000000e+00  0.0000000000000000e+00 0.0000000000000000e+00 0.0000000000000000e+00  0.0000000000000000e+00 0.0000000000000000e+00 0.0000000000000000e+00  0.0000000000000000e+00 0.0000000000000000e+00 0.0000000000000000e+00  0.0000000000000000e+00 0.0000000000000000e+00 0.0000000000000000e+00  0.0000000000000000e+00 0.0000000000000000e+00 0.0000000000000000e+00  0.0000000000000000e+00 0.0000000000000000e+00 0.0000000000000000e+00  0.0000000000000000e+00 0.0000000000000000e+00 0.0000000000000000e+00  0.0000000000000000e+00 0.0000000000000000e+00 0.0000000000000000e+00  0.0000000000000000e+00 0.0000000000000000e+00 0.0000000000000000e+00  0.0000000000000000e+00 0.0000000000000000e+00 0.0000000000000000e+00  0.0000000000000000e+00 0.0000000000000000e+00 0.0000000000000000e+00  0.0000000000000000e+00 0.0000000000000000e+00 0.0000000000000000e+00  0.0000000000000000e+00 0.0000000000000000e+00 0.0000000000000000e+00  0.0000000000000000e+00 0.0000000000000000e+00 0.0000000000000000e+00  0.0000000000000000e+00 0.0000000000000000e+00 0.0000000000000000e+00  0.0000000000000000e+00 0.0000000000000000e+00 0.0000000000000000e+00  0.0000000000000000e+00 0.0000000000000000e+00 0.0000000000000000e+00  0.0000000000000000e+00 0.0000000000000000e+00 0.0000000000000000e+00  0.0000000000000000e+00 0.0000000000000000e+00 0.0000000000000000e+00  0.0000000000000000e+00 0.0000000000000000e+00 0.0000000000000000e+00  0.0000000000000000e+00 0.0000000000000000e+00 0.0000000000000000e+00  0.0000000000000000e+00 0.0000000000000000e+00 0.0000000000000000e+00  0.0000000000000000e+00 0.0000000000000000e+00 0.0000000000000000e+00  0.0000000000000000e+00 0.0000000000000000e+00 0.0000000000000000e+00  0.0000000000000000e+00 0.0000000000000000e+00 0.0000000000000000e+00  0.0000000000000000e+00 0.0000000000000000e+00 0.0000000000000000e+00  0.0000000000000000e+00 0.0000000000000000e+00 0.0000000000000000e+00  0.0000000000000000e+00 0.0000000000000000e+00 0.0000000000000000e+00  0.0000000000000000e+00 0.0000000000000000e+00 0.0000000000000000e+00  0.0000000000000000e+00 0.0000000000000000e+00 0.0000000000000000e+00  0.0000000000000000e+00 0.0000000000000000e+00 0.0000000000000000e+00  0.0000000000000000e+00 0.0000000000000000e+00 0.0000000000000000e+00  0.0000000000000000e+00 0.0000000000000000e+00 0.0000000000000000e+00  0.0000000000000000e+00 0.0000000000000000e+00 0.0000000000000000e+00  0.0000000000000000e+00 0.0000000000000000e+00 0.0000000000000000e+00  0.0000000000000000e+00 0.0000000000000000e+00 0.0000000000000000e+00  0.0000000000000000e+00 0.0000000000000000e+00 0.0000000000000000e+00  0.0000000000000000e+00 0.0000000000000000e+00 0.0000000000000000e+00  0.0000000000000000e+00 0.0000000000000000e+00 0.0000000000000000e+00  0.0000000000000000e+00 0.0000000000000000e+00 0.0000000000000000e+00  0.0000000000000000e+00 0.0000000000000000e+00 0.0000000000000000e+00  0.0000000000000000e+00 0.0000000000000000e+00 0.0000000000000000e+00  0.0000000000000000e+00 0.0000000000000000e+00 0.0000000000000000e+00  0.0000000000000000e+00 0.0000000000000000e+00 0.0000000000000000e+00  0.0000000000000000e+00 0.0000000000000000e+00 0.0000000000000000e+00  0.0000000000000000e+00 0.0000000000000000e+00 0.0000000000000000e+00  0.0000000000000000e+00 0.0000000000000000e+00 0.0000000000000000e+00  0.0000000000000000e+00 0.0000000000000000e+00 0.0000000000000000e+00  0.0000000000000000e+00 0.0000000000000000e+00 0.0000000000000000e+00  0.0000000000000000e+00 0.0000000000000000e+00 0.0000000000000000e+00  0.0000000000000000e+00 0.0000000000000000e+00 0.0000000000000000e+00  0.0000000000000000e+00 0.0000000000000000e+00 0.0000000000000000e+00  0.0000000000000000e+00 0.0000000000000000e+00 0.0000000000000000e+00  0.0000000000000000e+00 0.0000000000000000e+00 0.0000000000000000e+00  0.0000000000000000e+00 0.0000000000000000e+00 0.0000000000000000e+00  0.0000000000000000e+00 0.0000000000000000e+00 0.0000000000000000e+00  0.0000000000000000e+00 0.0000000000000000e+00 0.0000000000000000e+00  0.0000000000000000e+00 0.0000000000000000e+00 0.0000000000000000e+00  0.0000000000000000e+00 0.0000000000000000e+00 0.0000000000000000e+00  0.0000000000000000e+00 0.0000000000000000e+00 0.0000000000000000e+00  0.0000000000000000e+00 0.0000000000000000e+00 0.0000000000000000e+00  0.0000000000000000e+00 0.0000000000000000e+00 0.0000000000000000e+00  0.0000000000000000e+00 0.0000000000000000e+00 0.0000000000000000e+00  0.0000000000000000e+00 0.0000000000000000e+00 0.0000000000000000e+00  0.0000000000000000e+00 0.0000000000000000e+00 0.0000000000000000e+00  0.0000000000000000e+00 0.0000000000000000e+00 0.0000000000000000e+00  0.0000000000000000e+00 0.0000000000000000e+00 0.0000000000000000e+00  0.0000000000000000e+00 0.0000000000000000e+00 0.0000000000000000e+00  0.0000000000000000e+00 0.0000000000000000e+00 0.0000000000000000e+00  0.0000000000000000e+00 0.0000000000000000e+00 0.0000000000000000e+00  0.0000000000000000e+00 0.0000000000000000e+00 0.0000000000000000e+00  0.0000000000000000e+00 0.0000000000000000e+00 0.0000000000000000e+00  0.0000000000000000e+00 0.0000000000000000e+00 0.0000000000000000e+00  0.0000000000000000e+00 0.0000000000000000e+00 0.0000000000000000e+00  0.0000000000000000e+00 0.0000000000000000e+00 0.0000000000000000e+00  0.0000000000000000e+00 0.0000000000000000e+00 0.0000000000000000e+00  0.0000000000000000e+00 0.0000000000000000e+00 0.0000000000000000e+00  0.0000000000000000e+00 0.0000000000000000e+00 0.0000000000000000e+00  0.0000000000000000e+00 0.0000000000000000e+00 0.0000000000000000e+00  0.0000000000000000e+00 0.0000000000000000e+00 0.0000000000000000e+00  0.0000000000000000e+00 0.0000000000000000e+00 0.0000000000000000e+00  0.0000000000000000e+00 0.0000000000000000e+00 0.0000000000000000e+00  0.0000000000000000e+00 0.0000000000000000e+00 0.0000000000000000e+00  0.0000000000000000e+00 0.0000000000000000e+00 0.0000000000000000e+00  0.0000000000000000e+00 0.0000000000000000e+00 0.0000000000000000e+00  0.0000000000000000e+00 0.0000000000000000e+00 0.0000000000000000e+00  0.0000000000000000e+00 0.0000000000000000e+00 0.0000000000000000e+00  0.0000000000000000e+00 0.0000000000000000e+00 0.0000000000000000e+00  0.0000000000000000e+00 0.0000000000000000e+00 0.0000000000000000e+00  0.0000000000000000e+00 0.0000000000000000e+00 0.0000000000000000e+00  0.0000000000000000e+00 0.0000000000000000e+00 0.0000000000000000e+00  0.0000000000000000e+00 0.0000000000000000e+00 0.0000000000000000e+00  0.0000000000000000e+00 0.0000000000000000e+00 0.0000000000000000e+00  0.0000000000000000e+00 0.0000000000000000e+00 0.0000000000000000e+00  0.0000000000000000e+00 0.0000000000000000e+00 0.0000000000000000e+00  0.0000000000000000e+00 0.0000000000000000e+00 0.0000000000000000e+00  0.0000000000000000e+00 0.0000000000000000e+00 0.0000000000000000e+00  0.0000000000000000e+00 0.0000000000000000e+00 0.0000000000000000e+00  0.0000000000000000e+00 0.0000000000000000e+00 0.0000000000000000e+00  7.8568343453637419e-07 -2.1899717300452247e-06 0.0000000000000000e+00  1.6952128880309386e-06 -2.7131522267646258e-06 0.0000000000000000e+00  2.6831217531799270e-06 -3.3677015388865507e-06 0.0000000000000000e+00  3.7371900747646676e-06 -4.2304987165994609e-06 0.0000000000000000e+00  4.7489127231936767e-06 -5.3083264839418618e-06 0.0000000000000000e+00  5.7835904230259494e-06 -6.6616782859061482e-06 0.0000000000000000e+00  6.7394060729058232e-06 -8.1889817519949362e-06 0.0000000000000000e+00  7.6619148613834966e-06 -9.9682321238038447e-06 0.0000000000000000e+00  8.6123707485172306e-06 -1.1936038430543550e-05 0.0000000000000000e+00  9.4614291809162103e-06 -1.4096723162613392e-05 0.0000000000000000e+00  1.0342826432893509e-05 -1.6469668019361183e-05 0.0000000000000000e+00  1.1125310385865706e-05 -1.9010791431344040e-05 0.0000000000000000e+00  1.1917703071700415e-05 -2.1736916519453569e-05 0.0000000000000000e+00  1.2638323790685404e-05 -2.4611126581932567e-05 0.0000000000000000e+00  1.3321686871065000e-05 -2.7661525965057696e-05 0.0000000000000000e+00  1.4017977411508027e-05 -3.0859359661403989e-05 0.0000000000000000e+00  1.4619841104993101e-05 -3.4189204728080816e-05 0.0000000000000000e+00  1.5238742664186730e-05 -3.7683421090231008e-05 0.0000000000000000e+00  1.5770006360699443e-05 -4.1282292630157989e-05 0.0000000000000000e+00  1.6312412586853726e-05 -4.5024607374679537e-05 0.0000000000000000e+00  1.6780478587511688e-05 -4.8867256544504673e-05 0.0000000000000000e+00  1.7243130405267846e-05 -5.2840057091478093e-05 0.0000000000000000e+00  1.7645353597658675e-05 -5.6902403605511627e-05 0.0000000000000000e+00  1.8016549896651578e-05 -6.1073516608866352e-05 0.0000000000000000e+00  1.8377923770194772e-05 -6.5335017923227651e-05 0.0000000000000000e+00  1.8682899302234120e-05 -6.9674390197093898e-05 0.0000000000000000e+00  1.8959573343935916e-05 -7.4120935610431186e-05 0.0000000000000000e+00  1.9195855664552947e-05 -7.8619450231601947e-05 0.0000000000000000e+00  1.9406504516970038e-05 -8.3209637126439927e-05 0.0000000000000000e+00  1.9574084238802988e-05 -8.7849557596966719e-05 0.0000000000000000e+00  1.9716882936969017e-05 -9.2566751221562625e-05 0.0000000000000000e+00  1.9815842598838774e-05 -9.7318595040639543e-05 0.0000000000000000e+00  1.9889826574425129e-05 -1.0214122276465707e-04 0.0000000000000000e+00  1.9920489167111781e-05 -1.0698753040148141e-04 0.0000000000000000e+00  1.9924285036734092e-05 -1.1189720410069758e-04 0.0000000000000000e+00  1.9888445280037150e-05 -1.1682306700033109e-04 0.0000000000000000e+00  1.9829870229587643e-05 -1.2179737854597441e-04 0.0000000000000000e+00  1.9730598165538791e-05 -1.2678577195866691e-04 0.0000000000000000e+00  1.9604281814493752e-05 -1.3181761487486852e-04 0.0000000000000000e+00  1.9439696763251721e-05 -1.3685512820771668e-04 0.0000000000000000e+00  1.9243976197178061e-05 -1.4192306856274293e-04 0.0000000000000000e+00  1.9013935631770013e-05 -1.4700016149427446e-04 0.0000000000000000e+00  1.8754847100202670e-05 -1.5209799368809800e-04 0.0000000000000000e+00  1.8471080526645275e-05 -1.5719842739523427e-04 0.0000000000000000e+00  1.8163182712107992e-05 -1.6229999614212923e-04 0.0000000000000000e+00  1.7837873146985712e-05 -1.6744916215516515e-04 0.0000000000000000e+00  1.3886749765070530e-05 -1.7226535530359235e-04 0.0000000000000000e+00  6.9802939327672123e-06 -1.7126432458473641e-04 0.0000000000000000e+00  4.0087966954458536e-06 -1.6573538480397560e-04 0.0000000000000000e+00  4.3493422539932951e-06 -1.6055258415717291e-04 0.0000000000000000e+00  4.7007867656153484e-06 -1.5535352312705475e-04 0.0000000000000000e+00  5.0140368898193342e-06 -1.5017521250126090e-04 0.0000000000000000e+00  5.3155978689272121e-06 -1.4501715564835523e-04 0.0000000000000000e+00  5.5786149478424365e-06 -1.3986937937929695e-04 0.0000000000000000e+00  5.8354759257406635e-06 -1.3474148669865638e-04 0.0000000000000000e+00  6.0469299394467319e-06 -1.2962926221626625e-04 0.0000000000000000e+00  6.2554530796360415e-06 -1.2455029460608339e-04 0.0000000000000000e+00  6.4184704336858970e-06 -1.1948482392087285e-04 0.0000000000000000e+00  6.5736420936808749e-06 -1.1446160678975860e-04 0.0000000000000000e+00  6.6911137480173401e-06 -1.0946125736571721e-04 0.0000000000000000e+00  6.8019298468152871e-06 -1.0450649780720402e-04 0.0000000000000000e+00  6.8763217644666426e-06 -9.9579809422723877e-05 0.0000000000000000e+00  6.9430675425500173e-06 -9.4715111524303563e-05 0.0000000000000000e+00  6.9746200085241692e-06 -8.9883978670390557e-05 0.0000000000000000e+00  7.0007913045460514e-06 -8.5124077712821306e-05 0.0000000000000000e+00  6.9878396085836353e-06 -8.0407923918482415e-05 0.0000000000000000e+00  6.9809765792069636e-06 -7.5774250160573839e-05 0.0000000000000000e+00  6.9238258277737920e-06 -7.1196348239446029e-05 0.0000000000000000e+00  6.8831011535311181e-06 -6.6713543720586414e-05 0.0000000000000000e+00  6.7831377466493446e-06 -6.2295946516449974e-05 0.0000000000000000e+00  6.6980476560504181e-06 -5.7980018300463715e-05 0.0000000000000000e+00  6.5658955574504131e-06 -5.3747047235552613e-05 0.0000000000000000e+00  6.4159839594443238e-06 -4.9624232627571358e-05 0.0000000000000000e+00  6.2714633801886026e-06 -4.5598908957351782e-05 0.0000000000000000e+00  6.0968841876292323e-06 -4.1683731838132400e-05 0.0000000000000000e+00  5.9060699189338729e-06 -3.7896041966420706e-05 0.0000000000000000e+00  5.6867353237461281e-06 -3.4220181224130762e-05 0.0000000000000000e+00  5.4592230732322356e-06 -3.0691538162227877e-05 0.0000000000000000e+00  5.2074624439379254e-06 -2.7275970487452512e-05 0.0000000000000000e+00  4.9556993995388026e-06 -2.4037950581464736e-05 0.0000000000000000e+00  4.6635560951521544e-06 -2.0924239497254797e-05 0.0000000000000000e+00  4.3448613665605117e-06 -1.7997285679865944e-05 0.0000000000000000e+00  4.0492144128555400e-06 -1.5203442309064010e-05 0.0000000000000000e+00  3.7150126048578275e-06 -1.2606880632747886e-05 0.0000000000000000e+00  3.3842320515778396e-06 -1.0190631541961809e-05 0.0000000000000000e+00  3.0211417701436037e-06 -7.9613626522674000e-06 0.0000000000000000e+00  2.6758007137079533e-06 -5.9620217565636127e-06 0.0000000000000000e+00  2.2809883829662103e-06 -4.1346049228448697e-06 0.0000000000000000e+00  1.8583310796496322e-06 -2.5564652983020478e-06 0.0000000000000000e+00  1.4956889176830038e-06 -1.1705277841145447e-06 0.0000000000000000e+00  1.0729545392083835e-06 -1.8505102315911944e-08 0.0000000000000000e+00  7.2000472810462200e-07 8.8010541133587386e-07 0.0000000000000000e+00  3.5579312741185558e-07 1.4706654895278320e-06 0.0000000000000000e+00  1.5427875926774600e-07 1.6890517860354859e-06 0.0000000000000000e+00  4.1285300442761589e-07 -2.6642867685253723e-07 0.0000000000000000e+00  1.1073562138422354e-05 -1.6400104997751081e-04 0.0000000000000000e+00  1.1820348493018575e-05 -1.5415934575658180e-04 0.0000000000000000e+00  1.2580916524803795e-05 -1.3816111455873712e-04 0.0000000000000000e+00  2.0246268907168211e-06 -1.4944270987715783e-06 0.0000000000000000e+00  1.2874737792150774e-05 -1.2817458872652960e-04 0.0000000000000000e+00  3.3812335861722810e-06 -3.6020294025339888e-06 0.0000000000000000e+00  1.3143907500627487e-05 -1.1811648529569293e-04 0.0000000000000000e+00  5.4587096847855459e-06 -8.8513375903366402e-06 0.0000000000000000e+00  6.6976863266195360e-06 -1.3195727295295476e-05 0.0000000000000000e+00  1.3301014088711948e-05 -1.0818252840171412e-04 0.0000000000000000e+00  9.3101462456455483e-06 -2.7452570615133283e-05 0.0000000000000000e+00  1.3283426168781117e-05 -8.8810549454988640e-05 0.0000000000000000e+00  7.7461758203841273e-06 -1.8102174962058835e-05 0.0000000000000000e+00  1.0220597482028922e-05 -3.4091782083158403e-05 0.0000000000000000e+00  1.3110617524256088e-05 -7.9448772151015682e-05 0.0000000000000000e+00  1.3347553896047959e-05 -9.8401005800006629e-05 0.0000000000000000e+00  1.0989756893162232e-05 -4.1376349936505200e-05 0.0000000000000000e+00  1.2828496664230632e-05 -7.0364286989688937e-05 0.0000000000000000e+00  1.1559673076326369e-05 -4.8799742920578414e-05 0.0000000000000000e+00  1.2523981288782887e-05 -6.1795774416991621e-05 0.0000000000000000e+00  1.2043925879179523e-05 -5.4935487230768096e-05 0.0000000000000000e+00  8.5741619705513591e-06 -2.2432245588832665e-05 0.0000000000000000e+00  1.2085366189793546e-05 -1.4644735394238746e-04 0.0000000000000000e+00  4.4206806515725164e-06 -5.9205225061356451e-06 0.0000000000000000e+00  9.0502631793016377e-06 -1.5872988212207567e-04 0.0000000000000000e+00  9.4772114923662025e-07 2.6110443746809993e-08 0.0000000000000000e+00  1.1069336469954273e-05 -1.2280538762798169e-04 0.0000000000000000e+00  1.0724813968278549e-05 -1.3293368025008457e-04 0.0000000000000000e+00  3.2619352278135587e-06 -3.2510016500983534e-06 0.0000000000000000e+00  6.9450344925431791e-06 -1.1484680823157930e-05 0.0000000000000000e+00  1.1467919984142820e-05 -9.3199997716143738e-05 0.0000000000000000e+00  1.1306635837205712e-05 -1.1278842055170542e-04 0.0000000000000000e+00  1.1105366399217684e-05 -3.1171978734958907e-05 0.0000000000000000e+00  1.1395028371874112e-05 -8.3702447838405634e-05 0.0000000000000000e+00  8.2707126663594150e-06 -1.6256620900979758e-05 0.0000000000000000e+00  1.2028980479881432e-05 -3.8181243977057794e-05 0.0000000000000000e+00  1.1221360355443386e-05 -7.4457758625842615e-05 0.0000000000000000e+00  1.1439241462874035e-05 -1.0290747091482746e-04 0.0000000000000000e+00  1.3166485760579849e-05 -4.5759655579886452e-05 0.0000000000000000e+00  1.0946675576275415e-05 -6.5511805911839179e-05 0.0000000000000000e+00  2.1094738644996098e-08 -5.2452724400481809e-07 0.0000000000000000e+00  -8.9355385051645295e-08 3.8278605495122518e-07 0.0000000000000000e+00  1.2349101884644931e-05 -1.6826509678001159e-04 0.0000000000000000e+00  1.5870791659536438e-06 -1.6494629281327750e-06 0.0000000000000000e+00  1.02367836