<?xml version="1.0"?>
<VTKFile type="UnstructuredGrid"  version="0.1"  >
<UnstructuredGrid>
<Piece  NumberOfPoints="1419" NumberOfCells="2698">
<Points>
<DataArray  type="Float64"  NumberOfComponents="3"  format="ascii">0 0 0  0 0.41 0  2.5 0 0  2.5 0.41 0  0.6 0.19 0  0.6 0.21 0  0.25 0.2 0  0.15 0.2 0  0.2489897948556636 0.21 0  0.2489897948556636 0.19 0  0.6 0.2 0  0 0.3807142857143437 0  0 0.3514285714286952 0  0 0.3221428571430699 0  0 0.29285714285744 0  0 0.2635714285718054 0  0 0.2342857142861561 0  0 0.2050000000005308 0  0 0.175714285714732 0  0 0.1464285714289574 0  0 0.1171428571431897 0  0 0.08785714285737878 0  0 0.05857142857161107 0  0 0.02928571428580012 0  0.03015443760436003 0 0  0.06140001986583606 0 0  0.09377624077125973 0 0  0.1273239957535082 0 0  0.1620856860351972 0 0  0.1981052433264291 0 0  0.235428184091502 0 0  0.2741016576309132 0 0  0.3141745521465447 0 0  0.3556974926295285 0 0  0.3987229542472677 0 0  0.4433053055141081 0 0  0.4895008759286886 0 0  0.5373680609405097 0 0  0.5869673343216626 0 0  0.6383613676634521 0 0  0.6916151138468254 0 0  0.7467958595648856 0 0  0.8039733463919316 0 0  0.8632198139502143 0 0  0.9246101326867038 0 0  0.9882218810934433 0 0  1.054135445558498 0 0  1.122434100542598 0 0  1.193204177141305 0 0  1.266535089879536 0 0  1.342519516046404 0 0  1.421253448503939 0 0  1.502836389106271 0 0  1.587371439758838 0 0  1.674965418777374 0 0  1.765729001825544 0 0  1.859776908880082 0 0  1.957227977487062 0 0  2.058205329869943 0 0  2.162836591189951 0 0  2.271253957290865 0 0  2.383594446803425 0 0  2.5 0.1024999999997612 0  2.5 0.2049999999994743 0  2.5 0.3074999999997183 0  2.383594446803656 0.41 0  2.271253957291315 0.41 0  2.162836591190598 0.41 0  2.058205329870775 0.41 0  1.957227977488067 0.41 0  1.859776908881246 0.41 0  1.765729001826854 0.41 0  1.674965418778818 0.41 0  1.58737143976041 0.41 0  1.502836389107956 0.41 0  1.421253448505726 0.41 0  1.342519516048286 0.41 0  1.266535089881505 0.41 0  1.193204177143353 0.41 0  1.122434100544716 0.41 0  1.05413544556068 0.41 0  0.9882218810956305 0.41 0  0.9246101326886647 0.41 0  0.8632198139519631 0.41 0  0.8039733463934788 0.41 0  0.7467958595662458 0.41 0  0.6916151138480078 0.41 0  0.6383613676644679 0.41 0  0.5869673343225223 0.41 0  0.5373680609412221 0.41 0  0.4895008759292634 0.41 0  0.4433053055145528 0.41 0  0.3987229542475914 0.41 0  0.3556974926297398 0.41 0  0.3141745521466497 0.41 0  0.2741016576310038 0.41 0  0.2354281840915826 0.41 0  0.1981052433265003 0.41 0  0.1620856860352591 0.41 0  0.1273239957535623 0.41 0  0.09377624077128965 0.41 0  0.06140001986584975 0.41 0  0.03015443760436654 0.41 0  0.2497468076502589 0.2050254481002335 0  0.2497468076502614 0.1949745518997913 0  0.2469965252529372 0.1829317073451959 0  0.2439893735792749 0.1762316384219906 0  0.2400332147834255 0.1700443375285386 0  0.2352133972704371 0.1645032867342007 0  0.2296339016332438 0.1597280261969788 0  0.2234150974217223 0.1558215752574715 0  0.2166911463437691 0.1528682099456123 0  0.2096071079204251 0.1509316448471593 0  0.2023158100364996 0.1500536585536553 0  0.194974551899914 0.1502531923497262 0  0.1877417105387872 0.1515259415822739 0  0.1807733240461124 0.153844448527136 0  0.1742197252835808 0.15715869474974 0  0.1682222986673531 0.1613971801805478 0  0.162910430003803 0.1664684656256651 0  0.1583987151779087 0.1722631454351573 0  0.1547844879126891 0.178656207771761 0  0.1521457199348551 0.1855097315605723 0  0.1505393388476355 0.1926758619366523 0  0.1505393388476328 0.2073241380633295 0  0.1521457199348437 0.2144902684393899 0  0.1547844879126531 0.221343792228163 0  0.1583987151778488 0.2277368545647528 0  0.1629104300036858 0.2335315343742052 0  0.1682222986671726 0.2386028198193036 0  0.1742197252833576 0.2428413052501257 0  0.1807733240458683 0.2461555514727623 0  0.1877417105384929 0.2484740584176516 0  0.1949745518995776 0.2497468076502398 0  0.202315810036185 0.2499463414463592 0  0.2096071079201568 0.2490683551528932 0  0.2166911463435495 0.2471317900544655 0  0.2234150974215506 0.2441784247426195 0  0.2296339016331197 0.2402719738031125 0  0.2352133972703547 0.2354967132658811 0  0.2400332147833751 0.2299556624715287 0  0.2439893735792577 0.2237683615780412 0  0.246996525252926 0.2170682926548348 0  0.25645809709277 0.21 0  0.2639263993298655 0.21 0  0.271394701566961 0.21 0  0.2788630038040554 0.21 0  0.2863313060411479 0.21 0  0.2937996082782405 0.21 0  0.301267910515333 0.21 0  0.3087362127524279 0.21 0  0.3162045149895234 0.21 0  0.3236728172265972 0.21 0  0.3311411194636928 0.21 0  0.3386094217007701 0.21 0  0.3460777239378666 0.21 0  0.3535460261749672 0.21 0  0.3610143284120516 0.21 0  0.3684826306491596 0.21 0  0.3759509328862226 0.21 0  0.383419235123329 0.21 0  0.3908875373604028 0.21 0  0.3983558395975142 0.21 0  0.4058241418345938 0.21 0  0.4132924440716992 0.21 0  0.4207607463087888 0.21 0  0.4282290485459029 0.21 0  0.4356973507830418 0.21 0  0.4431656530201649 0.21 0  0.4506339552573136 0.21 0  0.4581022574944306 0.21 0  0.4655705597315852 0.21 0  0.4730388619686996 0.21 0  0.480507164205851 0.21 0  0.4879754664429498 0.21 0  0.4954437686800938 0.21 0  0.502912070917267 0.21 0  0.5103803731544119 0.21 0  0.5178486753915261 0.21 0  0.5253169776286404 0.21 0  0.5327852798657868 0.21 0  0.5402535821029386 0.21 0  0.54772188434007 0.21 0  0.5551901865771842 0.21 0  0.5626584888143201 0.21 0  0.5701267910514778 0.21 0  0.5775950932886138 0.21 0  0.5850633955257281 0.21 0  0.5925316977628483 0.21 0  0.6 0.2050000000000054 0  0.6 0.1950000000000217 0  0.5925316977628897 0.19 0  0.5850633955257988 0.19 0  0.5775950932887378 0.19 0  0.5701267910515998 0.19 0  0.5626584888145268 0.19 0  0.5551901865773963 0.19 0  0.547721884340339 0.19 0  0.5402535821032429 0.19 0  0.5327852798661811 0.19 0  0.5253169776290537 0.19 0  0.5178486753919799 0.19 0  0.5103803731549078 0.19 0  0.502912070917822 0.19 0  0.4954437686807294 0.19 0  0.4879754664436223 0.19 0  0.4805071642065402 0.19 0  0.4730388619694271 0.19 0  0.4655705597323621 0.19 0  0.4581022574952563 0.19 0  0.4506339552581777 0.19 0  0.4431656530210671 0.19 0  0.4356973507839815 0.19 0  0.4282290485468779 0.19 0  0.4207607463097617 0.19 0  0.4132924440726327 0.19 0  0.4058241418354857 0.19 0  0.3983558395983636 0.19 0  0.3908875373612097 0.19 0  0.3834192351240934 0.19 0  0.3759509328869369 0.19 0  0.3684826306498175 0.19 0  0.361014328412667 0.19 0  0.3535460261755617 0.19 0  0.3460777239384295 0.19 0  0.3386094217012945 0.19 0  0.3311411194641595 0.19 0  0.3236728172270245 0.19 0  0.3162045149898895 0.19 0  0.3087362127527544 0.19 0  0.3012679105156187 0.19 0  0.2937996082784807 0.19 0  0.2863313060413428 0.19 0  0.2788630038042048 0.19 0  0.2713947015670686 0.19 0  0.2639263993299336 0.19 0  0.2564580970927985 0.19 0  0.2607803159922026 0.2000727136295815 0  0.5887803774232762 0.2001272386983733 0  0.5745072403740523 0.2002044435018727 0  0.5511891430099709 0.2001122610077113 0  0.2751288526855082 0.20000000000002 0  0.5365194309847112 0.1999999999999436 0  0.2894621222999649 0.1998691686390484 0  0.5215828265105155 0.1999999999999228 0  0.3127789816668748 0.1998657885438805 0  0.3274069683451451 0.2000000000000796 0  0.5066462220363641 0.199999999999908 0  0.3650630746574081 0.199866017807523 0  0.476773013087985 0.1999999999998713 0  0.3417402379596385 0.1998691686391011 0  0.3796850840047755 0.200000000000134 0  0.4618364086138087 0.1999999999998546 0  0.4917096175621762 0.1999999999998808 0  0.3946216884789568 0.2000000000001512 0  0.446899804139621 0.1999999999998389 0  0.4089549580935208 0.1998691686391595 0  0.4322718174608562 0.200127451265745 0  0.4201487168029707 0.1999966199048527 0  0.3528922713220932 0.2000185703532356 0  0.5633122436674589 0.1999814296467508 0  0.3006558810093873 0.1999966199048318 0  0.5815926498168407 0.1966545283159175 0  0.2677053789419034 0.1964246479135325 0  0.5290511287476175 0.1970915826863981 0  0.5439877332217911 0.197091582686394 0  0.2825131256993216 0.2035478995978015 0  0.3199386661080599 0.202908417313604 0  0.4842413153250809 0.1970915826863873 0  0.5141145242734466 0.1970915826863843 0  0.3722167817676917 0.2029084173136195 0  0.4693047108508938 0.1970915826863783 0  0.3348752705822316 0.202908417313609 0  0.3871533862418661 0.2029084173136212 0  0.4543681063767183 0.1970915826863795 0  0.4991779197992749 0.1970915826863902 0  0.4020059614928624 0.203547899597858 0  0.4394315019025246 0.1970915826863714 0  0.2550657455369551 0.2034088125358657 0  0.2548908499171161 0.1966940311614271 0  0.5946539510196798 0.2024302972968126 0  0.267698176732111 0.2039977513680092 0  0.4261685417851465 0.196409292431739 0  0.3590076176283495 0.196411355804271 0  0.5571672426447437 0.2036011176410121 0  0.3066757059912147 0.1964092924317024 0  0.594380730180568 0.1966558399668133 0  0.4842413153245942 0.2040749161535287 0  0.4693047108503577 0.2040749161535231 0  0.3871533862424271 0.1959250838464788 0  0.372246743208829 0.1959123236376545 0  0.5141145242731028 0.2040749161535395 0  0.4543681063761134 0.2040749161535186 0  0.4019979587101454 0.1959834479682427 0  0.4394608940728603 0.2040870543693135 0  0.5439623148931173 0.2040856076781014 0  0.5290511287473298 0.2040749161535501 0  0.4991779197988497 0.2040749161535382 0  0.3347912413592433 0.1959225448935183 0  0.3199680582793816 0.1959123018030061 0  0.2825051229162361 0.1959834479681729 0  0.3590471196690275 0.2036304442587945 0  0.5571594006495384 0.1963685282145804 0  0.3067669986803285 0.203627750582736 0  0.4262598344738712 0.2036568242185335 0  0.5814408164431408 0.2041285596160068 0  0.5688286748170428 0.1961819304477386 0  0.4145905603063645 0.2038180695522843 0  0.3473758401724931 0.2038180695522752 0  0.2950977245128307 0.2038180695522663 0  0.5688286748170693 0.203818069552238 0  0.2950977245127906 0.1961819304477774 0  0.3473758401723931 0.1961819304478349 0  0.4145905603061963 0.1961819304479011 0  0.2601812407614425 0.2056861609747042
[...]
<PointData  Vectors="f_40-1"> 
<DataArray  type="Float64"  Name="f_40-1"  NumberOfComponents="3" format="ascii">0.0000000000000000e+00 0.0000000000000000e+00 0.0000000000000000e+00  0.0000000000000000e+00 0.0000000000000000e+00 0.0000000000000000e+00  0.0000000000000000e+00 0.0000000000000000e+00 0.0000000000000000e+00  0.0000000000000000e+00 0.0000000000000000e+00 0.0000000000000000e+00  6.9473843032828371e-06 -3.5399205233219529e-04 0.0000000000000000e+00  3.5588387064911913e-05 -3.5591568656599535e-04 0.0000000000000000e+00  0.0000000000000000e+00 0.0000000000000000e+00 0.0000000000000000e+00  0.0000000000000000e+00 0.0000000000000000e+00 0.0000000000000000e+00  0.0000000000000000e+00 0.0000000000000000e+00 0.0000000000000000e+00  0.0000000000000000e+00 0.0000000000000000e+00 0.0000000000000000e+00  2.0878457141494668e-05 -3.5494607344529864e-04 0.0000000000000000e+00  0.0000000000000000e+00 0.0000000000000000e+00 0.0000000000000000e+00  0.0000000000000000e+00 0.0000000000000000e+00 0.0000000000000000e+00  0.0000000000000000e+00 0.0000000000000000e+00 0.0000000000000000e+00  0.0000000000000000e+00 0.0000000000000000e+00 0.0000000000000000e+00  0.0000000000000000e+00 0.0000000000000000e+00 0.0000000000000000e+00  0.0000000000000000e+00 0.0000000000000000e+00 0.0000000000000000e+00  0.0000000000000000e+00 0.0000000000000000e+00 0.0000000000000000e+00  0.0000000000000000e+00 0.0000000000000000e+00 0.0000000000000000e+00  0.0000000000000000e+00 0.0000000000000000e+00 0.0000000000000000e+00  0.0000000000000000e+00 0.0000000000000000e+00 0.0000000000000000e+00  0.0000000000000000e+00 0.0000000000000000e+00 0.0000000000000000e+00  0.0000000000000000e+00 0.0000000000000000e+00 0.0000000000000000e+00  0.0000000000000000e+00 0.0000000000000000e+00 0.0000000000000000e+00  0.0000000000000000e+00 0.0000000000000000e+00 0.0000000000000000e+00  0.0000000000000000e+00 0.0000000000000000e+00 0.0000000000000000e+00  0.0000000000000000e+00 0.0000000000000000e+00 0.0000000000000000e+00  0.0000000000000000e+00 0.0000000000000000e+00 0.0000000000000000e+00  0.0000000000000000e+00 0.0000000000000000e+00 0.0000000000000000e+00  0.0000000000000000e+00 0.0000000000000000e+00 0.0000000000000000e+00  0.0000000000000000e+00 0.0000000000000000e+00 0.0000000000000000e+00  0.0000000000000000e+00 0.0000000000000000e+00 0.0000000000000000e+00  0.0000000000000000e+00 0.0000000000000000e+00 0.0000000000000000e+00  0.0000000000000000e+00 0.0000000000000000e+00 0.0000000000000000e+00  0.0000000000000000e+00 0.0000000000000000e+00 0.0000000000000000e+00  0.0000000000000000e+00 0.0000000000000000e+00 0.0000000000000000e+00  0.0000000000000000e+00 0.0000000000000000e+00 0.0000000000000000e+00  0.0000000000000000e+00 0.0000000000000000e+00 0.0000000000000000e+00  0.0000000000000000e+00 0.0000000000000000e+00 0.0000000000000000e+00  0.0000000000000000e+00 0.0000000000000000e+00 0.0000000000000000e+00  0.0000000000000000e+00 0.0000000000000000e+00 0.0000000000000000e+00  0.0000000000000000e+00 0.0000000000000000e+00 0.0000000000000000e+00  0.0000000000000000e+00 0.0000000000000000e+00 0.0000000000000000e+00  0.0000000000000000e+00 0.0000000000000000e+00 0.0000000000000000e+00  0.0000000000000000e+00 0.0000000000000000e+00 0.0000000000000000e+00  0.0000000000000000e+00 0.0000000000000000e+00 0.0000000000000000e+00  0.0000000000000000e+00 0.0000000000000000e+00 0.0000000000000000e+00  0.0000000000000000e+00 0.0000000000000000e+00 0.0000000000000000e+00  0.0000000000000000e+00 0.0000000000000000e+00 0.0000000000000000e+00  0.0000000000000000e+00 0.0000000000000000e+00 0.0000000000000000e+00  0.0000000000000000e+00 0.0000000000000000e+00 0.0000000000000000e+00  0.0000000000000000e+00 0.0000000000000000e+00 0.0000000000000000e+00  0.0000000000000000e+00 0.0000000000000000e+00 0.0000000000000000e+00  0.0000000000000000e+00 0.0000000000000000e+00 0.0000000000000000e+00  0.0000000000000000e+00 0.0000000000000000e+00 0.0000000000000000e+00  0.0000000000000000e+00 0.0000000000000000e+00 0.0000000000000000e+00  0.0000000000000000e+00 0.0000000000000000e+00 0.0000000000000000e+00  0.0000000000000000e+00 0.0000000000000000e+00 0.0000000000000000e+00  0.0000000000000000e+00 0.0000000000000000e+00 0.0000000000000000e+00  0.0000000000000000e+00 0.0000000000000000e+00 0.0000000000000000e+00  0.0000000000000000e+00 0.0000000000000000e+00 0.0000000000000000e+00  0.0000000000000000e+00 0.0000000000000000e+00 0.0000000000000000e+00  0.0000000000000000e+00 0.0000000000000000e+00 0.0000000000000000e+00  0.0000000000000000e+00 0.0000000000000000e+00 0.0000000000000000e+00  0.0000000000000000e+00 0.0000000000000000e+00 0.0000000000000000e+00  0.0000000000000000e+00 0.0000000000000000e+00 0.0000000000000000e+00  0.0000000000000000e+00 0.0000000000000000e+00 0.0000000000000000e+00  0.0000000000000000e+00 0.0000000000000000e+00 0.0000000000000000e+00  0.0000000000000000e+00 0.0000000000000000e+00 0.0000000000000000e+00  0.0000000000000000e+00 0.0000000000000000e+00 0.0000000000000000e+00  0.0000000000000000e+00 0.0000000000000000e+00 0.0000000000000000e+00  0.0000000000000000e+00 0.0000000000000000e+00 0.0000000000000000e+00  0.0000000000000000e+00 0.0000000000000000e+00 0.0000000000000000e+00  0.0000000000000000e+00 0.0000000000000000e+00 0.0000000000000000e+00  0.0000000000000000e+00 0.0000000000000000e+00 0.0000000000000000e+00  0.0000000000000000e+00 0.0000000000000000e+00 0.0000000000000000e+00  0.0000000000000000e+00 0.0000000000000000e+00 0.0000000000000000e+00  0.0000000000000000e+00 0.0000000000000000e+00 0.0000000000000000e+00  0.0000000000000000e+00 0.0000000000000000e+00 0.0000000000000000e+00  0.0000000000000000e+00 0.0000000000000000e+00 0.0000000000000000e+00  0.0000000000000000e+00 0.0000000000000000e+00 0.0000000000000000e+00  0.0000000000000000e+00 0.0000000000000000e+00 0.0000000000000000e+00  0.0000000000000000e+00 0.0000000000000000e+00 0.0000000000000000e+00  0.0000000000000000e+00 0.0000000000000000e+00 0.0000000000000000e+00  0.0000000000000000e+00 0.0000000000000000e+00 0.0000000000000000e+00  0.0000000000000000e+00 0.0000000000000000e+00 0.0000000000000000e+00  0.0000000000000000e+00 0.0000000000000000e+00 0.0000000000000000e+00  0.0000000000000000e+00 0.0000000000000000e+00 0.0000000000000000e+00  0.0000000000000000e+00 0.0000000000000000e+00 0.0000000000000000e+00  0.0000000000000000e+00 0.0000000000000000e+00 0.0000000000000000e+00  0.0000000000000000e+00 0.0000000000000000e+00 0.0000000000000000e+00  0.0000000000000000e+00 0.0000000000000000e+00 0.0000000000000000e+00  0.0000000000000000e+00 0.0000000000000000e+00 0.0000000000000000e+00  0.0000000000000000e+00 0.0000000000000000e+00 0.0000000000000000e+00  0.0000000000000000e+00 0.0000000000000000e+00 0.0000000000000000e+00  0.0000000000000000e+00 0.0000000000000000e+00 0.0000000000000000e+00  0.0000000000000000e+00 0.0000000000000000e+00 0.0000000000000000e+00  0.0000000000000000e+00 0.0000000000000000e+00 0.0000000000000000e+00  0.0000000000000000e+00 0.0000000000000000e+00 0.0000000000000000e+00  0.0000000000000000e+00 0.0000000000000000e+00 0.0000000000000000e+00  0.0000000000000000e+00 0.0000000000000000e+00 0.0000000000000000e+00  0.0000000000000000e+00 0.0000000000000000e+00 0.0000000000000000e+00  0.0000000000000000e+00 0.0000000000000000e+00 0.0000000000000000e+00  0.0000000000000000e+00 0.0000000000000000e+00 0.0000000000000000e+00  0.0000000000000000e+00 0.0000000000000000e+00 0.0000000000000000e+00  0.0000000000000000e+00 0.0000000000000000e+00 0.0000000000000000e+00  0.0000000000000000e+00 0.0000000000000000e+00 0.0000000000000000e+00  0.0000000000000000e+00 0.0000000000000000e+00 0.0000000000000000e+00  0.0000000000000000e+00 0.0000000000000000e+00 0.0000000000000000e+00  0.0000000000000000e+00 0.0000000000000000e+00 0.0000000000000000e+00  0.0000000000000000e+00 0.0000000000000000e+00 0.0000000000000000e+00  0.0000000000000000e+00 0.0000000000000000e+00 0.0000000000000000e+00  0.0000000000000000e+00 0.0000000000000000e+00 0.0000000000000000e+00  0.0000000000000000e+00 0.0000000000000000e+00 0.0000000000000000e+00  0.0000000000000000e+00 0.0000000000000000e+00 0.0000000000000000e+00  0.0000000000000000e+00 0.0000000000000000e+00 0.0000000000000000e+00  0.0000000000000000e+00 0.0000000000000000e+00 0.0000000000000000e+00  0.0000000000000000e+00 0.0000000000000000e+00 0.0000000000000000e+00  0.0000000000000000e+00 0.0000000000000000e+00 0.0000000000000000e+00  0.0000000000000000e+00 0.0000000000000000e+00 0.0000000000000000e+00  0.0000000000000000e+00 0.0000000000000000e+00 0.0000000000000000e+00  0.0000000000000000e+00 0.0000000000000000e+00 0.0000000000000000e+00  0.0000000000000000e+00 0.0000000000000000e+00 0.0000000000000000e+00  0.0000000000000000e+00 0.0000000000000000e+00 0.0000000000000000e+00  0.0000000000000000e+00 0.0000000000000000e+00 0.0000000000000000e+00  0.0000000000000000e+00 0.0000000000000000e+00 0.0000000000000000e+00  0.0000000000000000e+00 0.0000000000000000e+00 0.0000000000000000e+00  0.0000000000000000e+00 0.0000000000000000e+00 0.0000000000000000e+00  0.0000000000000000e+00 0.0000000000000000e+00 0.0000000000000000e+00  0.0000000000000000e+00 0.0000000000000000e+00 0.0000000000000000e+00  0.0000000000000000e+00 0.0000000000000000e+00 0.0000000000000000e+00  0.0000000000000000e+00 0.0000000000000000e+00 0.0000000000000000e+00  0.0000000000000000e+00 0.0000000000000000e+00 0.0000000000000000e+00  0.0000000000000000e+00 0.0000000000000000e+00 0.0000000000000000e+00  0.0000000000000000e+00 0.0000000000000000e+00 0.0000000000000000e+00  0.0000000000000000e+00 0.0000000000000000e+00 0.0000000000000000e+00  0.0000000000000000e+00 0.0000000000000000e+00 0.0000000000000000e+00  0.0000000000000000e+00 0.0000000000000000e+00 0.0000000000000000e+00  0.0000000000000000e+00 0.0000000000000000e+00 0.0000000000000000e+00  0.0000000000000000e+00 0.0000000000000000e+00 0.0000000000000000e+00  0.0000000000000000e+00 0.0000000000000000e+00 0.0000000000000000e+00  0.0000000000000000e+00 0.0000000000000000e+00 0.0000000000000000e+00  0.0000000000000000e+00 0.0000000000000000e+00 0.0000000000000000e+00  1.3245658630717252e-06 -2.4062695104468847e-06 0.0000000000000000e+00  2.8358161438721761e-06 -3.2752012761548926e-06 0.0000000000000000e+00  4.4007953147278571e-06 -4.5302139927505095e-06 0.0000000000000000e+00  6.0816101598948416e-06 -6.2560108619563513e-06 0.0000000000000000e+00  7.6668675616272226e-06 -8.4372431830692940e-06 0.0000000000000000e+00  9.3397827591780689e-06 -1.1149966443494896e-05 0.0000000000000000e+00  1.0866028919297865e-05 -1.4237962734379884e-05 0.0000000000000000e+00  1.2364172803719720e-05 -1.7840860301047538e-05 0.0000000000000000e+00  1.3944108151085913e-05 -2.1839170854819532e-05 0.0000000000000000e+00  1.5342889163939071e-05 -2.6250404204348368e-05 0.0000000000000000e+00  1.6843007555831619e-05 -3.1093508083361240e-05 0.0000000000000000e+00  1.8158264414221771e-05 -3.6310042937567804e-05 0.0000000000000000e+00  1.9534621520676443e-05 -4.1913282123581465e-05 0.0000000000000000e+00  2.0773202751105885e-05 -4.7830928571227994e-05 0.0000000000000000e+00  2.1967411325015038e-05 -5.4134615479538389e-05 0.0000000000000000e+00  2.3205394623312129e-05 -6.0744484320027801e-05 0.0000000000000000e+00  2.4278400913910858e-05 -6.7654038757116128e-05 0.0000000000000000e+00  2.5408083473143489e-05 -7.4895316352492156e-05 0.0000000000000000e+00  2.6380731114349551e-05 -8.2386854408320834e-05 0.0000000000000000e+00  2.7394477763772746e-05 -9.0166079548284210e-05 0.0000000000000000e+00  2.8282963274819811e-05 -9.8183119676945090e-05 0.0000000000000000e+00  2.9179715350349499e-05 -1.0646705710367317e-04 0.0000000000000000e+00  2.9970942032057527e-05 -1.1494045593273562e-04 0.0000000000000000e+00  3.0717088907666600e-05 -1.2365357989687565e-04 0.0000000000000000e+00  3.1465216200541144e-05 -1.3254646773483517e-04 0.0000000000000000e+00  3.2119906640095866e-05 -1.4162112992359532e-04 0.0000000000000000e+00  3.2740834022505574e-05 -1.5089748724544786e-04 0.0000000000000000e+00  3.3297358925833909e-05 -1.6030119290487394e-04 0.0000000000000000e+00  3.3821184528777851e-05 -1.6988028185958672e-04 0.0000000000000000e+00  3.4280309503319611e-05 -1.7957006101962310e-04 0.0000000000000000e+00  3.4706411140488790e-05 -1.8940679336285079e-04 0.0000000000000000e+00  3.5069763883153955e-05 -1.9932664814733118e-04 0.0000000000000000e+00  3.5399805093177805e-05 -2.0937411778196199e-04 0.0000000000000000e+00  3.5668220967227824e-05 -2.1948341958500574e-04 0.0000000000000000e+00  3.5902155765681077e-05 -2.2970221707011013e-04 0.0000000000000000e+00  3.6080883796741534e-05 -2.3996457257774732e-04 0.0000000000000000e+00  3.6228755945556802e-05 -2.5031091417457638e-04 0.0000000000000000e+00  3.6321768514926664e-05 -2.6069118470714971e-04 0.0000000000000000e+00  3.6379243396657245e-05 -2.7114214454565484e-04 0.0000000000000000e+00  3.6386114603555589e-05 -2.8161161337158754e-04 0.0000000000000000e+00  3.6353970117901161e-05 -2.9213073146313614e-04 0.0000000000000000e+00  3.6275017996723470e-05 -3.0266707148176664e-04 0.0000000000000000e+00  3.6159030355033290e-05 -3.1323571930384883e-04 0.0000000000000000e+00  3.6012118249783243e-05 -3.2381231282464665e-04 0.0000000000000000e+00  3.5832391296671909e-05 -3.3439228857900816e-04 0.0000000000000000e+00  3.5629445225410007e-05 -3.4503145679662845e-04 0.0000000000000000e+00  2.8080516246451473e-05 -3.5540322798040095e-04 0.0000000000000000e+00  1.3818360165009981e-05 -3.5447954710912048e-04 0.0000000000000000e+00  7.0885856196978508e-06 -3.4351113999403797e-04 0.0000000000000000e+00  7.3173637680071696e-06 -3.3283256668985691e-04 0.0000000000000000e+00  7.5586914432937270e-06 -3.2213440962623995e-04 0.0000000000000000e+00  7.7548362619546891e-06 -3.1146710062236819e-04 0.0000000000000000e+00  7.9376091221559488e-06 -3.0082822330402089e-04 0.0000000000000000e+00  8.0763232824671569e-06 -2.9020844055643885e-04 0.0000000000000000e+00  8.2126981403014173e-06 -2.7962161228604351e-04 0.0000000000000000e+00  8.2936264967584427e-06 -2.6906397870518433e-04 0.0000000000000000e+00  8.3801097647587135e-06 -2.5856028491831124e-04 0.0000000000000000e+00  8.4088012726552581e-06 -2.4808946568373680e-04 0.0000000000000000e+00  8.4407745703516894e-06 -2.3768882110879270e-04 0.0000000000000000e+00  8.4230999219014149e-06 -2.2733868590966793e-04 0.0000000000000000e+00  8.4124349179917795e-06 -2.1707000999120866e-04 0.0000000000000000e+00  8.3523313027663750e-06 -2.0686682487726601e-04 0.0000000000000000e+00  8.3024960851489743e-06 -1.9677300540083337e-04 0.0000000000000000e+00  8.2015244449849218e-06 -1.8675947603223481e-04 0.0000000000000000e+00  8.1172338913458785e-06 -1.7687664627102443e-04 0.0000000000000000e+00  7.9744660447272630e-06 -1.6709615446091106e-04 0.0000000000000000e+00  7.8671225506920042e-06 -1.5746937416095456e-04 0.0000000000000000e+00  7.6838477750110006e-06 -1.4797188787094067e-04 0.0000000000000000e+00  7.5547332600130780e-06 -1.3865628064761311e-04 0.0000000000000000e+00  7.3336656874751867e-06 -1.2949257235902203e-04 0.0000000000000000e+00  7.1678568241099437e-06 -1.2053351164820428e-04 0.0000000000000000e+00  6.9275598293491582e-06 -1.1175043105641131e-04 0.0000000000000000e+00  6.6760880070450043e-06 -1.0320848404064855e-04 0.0000000000000000e+00  6.4582099322704511e-06 -9.4862530744116747e-05 0.0000000000000000e+00  6.2002095487467178e-06 -8.6767906910581794e-05 0.0000000000000000e+00  5.9398007669690632e-06 -7.8931414221585560e-05 0.0000000000000000e+00  5.6441353351712733e-06 -7.1354481499725408e-05 0.0000000000000000e+00  5.3567627629856282e-06 -6.4075955456608999e-05 0.0000000000000000e+00  5.0399501384671584e-06 -5.7064426458457653e-05 0.0000000000000000e+00  4.7572284901986518e-06 -5.0419812041873515e-05 0.0000000000000000e+00  4.4020054859909200e-06 -4.4048594714590192e-05 0.0000000000000000e+00  4.0210721061071096e-06 -3.8076294930527089e-05 0.0000000000000000e+00  3.7121555055946384e-06 -3.2392520521143506e-05 0.0000000000000000e+00  3.3449287052091957e-06 -2.7129301898691085e-05 0.0000000000000000e+00  3.0093354095184301e-06 -2.2244431668281326e-05 0.0000000000000000e+00  2.6296785985318334e-06 -1.7763810105701145e-05 0.0000000000000000e+00  2.3195609227647934e-06 -1.3756857712127588e-05 0.0000000000000000e+00  1.9147276466923094e-06 -1.0112627005076534e-05 0.0000000000000000e+00  1.4912929718822912e-06 -6.9905871548276099e-06 0.0000000000000000e+00  1.1909987059231134e-06 -4.2518340601314231e-06 0.0000000000000000e+00  8.0136777292036117e-07 -2.0158859025186145e-06 0.0000000000000000e+00  5.2943127559499513e-07 -2.7903255931735767e-07 0.0000000000000000e+00  2.0883873770339401e-07 9.0033426118523918e-07 0.0000000000000000e+00  1.0053042020129721e-07 1.4651960116969476e-06 0.0000000000000000e+00  8.0580515553267482e-07 -4.8339547854300964e-07 0.0000000000000000e+00  2.1519502271073923e-05 -3.3891637455976578e-04 0.0000000000000000e+00  2.2106500520688624e-05 -3.1858223764976232e-04 0.0000000000000000e+00  2.2380062869273222e-05 -2.8549964868757028e-04 0.0000000000000000e+00  2.9232819103745455e-06 -2.8878290047734155e-06 0.0000000000000000e+00  2.2297259018168469e-05 -2.6482684931311296e-04 0.0000000000000000e+00  4.7873476258284416e-06 -7.0832297498775766e-06 0.0000000000000000e+00  2.2244291289211921e-05 -2.4396593459372762e-04 0.0000000000000000e+00  7.7497814656154252e-06 -1.7601415727253922e-05 0.0000000000000000e+00  9.6025054052961684e-06 -2.6372594045081688e-05 0.0000000000000000e+00  2.2056495552277477e-05 -2.2333879934357840e-04 0.0000000000000000e+00  1.3617267539227207e-05 -5.5592372936937570e-05 0.0000000000000000e+00  2.1281697726488045e-05 -1.8306119046635711e-04 0.0000000000000000e+00  1.1166622949567676e-05 -3.6397895097629775e-05 0.0000000000000000e+00  1.5132599295069721e-05 -6.9270421301383705e-05 0.0000000000000000e+00  2.0696507756335698e-05 -1.6357579578750334e-04 0.0000000000000000e+00  2.1735663456972247e-05 -2.0301005047844222e-04 0.0000000000000000e+00  1.6437865945517503e-05 -8.4358604286192260e-05 0.0000000000000000e+00  1.9978602514286761e-05 -1.4465700463660595e-04 0.0000000000000000e+00  1.7427459923283341e-05 -9.9797657607029818e-05 0.0000000000000000e+00  1.9305641905892581e-05 -1.2679280551073204e-04 0.0000000000000000e+00  1.8353937012303088e-05 -1.1253485243103050e-04 0.0000000000000000e+00  1.2483361648324906e-05 -4.5241446396521428e-05 0.0000000000000000e+00  2.2010957474236189e-05 -3.0266022902243400e-04 0.0000000000000000e+00  6.2752679339856502e-06 -1.1685660535427333e-05 0.0000000000000000e+00  1.6840986644287915e-05 -3.2839171621596081e-04 0.0000000000000000e+00  1.2914875173652895e-06 -6.7340678009596959e-07 0.0000000000000000e+00  1.8235005862812796e-05 -2.5406159795059001e-04 0.0000000000000000e+00  1.8185237230513059e-05 -2.7503785413975941e-04 0.0000000000000000e+00  4.9435556332193738e-06 -5.6411641390785919e-06 0.0000000000000000e+00  1.0429152448197911e-05 -2.2329916539396688e-05 0.0000000000000000e+00  1.7654136248542871e-05 -1.9261466404423285e-04 0.0000000000000000e+00  1.8160893745294846e-05 -2.3329034994640276e-04 0.0000000000000000e+00  1.7133694317304439e-05 -6.2703477234085311e-05 0.0000000000000000e+00  1.7226836724617246e-05 -1.7286869237349235e-04 0.0000000000000000e+00  1.2500721440332317e-05 -3.2041668713936635e-05 0.0000000000000000e+00  1.8721709898389312e-05 -7.7211649289741225e-05 0.0000000000000000e+00  1.6686073142264353e-05 -1.5363643390442567e-04 0.0000000000000000e+00  1.7966591160554208e-05 -2.1278211333468179e-04 0.0000000000000000e+00  2.0845157277710232e-05 -9.2834429697106590e-05 0.0000000000000000e+00  1.6030924860935636e-05 -1.3502140976492613e-04 0.0000000000000000e+00  2.6178272780713589e-07 -5.6279247167075400e-07 0.0000000000000000e+00  4.4640096260064869e-08 3.5300988267167013e-07 0.0000000000000000e+00  2.4570561329650798e-05 -3.4748009354059085e-04 0.0000000000000000e+00  2.5432674082391549e-06 -2.3498832055313930e-06 0.0000000000000000e+00  1.4558834