<?xml version="1.0"?>
<VTKFile type="UnstructuredGrid"  version="0.1"  >
<UnstructuredGrid>
<Piece  NumberOfPoints="1419" NumberOfCells="2698">
<Points>
<DataArray  type="Float64"  NumberOfComponents="3"  format="ascii">0 0 0  0 0.41 0  2.5 0 0  2.5 0.41 0  0.6 0.19 0  0.6 0.21 0  0.25 0.2 0  0.15 0.2 0  0.2489897948556636 0.21 0  0.2489897948556636 0.19 0  0.6 0.2 0  0 0.3807142857143437 0  0 0.3514285714286952 0  0 0.3221428571430699 0  0 0.29285714285744 0  0 0.2635714285718054 0  0 0.2342857142861561 0  0 0.2050000000005308 0  0 0.175714285714732 0  0 0.1464285714289574 0  0 0.1171428571431897 0  0 0.08785714285737878 0  0 0.05857142857161107 0  0 0.02928571428580012 0  0.03015443760436003 0 0  0.06140001986583606 0 0  0.09377624077125973 0 0  0.1273239957535082 0 0  0.1620856860351972 0 0  0.1981052433264291 0 0  0.235428184091502 0 0  0.2741016576309132 0 0  0.3141745521465447 0 0  0.3556974926295285 0 0  0.3987229542472677 0 0  0.4433053055141081 0 0  0.4895008759286886 0 0  0.5373680609405097 0 0  0.5869673343216626 0 0  0.6383613676634521 0 0  0.6916151138468254 0 0  0.7467958595648856 0 0  0.8039733463919316 0 0  0.8632198139502143 0 0  0.9246101326867038 0 0  0.9882218810934433 0 0  1.054135445558498 0 0  1.122434100542598 0 0  1.193204177141305 0 0  1.266535089879536 0 0  1.342519516046404 0 0  1.421253448503939 0 0  1.502836389106271 0 0  1.587371439758838 0 0  1.674965418777374 0 0  1.765729001825544 0 0  1.859776908880082 0 0  1.957227977487062 0 0  2.058205329869943 0 0  2.162836591189951 0 0  2.271253957290865 0 0  2.383594446803425 0 0  2.5 0.1024999999997612 0  2.5 0.2049999999994743 0  2.5 0.3074999999997183 0  2.383594446803656 0.41 0  2.271253957291315 0.41 0  2.162836591190598 0.41 0  2.058205329870775 0.41 0  1.957227977488067 0.41 0  1.859776908881246 0.41 0  1.765729001826854 0.41 0  1.674965418778818 0.41 0  1.58737143976041 0.41 0  1.502836389107956 0.41 0  1.421253448505726 0.41 0  1.342519516048286 0.41 0  1.266535089881505 0.41 0  1.193204177143353 0.41 0  1.122434100544716 0.41 0  1.05413544556068 0.41 0  0.9882218810956305 0.41 0  0.9246101326886647 0.41 0  0.8632198139519631 0.41 0  0.8039733463934788 0.41 0  0.7467958595662458 0.41 0  0.6916151138480078 0.41 0  0.6383613676644679 0.41 0  0.5869673343225223 0.41 0  0.5373680609412221 0.41 0  0.4895008759292634 0.41 0  0.4433053055145528 0.41 0  0.3987229542475914 0.41 0  0.3556974926297398 0.41 0  0.3141745521466497 0.41 0  0.2741016576310038 0.41 0  0.2354281840915826 0.41 0  0.1981052433265003 0.41 0  0.1620856860352591 0.41 0  0.1273239957535623 0.41 0  0.09377624077128965 0.41 0  0.06140001986584975 0.41 0  0.03015443760436654 0.41 0  0.2497468076502589 0.2050254481002335 0  0.2497468076502614 0.1949745518997913 0  0.2469965252529372 0.1829317073451959 0  0.2439893735792749 0.1762316384219906 0  0.2400332147834255 0.1700443375285386 0  0.2352133972704371 0.1645032867342007 0  0.2296339016332438 0.1597280261969788 0  0.2234150974217223 0.1558215752574715 0  0.2166911463437691 0.1528682099456123 0  0.2096071079204251 0.1509316448471593 0  0.2023158100364996 0.1500536585536553 0  0.194974551899914 0.1502531923497262 0  0.1877417105387872 0.1515259415822739 0  0.1807733240461124 0.153844448527136 0  0.1742197252835808 0.15715869474974 0  0.1682222986673531 0.1613971801805478 0  0.162910430003803 0.1664684656256651 0  0.1583987151779087 0.1722631454351573 0  0.1547844879126891 0.178656207771761 0  0.1521457199348551 0.1855097315605723 0  0.1505393388476355 0.1926758619366523 0  0.1505393388476328 0.2073241380633295 0  0.1521457199348437 0.2144902684393899 0  0.1547844879126531 0.221343792228163 0  0.1583987151778488 0.2277368545647528 0  0.1629104300036858 0.2335315343742052 0  0.1682222986671726 0.2386028198193036 0  0.1742197252833576 0.2428413052501257 0  0.1807733240458683 0.2461555514727623 0  0.1877417105384929 0.2484740584176516 0  0.1949745518995776 0.2497468076502398 0  0.202315810036185 0.2499463414463592 0  0.2096071079201568 0.2490683551528932 0  0.2166911463435495 0.2471317900544655 0  0.2234150974215506 0.2441784247426195 0  0.2296339016331197 0.2402719738031125 0  0.2352133972703547 0.2354967132658811 0  0.2400332147833751 0.2299556624715287 0  0.2439893735792577 0.2237683615780412 0  0.246996525252926 0.2170682926548348 0  0.25645809709277 0.21 0  0.2639263993298655 0.21 0  0.271394701566961 0.21 0  0.2788630038040554 0.21 0  0.2863313060411479 0.21 0  0.2937996082782405 0.21 0  0.301267910515333 0.21 0  0.3087362127524279 0.21 0  0.3162045149895234 0.21 0  0.3236728172265972 0.21 0  0.3311411194636928 0.21 0  0.3386094217007701 0.21 0  0.3460777239378666 0.21 0  0.3535460261749672 0.21 0  0.3610143284120516 0.21 0  0.3684826306491596 0.21 0  0.3759509328862226 0.21 0  0.383419235123329 0.21 0  0.3908875373604028 0.21 0  0.3983558395975142 0.21 0  0.4058241418345938 0.21 0  0.4132924440716992 0.21 0  0.4207607463087888 0.21 0  0.4282290485459029 0.21 0  0.4356973507830418 0.21 0  0.4431656530201649 0.21 0  0.4506339552573136 0.21 0  0.4581022574944306 0.21 0  0.4655705597315852 0.21 0  0.4730388619686996 0.21 0  0.480507164205851 0.21 0  0.4879754664429498 0.21 0  0.4954437686800938 0.21 0  0.502912070917267 0.21 0  0.5103803731544119 0.21 0  0.5178486753915261 0.21 0  0.5253169776286404 0.21 0  0.5327852798657868 0.21 0  0.5402535821029386 0.21 0  0.54772188434007 0.21 0  0.5551901865771842 0.21 0  0.5626584888143201 0.21 0  0.5701267910514778 0.21 0  0.5775950932886138 0.21 0  0.5850633955257281 0.21 0  0.5925316977628483 0.21 0  0.6 0.2050000000000054 0  0.6 0.1950000000000217 0  0.5925316977628897 0.19 0  0.5850633955257988 0.19 0  0.5775950932887378 0.19 0  0.5701267910515998 0.19 0  0.5626584888145268 0.19 0  0.5551901865773963 0.19 0  0.547721884340339 0.19 0  0.5402535821032429 0.19 0  0.5327852798661811 0.19 0  0.5253169776290537 0.19 0  0.5178486753919799 0.19 0  0.5103803731549078 0.19 0  0.502912070917822 0.19 0  0.4954437686807294 0.19 0  0.4879754664436223 0.19 0  0.4805071642065402 0.19 0  0.4730388619694271 0.19 0  0.4655705597323621 0.19 0  0.4581022574952563 0.19 0  0.4506339552581777 0.19 0  0.4431656530210671 0.19 0  0.4356973507839815 0.19 0  0.4282290485468779 0.19 0  0.4207607463097617 0.19 0  0.4132924440726327 0.19 0  0.4058241418354857 0.19 0  0.3983558395983636 0.19 0  0.3908875373612097 0.19 0  0.3834192351240934 0.19 0  0.3759509328869369 0.19 0  0.3684826306498175 0.19 0  0.361014328412667 0.19 0  0.3535460261755617 0.19 0  0.3460777239384295 0.19 0  0.3386094217012945 0.19 0  0.3311411194641595 0.19 0  0.3236728172270245 0.19 0  0.3162045149898895 0.19 0  0.3087362127527544 0.19 0  0.3012679105156187 0.19 0  0.2937996082784807 0.19 0  0.2863313060413428 0.19 0  0.2788630038042048 0.19 0  0.2713947015670686 0.19 0  0.2639263993299336 0.19 0  0.2564580970927985 0.19 0  0.2607803159922026 0.2000727136295815 0  0.5887803774232762 0.2001272386983733 0  0.5745072403740523 0.2002044435018727 0  0.5511891430099709 0.2001122610077113 0  0.2751288526855082 0.20000000000002 0  0.5365194309847112 0.1999999999999436 0  0.2894621222999649 0.1998691686390484 0  0.5215828265105155 0.1999999999999228 0  0.3127789816668748 0.1998657885438805 0  0.3274069683451451 0.2000000000000796 0  0.5066462220363641 0.199999999999908 0  0.3650630746574081 0.199866017807523 0  0.476773013087985 0.1999999999998713 0  0.3417402379596385 0.1998691686391011 0  0.3796850840047755 0.200000000000134 0  0.4618364086138087 0.1999999999998546 0  0.4917096175621762 0.1999999999998808 0  0.3946216884789568 0.2000000000001512 0  0.446899804139621 0.1999999999998389 0  0.4089549580935208 0.1998691686391595 0  0.4322718174608562 0.200127451265745 0  0.4201487168029707 0.1999966199048527 0  0.3528922713220932 0.2000185703532356 0  0.5633122436674589 0.1999814296467508 0  0.3006558810093873 0.1999966199048318 0  0.5815926498168407 0.1966545283159175 0  0.2677053789419034 0.1964246479135325 0  0.5290511287476175 0.1970915826863981 0  0.5439877332217911 0.197091582686394 0  0.2825131256993216 0.2035478995978015 0  0.3199386661080599 0.202908417313604 0  0.4842413153250809 0.1970915826863873 0  0.5141145242734466 0.1970915826863843 0  0.3722167817676917 0.2029084173136195 0  0.4693047108508938 0.1970915826863783 0  0.3348752705822316 0.202908417313609 0  0.3871533862418661 0.2029084173136212 0  0.4543681063767183 0.1970915826863795 0  0.4991779197992749 0.1970915826863902 0  0.4020059614928624 0.203547899597858 0  0.4394315019025246 0.1970915826863714 0  0.2550657455369551 0.2034088125358657 0  0.2548908499171161 0.1966940311614271 0  0.5946539510196798 0.2024302972968126 0  0.267698176732111 0.2039977513680092 0  0.4261685417851465 0.196409292431739 0  0.3590076176283495 0.196411355804271 0  0.5571672426447437 0.2036011176410121 0  0.3066757059912147 0.1964092924317024 0  0.594380730180568 0.1966558399668133 0  0.4842413153245942 0.2040749161535287 0  0.4693047108503577 0.2040749161535231 0  0.3871533862424271 0.1959250838464788 0  0.372246743208829 0.1959123236376545 0  0.5141145242731028 0.2040749161535395 0  0.4543681063761134 0.2040749161535186 0  0.4019979587101454 0.1959834479682427 0  0.4394608940728603 0.2040870543693135 0  0.5439623148931173 0.2040856076781014 0  0.5290511287473298 0.2040749161535501 0  0.4991779197988497 0.2040749161535382 0  0.3347912413592433 0.1959225448935183 0  0.3199680582793816 0.1959123018030061 0  0.2825051229162361 0.1959834479681729 0  0.3590471196690275 0.2036304442587945 0  0.5571594006495384 0.1963685282145804 0  0.3067669986803285 0.203627750582736 0  0.4262598344738712 0.2036568242185335 0  0.5814408164431408 0.2041285596160068 0  0.5688286748170428 0.1961819304477386 0  0.4145905603063645 0.2038180695522843 0  0.3473758401724931 0.2038180695522752 0  0.2950977245128307 0.2038180695522663 0  0.5688286748170693 0.203818069552238 0  0.2950977245127906 0.1961819304477774 0  0.3473758401723931 0.1961819304478349 0  0.4145905603061963 0.1961819304479011 0  0.2601812407614425 0.2056861609747042
[...]
<PointData  Vectors="f_40-1"> 
<DataArray  type="Float64"  Name="f_40-1"  NumberOfComponents="3" format="ascii">0.0000000000000000e+00 0.0000000000000000e+00 0.0000000000000000e+00  0.0000000000000000e+00 0.0000000000000000e+00 0.0000000000000000e+00  0.0000000000000000e+00 0.0000000000000000e+00 0.0000000000000000e+00  0.0000000000000000e+00 0.0000000000000000e+00 0.0000000000000000e+00  -1.0136305441188313e-06 -5.1178701948299783e-05 0.0000000000000000e+00  3.3431293892999399e-06 -5.2832426533828919e-05 0.0000000000000000e+00  0.0000000000000000e+00 0.0000000000000000e+00 0.0000000000000000e+00  0.0000000000000000e+00 0.0000000000000000e+00 0.0000000000000000e+00  0.0000000000000000e+00 0.0000000000000000e+00 0.0000000000000000e+00  0.0000000000000000e+00 0.0000000000000000e+00 0.0000000000000000e+00  9.6700668551780608e-07 -5.2004239605862798e-05 0.0000000000000000e+00  0.0000000000000000e+00 0.0000000000000000e+00 0.0000000000000000e+00  0.0000000000000000e+00 0.0000000000000000e+00 0.0000000000000000e+00  0.0000000000000000e+00 0.0000000000000000e+00 0.0000000000000000e+00  0.0000000000000000e+00 0.0000000000000000e+00 0.0000000000000000e+00  0.0000000000000000e+00 0.0000000000000000e+00 0.0000000000000000e+00  0.0000000000000000e+00 0.0000000000000000e+00 0.0000000000000000e+00  0.0000000000000000e+00 0.0000000000000000e+00 0.0000000000000000e+00  0.0000000000000000e+00 0.0000000000000000e+00 0.0000000000000000e+00  0.0000000000000000e+00 0.0000000000000000e+00 0.0000000000000000e+00  0.0000000000000000e+00 0.0000000000000000e+00 0.0000000000000000e+00  0.0000000000000000e+00 0.0000000000000000e+00 0.0000000000000000e+00  0.0000000000000000e+00 0.0000000000000000e+00 0.0000000000000000e+00  0.0000000000000000e+00 0.0000000000000000e+00 0.0000000000000000e+00  0.0000000000000000e+00 0.0000000000000000e+00 0.0000000000000000e+00  0.0000000000000000e+00 0.0000000000000000e+00 0.0000000000000000e+00  0.0000000000000000e+00 0.0000000000000000e+00 0.0000000000000000e+00  0.0000000000000000e+00 0.0000000000000000e+00 0.0000000000000000e+00  0.0000000000000000e+00 0.0000000000000000e+00 0.0000000000000000e+00  0.0000000000000000e+00 0.0000000000000000e+00 0.0000000000000000e+00  0.0000000000000000e+00 0.0000000000000000e+00 0.0000000000000000e+00  0.0000000000000000e+00 0.0000000000000000e+00 0.0000000000000000e+00  0.0000000000000000e+00 0.0000000000000000e+00 0.0000000000000000e+00  0.0000000000000000e+00 0.0000000000000000e+00 0.0000000000000000e+00  0.0000000000000000e+00 0.0000000000000000e+00 0.0000000000000000e+00  0.0000000000000000e+00 0.0000000000000000e+00 0.0000000000000000e+00  0.0000000000000000e+00 0.0000000000000000e+00 0.0000000000000000e+00  0.0000000000000000e+00 0.0000000000000000e+00 0.0000000000000000e+00  0.0000000000000000e+00 0.0000000000000000e+00 0.0000000000000000e+00  0.0000000000000000e+00 0.0000000000000000e+00 0.0000000000000000e+00  0.0000000000000000e+00 0.0000000000000000e+00 0.0000000000000000e+00  0.0000000000000000e+00 0.0000000000000000e+00 0.0000000000000000e+00  0.0000000000000000e+00 0.0000000000000000e+00 0.0000000000000000e+00  0.0000000000000000e+00 0.0000000000000000e+00 0.0000000000000000e+00  0.0000000000000000e+00 0.0000000000000000e+00 0.0000000000000000e+00  0.0000000000000000e+00 0.0000000000000000e+00 0.0000000000000000e+00  0.0000000000000000e+00 0.0000000000000000e+00 0.0000000000000000e+00  0.0000000000000000e+00 0.0000000000000000e+00 0.0000000000000000e+00  0.0000000000000000e+00 0.0000000000000000e+00 0.0000000000000000e+00  0.0000000000000000e+00 0.0000000000000000e+00 0.0000000000000000e+00  0.0000000000000000e+00 0.0000000000000000e+00 0.0000000000000000e+00  0.0000000000000000e+00 0.0000000000000000e+00 0.0000000000000000e+00  0.0000000000000000e+00 0.0000000000000000e+00 0.0000000000000000e+00  0.0000000000000000e+00 0.0000000000000000e+00 0.0000000000000000e+00  0.0000000000000000e+00 0.0000000000000000e+00 0.0000000000000000e+00  0.0000000000000000e+00 0.0000000000000000e+00 0.0000000000000000e+00  0.0000000000000000e+00 0.0000000000000000e+00 0.0000000000000000e+00  0.0000000000000000e+00 0.0000000000000000e+00 0.0000000000000000e+00  0.0000000000000000e+00 0.0000000000000000e+00 0.0000000000000000e+00  0.0000000000000000e+00 0.0000000000000000e+00 0.0000000000000000e+00  0.0000000000000000e+00 0.0000000000000000e+00 0.0000000000000000e+00  0.0000000000000000e+00 0.0000000000000000e+00 0.0000000000000000e+00  0.0000000000000000e+00 0.0000000000000000e+00 0.0000000000000000e+00  0.0000000000000000e+00 0.0000000000000000e+00 0.0000000000000000e+00  0.0000000000000000e+00 0.0000000000000000e+00 0.0000000000000000e+00  0.0000000000000000e+00 0.0000000000000000e+00 0.0000000000000000e+00  0.0000000000000000e+00 0.0000000000000000e+00 0.0000000000000000e+00  0.0000000000000000e+00 0.0000000000000000e+00 0.0000000000000000e+00  0.0000000000000000e+00 0.0000000000000000e+00 0.0000000000000000e+00  0.0000000000000000e+00 0.0000000000000000e+00 0.0000000000000000e+00  0.0000000000000000e+00 0.0000000000000000e+00 0.0000000000000000e+00  0.0000000000000000e+00 0.0000000000000000e+00 0.0000000000000000e+00  0.0000000000000000e+00 0.0000000000000000e+00 0.0000000000000000e+00  0.0000000000000000e+00 0.0000000000000000e+00 0.0000000000000000e+00  0.0000000000000000e+00 0.0000000000000000e+00 0.0000000000000000e+00  0.0000000000000000e+00 0.0000000000000000e+00 0.0000000000000000e+00  0.0000000000000000e+00 0.0000000000000000e+00 0.0000000000000000e+00  0.0000000000000000e+00 0.0000000000000000e+00 0.0000000000000000e+00  0.0000000000000000e+00 0.0000000000000000e+00 0.0000000000000000e+00  0.0000000000000000e+00 0.0000000000000000e+00 0.0000000000000000e+00  0.0000000000000000e+00 0.0000000000000000e+00 0.0000000000000000e+00  0.0000000000000000e+00 0.0000000000000000e+00 0.0000000000000000e+00  0.0000000000000000e+00 0.0000000000000000e+00 0.0000000000000000e+00  0.0000000000000000e+00 0.0000000000000000e+00 0.0000000000000000e+00  0.0000000000000000e+00 0.0000000000000000e+00 0.0000000000000000e+00  0.0000000000000000e+00 0.0000000000000000e+00 0.0000000000000000e+00  0.0000000000000000e+00 0.0000000000000000e+00 0.0000000000000000e+00  0.0000000000000000e+00 0.0000000000000000e+00 0.0000000000000000e+00  0.0000000000000000e+00 0.0000000000000000e+00 0.0000000000000000e+00  0.0000000000000000e+00 0.0000000000000000e+00 0.0000000000000000e+00  0.0000000000000000e+00 0.0000000000000000e+00 0.0000000000000000e+00  0.0000000000000000e+00 0.0000000000000000e+00 0.0000000000000000e+00  0.0000000000000000e+00 0.0000000000000000e+00 0.0000000000000000e+00  0.0000000000000000e+00 0.0000000000000000e+00 0.0000000000000000e+00  0.0000000000000000e+00 0.0000000000000000e+00 0.0000000000000000e+00  0.0000000000000000e+00 0.0000000000000000e+00 0.0000000000000000e+00  0.0000000000000000e+00 0.0000000000000000e+00 0.0000000000000000e+00  0.0000000000000000e+00 0.0000000000000000e+00 0.0000000000000000e+00  0.0000000000000000e+00 0.0000000000000000e+00 0.0000000000000000e+00  0.0000000000000000e+00 0.0000000000000000e+00 0.0000000000000000e+00  0.0000000000000000e+00 0.0000000000000000e+00 0.0000000000000000e+00  0.0000000000000000e+00 0.0000000000000000e+00 0.0000000000000000e+00  0.0000000000000000e+00 0.0000000000000000e+00 0.0000000000000000e+00  0.0000000000000000e+00 0.0000000000000000e+00 0.0000000000000000e+00  0.0000000000000000e+00 0.0000000000000000e+00 0.0000000000000000e+00  0.0000000000000000e+00 0.0000000000000000e+00 0.0000000000000000e+00  0.0000000000000000e+00 0.0000000000000000e+00 0.0000000000000000e+00  0.0000000000000000e+00 0.0000000000000000e+00 0.0000000000000000e+00  0.0000000000000000e+00 0.0000000000000000e+00 0.0000000000000000e+00  0.0000000000000000e+00 0.0000000000000000e+00 0.0000000000000000e+00  0.0000000000000000e+00 0.0000000000000000e+00 0.0000000000000000e+00  0.0000000000000000e+00 0.0000000000000000e+00 0.0000000000000000e+00  0.0000000000000000e+00 0.0000000000000000e+00 0.0000000000000000e+00  0.0000000000000000e+00 0.0000000000000000e+00 0.0000000000000000e+00  0.0000000000000000e+00 0.0000000000000000e+00 0.0000000000000000e+00  0.0000000000000000e+00 0.0000000000000000e+00 0.0000000000000000e+00  0.0000000000000000e+00 0.0000000000000000e+00 0.0000000000000000e+00  0.0000000000000000e+00 0.0000000000000000e+00 0.0000000000000000e+00  0.0000000000000000e+00 0.0000000000000000e+00 0.0000000000000000e+00  0.0000000000000000e+00 0.0000000000000000e+00 0.0000000000000000e+00  0.0000000000000000e+00 0.0000000000000000e+00 0.0000000000000000e+00  0.0000000000000000e+00 0.0000000000000000e+00 0.0000000000000000e+00  0.0000000000000000e+00 0.0000000000000000e+00 0.0000000000000000e+00  0.0000000000000000e+00 0.0000000000000000e+00 0.0000000000000000e+00  0.0000000000000000e+00 0.0000000000000000e+00 0.0000000000000000e+00  0.0000000000000000e+00 0.0000000000000000e+00 0.0000000000000000e+00  0.0000000000000000e+00 0.0000000000000000e+00 0.0000000000000000e+00  0.0000000000000000e+00 0.0000000000000000e+00 0.0000000000000000e+00  0.0000000000000000e+00 0.0000000000000000e+00 0.0000000000000000e+00  0.0000000000000000e+00 0.0000000000000000e+00 0.0000000000000000e+00  0.0000000000000000e+00 0.0000000000000000e+00 0.0000000000000000e+00  0.0000000000000000e+00 0.0000000000000000e+00 0.0000000000000000e+00  0.0000000000000000e+00 0.0000000000000000e+00 0.0000000000000000e+00  0.0000000000000000e+00 0.0000000000000000e+00 0.0000000000000000e+00  0.0000000000000000e+00 0.0000000000000000e+00 0.0000000000000000e+00  0.0000000000000000e+00 0.0000000000000000e+00 0.0000000000000000e+00  0.0000000000000000e+00 0.0000000000000000e+00 0.0000000000000000e+00  0.0000000000000000e+00 0.0000000000000000e+00 0.0000000000000000e+00  0.0000000000000000e+00 0.0000000000000000e+00 0.0000000000000000e+00  0.0000000000000000e+00 0.0000000000000000e+00 0.0000000000000000e+00  0.0000000000000000e+00 0.0000000000000000e+00 0.0000000000000000e+00  0.0000000000000000e+00 0.0000000000000000e+00 0.0000000000000000e+00  0.0000000000000000e+00 0.0000000000000000e+00 0.0000000000000000e+00  2.7279063132891661e-07 -1.5187172971926842e-06 0.0000000000000000e+00  6.0889911606576944e-07 -1.7401685027164488e-06 0.0000000000000000e+00  1.0159296751964488e-06 -1.9460652477123980e-06 0.0000000000000000e+00  1.4541271990428474e-06 -2.1884958222498169e-06 0.0000000000000000e+00  1.8876777150416030e-06 -2.4890708786231088e-06 0.0000000000000000e+00  2.3150540690951716e-06 -2.8832519801051548e-06 0.0000000000000000e+00  2.7158558535352562e-06 -3.3225772007432778e-06 0.0000000000000000e+00  3.0939831175555244e-06 -3.8394441951638953e-06 0.0000000000000000e+00  3.4745658898164241e-06 -4.4108733386215791e-06 0.0000000000000000e+00  3.8158027731455081e-06 -5.0370176974606787e-06 0.0000000000000000e+00  4.1569066716956708e-06 -5.7307148131649879e-06 0.0000000000000000e+00  4.4616641659587383e-06 -6.4692387671762671e-06 0.0000000000000000e+00  4.7573363204676187e-06 -7.2638458526272107e-06 0.0000000000000000e+00  5.0269042998841463e-06 -8.1036367150447937e-06 0.0000000000000000e+00  5.2740344879154411e-06 -8.9928816910855652e-06 0.0000000000000000e+00  5.5201946968648506e-06 -9.9295924711669579e-06 0.0000000000000000e+00  5.7254564441471106e-06 -1.0900545623549574e-05 0.0000000000000000e+00  5.9297349846204237e-06 -1.1928456835254365e-05 0.0000000000000000e+00  6.0964509550045546e-06 -1.2980064572711937e-05 0.0000000000000000e+00  6.2614222188844013e-06 -1.4082448576540167e-05 0.0000000000000000e+00  6.3914594491977588e-06 -1.5208475526792629e-05 0.0000000000000000e+00  6.5136571548594896e-06 -1.6378841045677050e-05 0.0000000000000000e+00  6.6084345595700564e-06 -1.7578641988076673e-05 0.0000000000000000e+00  6.6863828214191622e-06 -1.8809704457050787e-05 0.0000000000000000e+00  6.7530578898804872e-06 -2.0074582114431674e-05 0.0000000000000000e+00  6.7930157453452132e-06 -2.1358626173096834e-05 0.0000000000000000e+00  6.8144527523199594e-06 -2.2686203687054385e-05 0.0000000000000000e+00  6.8155647109306195e-06 -2.4024750974256067e-05 0.0000000000000000e+00  6.8008814153209742e-06 -2.5399265626124380e-05 0.0000000000000000e+00  6.7631130333537996e-06 -2.6788453175851979e-05 0.0000000000000000e+00  6.7108338496259765e-06 -2.8208035164558973e-05 0.0000000000000000e+00  6.6337884301852780e-06 -2.9635995554821554e-05 0.0000000000000000e+00  6.5422880301990824e-06 -3.1094557912992705e-05 0.0000000000000000e+00  6.4264495603720484e-06 -3.2556898869167247e-05 0.0000000000000000e+00  6.2941846887348572e-06 -3.4048512519760461e-05 0.0000000000000000e+00  6.1393606281557803e-06 -3.5542672768213785e-05 0.0000000000000000e+00  5.9712474668452513e-06 -3.7059174199458358e-05 0.0000000000000000e+00  5.7794208309351147e-06 -3.8579440552535775e-05 0.0000000000000000e+00  5.5712774230092075e-06 -4.0121253605162760e-05 0.0000000000000000e+00  5.3405170295830185e-06 -4.1663005593894045e-05 0.0000000000000000e+00  5.0902357095553349e-06 -4.3219926509639748e-05 0.0000000000000000e+00  4.8203453053249953e-06 -4.4780872167731165e-05 0.0000000000000000e+00  4.5325458533995569e-06 -4.6352889911696226e-05 0.0000000000000000e+00  4.2298171735570250e-06 -4.7924735958873702e-05 0.0000000000000000e+00  3.9130737753201887e-06 -4.9497225215835060e-05 0.0000000000000000e+00  3.5854942487530696e-06 -5.1099029140294256e-05 0.0000000000000000e+00  2.0789190319750749e-06 -5.2405396853061708e-05 0.0000000000000000e+00  -7.2522212992097815e-08 -5.1598400063892539e-05 0.0000000000000000e+00  -7.2871300349393483e-07 -4.9673493735935976e-05 0.0000000000000000e+00  -3.9421074665978338e-07 -4.8049380109454668e-05 0.0000000000000000e+00  -5.3028444439517872e-08 -4.6415706269822406e-05 0.0000000000000000e+00  2.6444512547631814e-07 -4.4792796943336905e-05 0.0000000000000000e+00  5.7405773196639156e-07 -4.3181316176968679e-05 0.0000000000000000e+00  8.5877917987206680e-07 -4.1574645275488748e-05 0.0000000000000000e+00  1.1378446900291537e-06 -3.9977138647677181e-05 0.0000000000000000e+00  1.3886032528995158e-06 -3.8386774037112917e-05 0.0000000000000000e+00  1.6342747690854191e-06 -3.6812648944328503e-05 0.0000000000000000e+00  1.8524102123081519e-06 -3.5242000598170357e-05 0.0000000000000000e+00  2.0609899945292187e-06 -3.3691864637065504e-05 0.0000000000000000e+00  2.2471213459462327e-06 -3.2148974628174178e-05 0.0000000000000000e+00  2.4239106173126039e-06 -3.0626272287585763e-05 0.0000000000000000e+00  2.5792290169132735e-06 -2.9111042105356375e-05 0.0000000000000000e+00  2.7231952567704410e-06 -2.7623242865786424e-05 0.0000000000000000e+00  2.8474340751876954e-06 -2.6143726800068300e-05 0.0000000000000000e+00  2.9605610354230026e-06 -2.4693665008024886e-05 0.0000000000000000e+00  3.0522225368027803e-06 -2.3255161435332604e-05 0.0000000000000000e+00  3.1383145269460715e-06 -2.1850161692644048e-05 0.0000000000000000e+00  3.1974513199222105e-06 -2.0459613654361861e-05 0.0000000000000000e+00  3.2550624723950737e-06 -1.9106341002808184e-05 0.0000000000000000e+00  3.2821912823124273e-06 -1.7769809013033640e-05 0.0000000000000000e+00  3.3054961707823178e-06 -1.6469633476601356e-05 0.0000000000000000e+00  3.3051343268243830e-06 -1.5196770881094178e-05 0.0000000000000000e+00  3.2896733038965135e-06 -1.3956583406291115e-05 0.0000000000000000e+00  3.2682547945430047e-06 -1.2751374746705230e-05 0.0000000000000000e+00  3.2286899220957721e-06 -1.1575610157998676e-05 0.0000000000000000e+00  3.1730136052338434e-06 -1.0444705846833792e-05 0.0000000000000000e+00  3.0990292407333239e-06 -9.3414761042465060e-06 0.0000000000000000e+00  3.0136726052750228e-06 -8.2898525213239715e-06 0.0000000000000000e+00  2.9125521864187247e-06 -7.2642371012710858e-06 0.0000000000000000e+00  2.7997218767404531e-06 -6.2975244290425353e-06 0.0000000000000000e+00  2.6692434981509076e-06 -5.3657779521673271e-06 0.0000000000000000e+00  2.5200133816920015e-06 -4.4903931228583727e-06 0.0000000000000000e+00  2.3685135110425726e-06 -3.6535833048543747e-06 0.0000000000000000e+00  2.1980458995735871e-06 -2.8755388548024781e-06 0.0000000000000000e+00  2.0191079288540081e-06 -2.1520421522597400e-06 0.0000000000000000e+00  1.8225494546843160e-06 -1.4811998548420386e-06 0.0000000000000000e+00  1.6188366035327174e-06 -8.8123487147931043e-07 0.0000000000000000e+00  1.3974029580751038e-06 -3.3094807617743518e-07 0.0000000000000000e+00  1.1527624045586585e-06 1.4814445167157931e-07 0.0000000000000000e+00  9.2542156316988669e-07 5.6612948291828269e-07 0.0000000000000000e+00  6.6582837362926496e-07 9.2534415063398470e-07 0.0000000000000000e+00  4.3560886133480668e-07 1.2047546744457593e-06 0.0000000000000000e+00  2.1232216728077576e-07 1.3667546264734896e-06 0.0000000000000000e+00  8.2342195010514633e-08 1.3629494558627366e-06 0.0000000000000000e+00  3.1549504728830355e-08 -8.6857858461881200e-08 0.0000000000000000e+00  1.5589950381333164e-06 -4.9581233113706295e-05 0.0000000000000000e+00  2.2446477891477570e-06 -4.6519663036055672e-05 0.0000000000000000e+00  3.1251043902867397e-06 -4.1554434665629359e-05 0.0000000000000000e+00  8.7409374073911171e-07 -4.4546986781747290e-07 0.0000000000000000e+00  3.5745713913355090e-06 -3.8465501291202225e-05 0.0000000000000000e+00  1.5301377234622955e-06 -1.0569662495415457e-06 0.0000000000000000e+00  3.9877717663284731e-06 -3.5373516784516142e-05 0.0000000000000000e+00  2.4906121034692739e-06 -2.6103753558023029e-06 0.0000000000000000e+00  3.0314502537724551e-06 -3.9059260364604007e-06 0.0000000000000000e+00  4.3297371496444424e-06 -3.2333343826071452e-05 0.0000000000000000e+00  4.1027759975454901e-06 -8.1080302622774295e-06 0.0000000000000000e+00  4.8024432638582399e-06 -2.6442083887701783e-05 0.0000000000000000e+00  3.4824816320531547e-06 -5.3448947526776618e-06 0.0000000000000000e+00  4.4251119735387599e-06 -1.0083484367620053e-05 0.0000000000000000e+00  4.9343192302121259e-06 -2.3613576807318084e-05 0.0000000000000000e+00  4.6013484941604147e-06 -2.9352203091453322e-05 0.0000000000000000e+00  4.6723611781277528e-06 -1.2241214851931787e-05 0.0000000000000000e+00  4.9967119025695290e-06 -2.0882038059915568e-05 0.0000000000000000e+00  4.8264963588447637e-06 -1.4434042984886056e-05 0.0000000000000000e+00  5.0147274843149605e-06 -1.8325289741662268e-05 0.0000000000000000e+00  4.9308628835054955e-06 -1.6270043953191383e-05 0.0000000000000000e+00  3.8101599389789292e-06 -6.6367775012133220e-06 0.0000000000000000e+00  2.6437913726615336e-06 -4.4114914988106886e-05 0.0000000000000000e+00  2.0102869967696674e-06 -1.7553002614013978e-06 0.0000000000000000e+00  1.1638711253519690e-06 -4.7780305986682274e-05 0.0000000000000000e+00  3.9235564380988772e-07 3.5898711278443220e-07 0.0000000000000000e+00  3.1894700320583854e-06 -3.6655006564552898e-05 0.0000000000000000e+00  2.7322543746091763e-06 -3.9782016616824493e-05 0.0000000000000000e+00  1.3751461336569845e-06 -1.2925800907772096e-06 0.0000000000000000e+00  3.0191799103943760e-06 -3.6530946376518780e-06 0.0000000000000000e+00  4.1457249340459507e-06 -2.7592897729360985e-05 0.0000000000000000e+00  3.5768042640103385e-06 -3.3576121540926153e-05 0.0000000000000000e+00  4.6640329302143277e-06 -9.4507115273408130e-06 0.0000000000000000e+00  4.3285244086635205e-06 -2.4710718553926371e-05 0.0000000000000000e+00  3.5736130124707023e-06 -5.0579216383262451e-06 0.0000000000000000e+00  4.9751194479781587e-06 -1.1520012788817993e-05 0.0000000000000000e+00  4.4442402565755191e-06 -2.1918123451704672e-05 0.0000000000000000e+00  3.8955428132786692e-06 -3.0551411036442424e-05 0.0000000000000000e+00  5.3153251620491747e-06 -1.3808632697500806e-05 0.0000000000000000e+00  4.4927844178769308e-06 -1.9227573094444216e-05 0.0000000000000000e+00  -1.4025248347284130e-07 -3.6615458963464193e-07 0.0000000000000000e+00  -1.7117377293395884e-07 3.0158361392471885e-07 0.0000000000000000e+00  1.7612783030736531e-06 -5.1016033595875120e-05 0.0000000000000000e+00  5.8519448027403486e-07 -8.8404144014105799e-07 0.0000000000000000e+00  4.36612