<?xml version="1.0"?>
<VTKFile type="UnstructuredGrid"  version="0.1"  >
<UnstructuredGrid>
<Piece  NumberOfPoints="1419" NumberOfCells="2698">
<Points>
<DataArray  type="Float64"  NumberOfComponents="3"  format="ascii">0 0 0  0 0.41 0  2.5 0 0  2.5 0.41 0  0.6 0.19 0  0.6 0.21 0  0.25 0.2 0  0.15 0.2 0  0.2489897948556636 0.21 0  0.2489897948556636 0.19 0  0.6 0.2 0  0 0.3807142857143437 0  0 0.3514285714286952 0  0 0.3221428571430699 0  0 0.29285714285744 0  0 0.2635714285718054 0  0 0.2342857142861561 0  0 0.2050000000005308 0  0 0.175714285714732 0  0 0.1464285714289574 0  0 0.1171428571431897 0  0 0.08785714285737878 0  0 0.05857142857161107 0  0 0.02928571428580012 0  0.03015443760436003 0 0  0.06140001986583606 0 0  0.09377624077125973 0 0  0.1273239957535082 0 0  0.1620856860351972 0 0  0.1981052433264291 0 0  0.235428184091502 0 0  0.2741016576309132 0 0  0.3141745521465447 0 0  0.3556974926295285 0 0  0.3987229542472677 0 0  0.4433053055141081 0 0  0.4895008759286886 0 0  0.5373680609405097 0 0  0.5869673343216626 0 0  0.6383613676634521 0 0  0.6916151138468254 0 0  0.7467958595648856 0 0  0.8039733463919316 0 0  0.8632198139502143 0 0  0.9246101326867038 0 0  0.9882218810934433 0 0  1.054135445558498 0 0  1.122434100542598 0 0  1.193204177141305 0 0  1.266535089879536 0 0  1.342519516046404 0 0  1.421253448503939 0 0  1.502836389106271 0 0  1.587371439758838 0 0  1.674965418777374 0 0  1.765729001825544 0 0  1.859776908880082 0 0  1.957227977487062 0 0  2.058205329869943 0 0  2.162836591189951 0 0  2.271253957290865 0 0  2.383594446803425 0 0  2.5 0.1024999999997612 0  2.5 0.2049999999994743 0  2.5 0.3074999999997183 0  2.383594446803656 0.41 0  2.271253957291315 0.41 0  2.162836591190598 0.41 0  2.058205329870775 0.41 0  1.957227977488067 0.41 0  1.859776908881246 0.41 0  1.765729001826854 0.41 0  1.674965418778818 0.41 0  1.58737143976041 0.41 0  1.502836389107956 0.41 0  1.421253448505726 0.41 0  1.342519516048286 0.41 0  1.266535089881505 0.41 0  1.193204177143353 0.41 0  1.122434100544716 0.41 0  1.05413544556068 0.41 0  0.9882218810956305 0.41 0  0.9246101326886647 0.41 0  0.8632198139519631 0.41 0  0.8039733463934788 0.41 0  0.7467958595662458 0.41 0  0.6916151138480078 0.41 0  0.6383613676644679 0.41 0  0.5869673343225223 0.41 0  0.5373680609412221 0.41 0  0.4895008759292634 0.41 0  0.4433053055145528 0.41 0  0.3987229542475914 0.41 0  0.3556974926297398 0.41 0  0.3141745521466497 0.41 0  0.2741016576310038 0.41 0  0.2354281840915826 0.41 0  0.1981052433265003 0.41 0  0.1620856860352591 0.41 0  0.1273239957535623 0.41 0  0.09377624077128965 0.41 0  0.06140001986584975 0.41 0  0.03015443760436654 0.41 0  0.2497468076502589 0.2050254481002335 0  0.2497468076502614 0.1949745518997913 0  0.2469965252529372 0.1829317073451959 0  0.2439893735792749 0.1762316384219906 0  0.2400332147834255 0.1700443375285386 0  0.2352133972704371 0.1645032867342007 0  0.2296339016332438 0.1597280261969788 0  0.2234150974217223 0.1558215752574715 0  0.2166911463437691 0.1528682099456123 0  0.2096071079204251 0.1509316448471593 0  0.2023158100364996 0.1500536585536553 0  0.194974551899914 0.1502531923497262 0  0.1877417105387872 0.1515259415822739 0  0.1807733240461124 0.153844448527136 0  0.1742197252835808 0.15715869474974 0  0.1682222986673531 0.1613971801805478 0  0.162910430003803 0.1664684656256651 0  0.1583987151779087 0.1722631454351573 0  0.1547844879126891 0.178656207771761 0  0.1521457199348551 0.1855097315605723 0  0.1505393388476355 0.1926758619366523 0  0.1505393388476328 0.2073241380633295 0  0.1521457199348437 0.2144902684393899 0  0.1547844879126531 0.221343792228163 0  0.1583987151778488 0.2277368545647528 0  0.1629104300036858 0.2335315343742052 0  0.1682222986671726 0.2386028198193036 0  0.1742197252833576 0.2428413052501257 0  0.1807733240458683 0.2461555514727623 0  0.1877417105384929 0.2484740584176516 0  0.1949745518995776 0.2497468076502398 0  0.202315810036185 0.2499463414463592 0  0.2096071079201568 0.2490683551528932 0  0.2166911463435495 0.2471317900544655 0  0.2234150974215506 0.2441784247426195 0  0.2296339016331197 0.2402719738031125 0  0.2352133972703547 0.2354967132658811 0  0.2400332147833751 0.2299556624715287 0  0.2439893735792577 0.2237683615780412 0  0.246996525252926 0.2170682926548348 0  0.25645809709277 0.21 0  0.2639263993298655 0.21 0  0.271394701566961 0.21 0  0.2788630038040554 0.21 0  0.2863313060411479 0.21 0  0.2937996082782405 0.21 0  0.301267910515333 0.21 0  0.3087362127524279 0.21 0  0.3162045149895234 0.21 0  0.3236728172265972 0.21 0  0.3311411194636928 0.21 0  0.3386094217007701 0.21 0  0.3460777239378666 0.21 0  0.3535460261749672 0.21 0  0.3610143284120516 0.21 0  0.3684826306491596 0.21 0  0.3759509328862226 0.21 0  0.383419235123329 0.21 0  0.3908875373604028 0.21 0  0.3983558395975142 0.21 0  0.4058241418345938 0.21 0  0.4132924440716992 0.21 0  0.4207607463087888 0.21 0  0.4282290485459029 0.21 0  0.4356973507830418 0.21 0  0.4431656530201649 0.21 0  0.4506339552573136 0.21 0  0.4581022574944306 0.21 0  0.4655705597315852 0.21 0  0.4730388619686996 0.21 0  0.480507164205851 0.21 0  0.4879754664429498 0.21 0  0.4954437686800938 0.21 0  0.502912070917267 0.21 0  0.5103803731544119 0.21 0  0.5178486753915261 0.21 0  0.5253169776286404 0.21 0  0.5327852798657868 0.21 0  0.5402535821029386 0.21 0  0.54772188434007 0.21 0  0.5551901865771842 0.21 0  0.5626584888143201 0.21 0  0.5701267910514778 0.21 0  0.5775950932886138 0.21 0  0.5850633955257281 0.21 0  0.5925316977628483 0.21 0  0.6 0.2050000000000054 0  0.6 0.1950000000000217 0  0.5925316977628897 0.19 0  0.5850633955257988 0.19 0  0.5775950932887378 0.19 0  0.5701267910515998 0.19 0  0.5626584888145268 0.19 0  0.5551901865773963 0.19 0  0.547721884340339 0.19 0  0.5402535821032429 0.19 0  0.5327852798661811 0.19 0  0.5253169776290537 0.19 0  0.5178486753919799 0.19 0  0.5103803731549078 0.19 0  0.502912070917822 0.19 0  0.4954437686807294 0.19 0  0.4879754664436223 0.19 0  0.4805071642065402 0.19 0  0.4730388619694271 0.19 0  0.4655705597323621 0.19 0  0.4581022574952563 0.19 0  0.4506339552581777 0.19 0  0.4431656530210671 0.19 0  0.4356973507839815 0.19 0  0.4282290485468779 0.19 0  0.4207607463097617 0.19 0  0.4132924440726327 0.19 0  0.4058241418354857 0.19 0  0.3983558395983636 0.19 0  0.3908875373612097 0.19 0  0.3834192351240934 0.19 0  0.3759509328869369 0.19 0  0.3684826306498175 0.19 0  0.361014328412667 0.19 0  0.3535460261755617 0.19 0  0.3460777239384295 0.19 0  0.3386094217012945 0.19 0  0.3311411194641595 0.19 0  0.3236728172270245 0.19 0  0.3162045149898895 0.19 0  0.3087362127527544 0.19 0  0.3012679105156187 0.19 0  0.2937996082784807 0.19 0  0.2863313060413428 0.19 0  0.2788630038042048 0.19 0  0.2713947015670686 0.19 0  0.2639263993299336 0.19 0  0.2564580970927985 0.19 0  0.2607803159922026 0.2000727136295815 0  0.5887803774232762 0.2001272386983733 0  0.5745072403740523 0.2002044435018727 0  0.5511891430099709 0.2001122610077113 0  0.2751288526855082 0.20000000000002 0  0.5365194309847112 0.1999999999999436 0  0.2894621222999649 0.1998691686390484 0  0.5215828265105155 0.1999999999999228 0  0.3127789816668748 0.1998657885438805 0  0.3274069683451451 0.2000000000000796 0  0.5066462220363641 0.199999999999908 0  0.3650630746574081 0.199866017807523 0  0.476773013087985 0.1999999999998713 0  0.3417402379596385 0.1998691686391011 0  0.3796850840047755 0.200000000000134 0  0.4618364086138087 0.1999999999998546 0  0.4917096175621762 0.1999999999998808 0  0.3946216884789568 0.2000000000001512 0  0.446899804139621 0.1999999999998389 0  0.4089549580935208 0.1998691686391595 0  0.4322718174608562 0.200127451265745 0  0.4201487168029707 0.1999966199048527 0  0.3528922713220932 0.2000185703532356 0  0.5633122436674589 0.1999814296467508 0  0.3006558810093873 0.1999966199048318 0  0.5815926498168407 0.1966545283159175 0  0.2677053789419034 0.1964246479135325 0  0.5290511287476175 0.1970915826863981 0  0.5439877332217911 0.197091582686394 0  0.2825131256993216 0.2035478995978015 0  0.3199386661080599 0.202908417313604 0  0.4842413153250809 0.1970915826863873 0  0.5141145242734466 0.1970915826863843 0  0.3722167817676917 0.2029084173136195 0  0.4693047108508938 0.1970915826863783 0  0.3348752705822316 0.202908417313609 0  0.3871533862418661 0.2029084173136212 0  0.4543681063767183 0.1970915826863795 0  0.4991779197992749 0.1970915826863902 0  0.4020059614928624 0.203547899597858 0  0.4394315019025246 0.1970915826863714 0  0.2550657455369551 0.2034088125358657 0  0.2548908499171161 0.1966940311614271 0  0.5946539510196798 0.2024302972968126 0  0.267698176732111 0.2039977513680092 0  0.4261685417851465 0.196409292431739 0  0.3590076176283495 0.196411355804271 0  0.5571672426447437 0.2036011176410121 0  0.3066757059912147 0.1964092924317024 0  0.594380730180568 0.1966558399668133 0  0.4842413153245942 0.2040749161535287 0  0.4693047108503577 0.2040749161535231 0  0.3871533862424271 0.1959250838464788 0  0.372246743208829 0.1959123236376545 0  0.5141145242731028 0.2040749161535395 0  0.4543681063761134 0.2040749161535186 0  0.4019979587101454 0.1959834479682427 0  0.4394608940728603 0.2040870543693135 0  0.5439623148931173 0.2040856076781014 0  0.5290511287473298 0.2040749161535501 0  0.4991779197988497 0.2040749161535382 0  0.3347912413592433 0.1959225448935183 0  0.3199680582793816 0.1959123018030061 0  0.2825051229162361 0.1959834479681729 0  0.3590471196690275 0.2036304442587945 0  0.5571594006495384 0.1963685282145804 0  0.3067669986803285 0.203627750582736 0  0.4262598344738712 0.2036568242185335 0  0.5814408164431408 0.2041285596160068 0  0.5688286748170428 0.1961819304477386 0  0.4145905603063645 0.2038180695522843 0  0.3473758401724931 0.2038180695522752 0  0.2950977245128307 0.2038180695522663 0  0.5688286748170693 0.203818069552238 0  0.2950977245127906 0.1961819304477774 0  0.3473758401723931 0.1961819304478349 0  0.4145905603061963 0.1961819304479011 0  0.2601812407614425 0.2056861609747042
[...]
<PointData  Vectors="f_40-1"> 
<DataArray  type="Float64"  Name="f_40-1"  NumberOfComponents="3" format="ascii">0.0000000000000000e+00 0.0000000000000000e+00 0.0000000000000000e+00  0.0000000000000000e+00 0.0000000000000000e+00 0.0000000000000000e+00  0.0000000000000000e+00 0.0000000000000000e+00 0.0000000000000000e+00  0.0000000000000000e+00 0.0000000000000000e+00 0.0000000000000000e+00  -2.7787577763350749e-06 -2.1352294232590323e-05 0.0000000000000000e+00  -8.3539457384060607e-07 -2.2628973527489405e-05 0.0000000000000000e+00  0.0000000000000000e+00 0.0000000000000000e+00 0.0000000000000000e+00  0.0000000000000000e+00 0.0000000000000000e+00 0.0000000000000000e+00  0.0000000000000000e+00 0.0000000000000000e+00 0.0000000000000000e+00  0.0000000000000000e+00 0.0000000000000000e+00 0.0000000000000000e+00  -1.9357634384021373e-06 -2.1989673487585636e-05 0.0000000000000000e+00  0.0000000000000000e+00 0.0000000000000000e+00 0.0000000000000000e+00  0.0000000000000000e+00 0.0000000000000000e+00 0.0000000000000000e+00  0.0000000000000000e+00 0.0000000000000000e+00 0.0000000000000000e+00  0.0000000000000000e+00 0.0000000000000000e+00 0.0000000000000000e+00  0.0000000000000000e+00 0.0000000000000000e+00 0.0000000000000000e+00  0.0000000000000000e+00 0.0000000000000000e+00 0.0000000000000000e+00  0.0000000000000000e+00 0.0000000000000000e+00 0.0000000000000000e+00  0.0000000000000000e+00 0.0000000000000000e+00 0.0000000000000000e+00  0.0000000000000000e+00 0.0000000000000000e+00 0.0000000000000000e+00  0.0000000000000000e+00 0.0000000000000000e+00 0.0000000000000000e+00  0.0000000000000000e+00 0.0000000000000000e+00 0.0000000000000000e+00  0.0000000000000000e+00 0.0000000000000000e+00 0.0000000000000000e+00  0.0000000000000000e+00 0.0000000000000000e+00 0.0000000000000000e+00  0.0000000000000000e+00 0.0000000000000000e+00 0.0000000000000000e+00  0.0000000000000000e+00 0.0000000000000000e+00 0.0000000000000000e+00  0.0000000000000000e+00 0.0000000000000000e+00 0.0000000000000000e+00  0.0000000000000000e+00 0.0000000000000000e+00 0.0000000000000000e+00  0.0000000000000000e+00 0.0000000000000000e+00 0.0000000000000000e+00  0.0000000000000000e+00 0.0000000000000000e+00 0.0000000000000000e+00  0.0000000000000000e+00 0.0000000000000000e+00 0.0000000000000000e+00  0.0000000000000000e+00 0.0000000000000000e+00 0.0000000000000000e+00  0.0000000000000000e+00 0.0000000000000000e+00 0.0000000000000000e+00  0.0000000000000000e+00 0.0000000000000000e+00 0.0000000000000000e+00  0.0000000000000000e+00 0.0000000000000000e+00 0.0000000000000000e+00  0.0000000000000000e+00 0.0000000000000000e+00 0.0000000000000000e+00  0.0000000000000000e+00 0.0000000000000000e+00 0.0000000000000000e+00  0.0000000000000000e+00 0.0000000000000000e+00 0.0000000000000000e+00  0.0000000000000000e+00 0.0000000000000000e+00 0.0000000000000000e+00  0.0000000000000000e+00 0.0000000000000000e+00 0.0000000000000000e+00  0.0000000000000000e+00 0.0000000000000000e+00 0.0000000000000000e+00  0.0000000000000000e+00 0.0000000000000000e+00 0.0000000000000000e+00  0.0000000000000000e+00 0.0000000000000000e+00 0.0000000000000000e+00  0.0000000000000000e+00 0.0000000000000000e+00 0.0000000000000000e+00  0.0000000000000000e+00 0.0000000000000000e+00 0.0000000000000000e+00  0.0000000000000000e+00 0.0000000000000000e+00 0.0000000000000000e+00  0.0000000000000000e+00 0.0000000000000000e+00 0.0000000000000000e+00  0.0000000000000000e+00 0.0000000000000000e+00 0.0000000000000000e+00  0.0000000000000000e+00 0.0000000000000000e+00 0.0000000000000000e+00  0.0000000000000000e+00 0.0000000000000000e+00 0.0000000000000000e+00  0.0000000000000000e+00 0.0000000000000000e+00 0.0000000000000000e+00  0.0000000000000000e+00 0.0000000000000000e+00 0.0000000000000000e+00  0.0000000000000000e+00 0.0000000000000000e+00 0.0000000000000000e+00  0.0000000000000000e+00 0.0000000000000000e+00 0.0000000000000000e+00  0.0000000000000000e+00 0.0000000000000000e+00 0.0000000000000000e+00  0.0000000000000000e+00 0.0000000000000000e+00 0.0000000000000000e+00  0.0000000000000000e+00 0.0000000000000000e+00 0.0000000000000000e+00  0.0000000000000000e+00 0.0000000000000000e+00 0.0000000000000000e+00  0.0000000000000000e+00 0.0000000000000000e+00 0.0000000000000000e+00  0.0000000000000000e+00 0.0000000000000000e+00 0.0000000000000000e+00  0.0000000000000000e+00 0.0000000000000000e+00 0.0000000000000000e+00  0.0000000000000000e+00 0.0000000000000000e+00 0.0000000000000000e+00  0.0000000000000000e+00 0.0000000000000000e+00 0.0000000000000000e+00  0.0000000000000000e+00 0.0000000000000000e+00 0.0000000000000000e+00  0.0000000000000000e+00 0.0000000000000000e+00 0.0000000000000000e+00  0.0000000000000000e+00 0.0000000000000000e+00 0.0000000000000000e+00  0.0000000000000000e+00 0.0000000000000000e+00 0.0000000000000000e+00  0.0000000000000000e+00 0.0000000000000000e+00 0.0000000000000000e+00  0.0000000000000000e+00 0.0000000000000000e+00 0.0000000000000000e+00  0.0000000000000000e+00 0.0000000000000000e+00 0.0000000000000000e+00  0.0000000000000000e+00 0.0000000000000000e+00 0.0000000000000000e+00  0.0000000000000000e+00 0.0000000000000000e+00 0.0000000000000000e+00  0.0000000000000000e+00 0.0000000000000000e+00 0.0000000000000000e+00  0.0000000000000000e+00 0.0000000000000000e+00 0.0000000000000000e+00  0.0000000000000000e+00 0.0000000000000000e+00 0.0000000000000000e+00  0.0000000000000000e+00 0.0000000000000000e+00 0.0000000000000000e+00  0.0000000000000000e+00 0.0000000000000000e+00 0.0000000000000000e+00  0.0000000000000000e+00 0.0000000000000000e+00 0.0000000000000000e+00  0.0000000000000000e+00 0.0000000000000000e+00 0.0000000000000000e+00  0.0000000000000000e+00 0.0000000000000000e+00 0.0000000000000000e+00  0.0000000000000000e+00 0.0000000000000000e+00 0.0000000000000000e+00  0.0000000000000000e+00 0.0000000000000000e+00 0.0000000000000000e+00  0.0000000000000000e+00 0.0000000000000000e+00 0.0000000000000000e+00  0.0000000000000000e+00 0.0000000000000000e+00 0.0000000000000000e+00  0.0000000000000000e+00 0.0000000000000000e+00 0.0000000000000000e+00  0.0000000000000000e+00 0.0000000000000000e+00 0.0000000000000000e+00  0.0000000000000000e+00 0.0000000000000000e+00 0.0000000000000000e+00  0.0000000000000000e+00 0.0000000000000000e+00 0.0000000000000000e+00  0.0000000000000000e+00 0.0000000000000000e+00 0.0000000000000000e+00  0.0000000000000000e+00 0.0000000000000000e+00 0.0000000000000000e+00  0.0000000000000000e+00 0.0000000000000000e+00 0.0000000000000000e+00  0.0000000000000000e+00 0.0000000000000000e+00 0.0000000000000000e+00  0.0000000000000000e+00 0.0000000000000000e+00 0.0000000000000000e+00  0.0000000000000000e+00 0.0000000000000000e+00 0.0000000000000000e+00  0.0000000000000000e+00 0.0000000000000000e+00 0.0000000000000000e+00  0.0000000000000000e+00 0.0000000000000000e+00 0.0000000000000000e+00  0.0000000000000000e+00 0.0000000000000000e+00 0.0000000000000000e+00  0.0000000000000000e+00 0.0000000000000000e+00 0.0000000000000000e+00  0.0000000000000000e+00 0.0000000000000000e+00 0.0000000000000000e+00  0.0000000000000000e+00 0.0000000000000000e+00 0.0000000000000000e+00  0.0000000000000000e+00 0.0000000000000000e+00 0.0000000000000000e+00  0.0000000000000000e+00 0.0000000000000000e+00 0.0000000000000000e+00  0.0000000000000000e+00 0.0000000000000000e+00 0.0000000000000000e+00  0.0000000000000000e+00 0.0000000000000000e+00 0.0000000000000000e+00  0.0000000000000000e+00 0.0000000000000000e+00 0.0000000000000000e+00  0.0000000000000000e+00 0.0000000000000000e+00 0.0000000000000000e+00  0.0000000000000000e+00 0.0000000000000000e+00 0.0000000000000000e+00  0.0000000000000000e+00 0.0000000000000000e+00 0.0000000000000000e+00  0.0000000000000000e+00 0.0000000000000000e+00 0.0000000000000000e+00  0.0000000000000000e+00 0.0000000000000000e+00 0.0000000000000000e+00  0.0000000000000000e+00 0.0000000000000000e+00 0.0000000000000000e+00  0.0000000000000000e+00 0.0000000000000000e+00 0.0000000000000000e+00  0.0000000000000000e+00 0.0000000000000000e+00 0.0000000000000000e+00  0.0000000000000000e+00 0.0000000000000000e+00 0.0000000000000000e+00  0.0000000000000000e+00 0.0000000000000000e+00 0.0000000000000000e+00  0.0000000000000000e+00 0.0000000000000000e+00 0.0000000000000000e+00  0.0000000000000000e+00 0.0000000000000000e+00 0.0000000000000000e+00  0.0000000000000000e+00 0.0000000000000000e+00 0.0000000000000000e+00  0.0000000000000000e+00 0.0000000000000000e+00 0.0000000000000000e+00  0.0000000000000000e+00 0.0000000000000000e+00 0.0000000000000000e+00  0.0000000000000000e+00 0.0000000000000000e+00 0.0000000000000000e+00  0.0000000000000000e+00 0.0000000000000000e+00 0.0000000000000000e+00  0.0000000000000000e+00 0.0000000000000000e+00 0.0000000000000000e+00  0.0000000000000000e+00 0.0000000000000000e+00 0.0000000000000000e+00  0.0000000000000000e+00 0.0000000000000000e+00 0.0000000000000000e+00  0.0000000000000000e+00 0.0000000000000000e+00 0.0000000000000000e+00  0.0000000000000000e+00 0.0000000000000000e+00 0.0000000000000000e+00  0.0000000000000000e+00 0.0000000000000000e+00 0.0000000000000000e+00  0.0000000000000000e+00 0.0000000000000000e+00 0.0000000000000000e+00  0.0000000000000000e+00 0.0000000000000000e+00 0.0000000000000000e+00  0.0000000000000000e+00 0.0000000000000000e+00 0.0000000000000000e+00  0.0000000000000000e+00 0.0000000000000000e+00 0.0000000000000000e+00  0.0000000000000000e+00 0.0000000000000000e+00 0.0000000000000000e+00  0.0000000000000000e+00 0.0000000000000000e+00 0.0000000000000000e+00  0.0000000000000000e+00 0.0000000000000000e+00 0.0000000000000000e+00  0.0000000000000000e+00 0.0000000000000000e+00 0.0000000000000000e+00  0.0000000000000000e+00 0.0000000000000000e+00 0.0000000000000000e+00  0.0000000000000000e+00 0.0000000000000000e+00 0.0000000000000000e+00  0.0000000000000000e+00 0.0000000000000000e+00 0.0000000000000000e+00  0.0000000000000000e+00 0.0000000000000000e+00 0.0000000000000000e+00  0.0000000000000000e+00 0.0000000000000000e+00 0.0000000000000000e+00  0.0000000000000000e+00 0.0000000000000000e+00 0.0000000000000000e+00  0.0000000000000000e+00 0.0000000000000000e+00 0.0000000000000000e+00  1.0042449891433298e-07 -1.1085903003607183e-06 0.0000000000000000e+00  2.4050593178609008e-07 -1.2333066001052967e-06 0.0000000000000000e+00  4.3635411748333915e-07 -1.3203665771110294e-06 0.0000000000000000e+00  6.5227410142329673e-07 -1.4065223664836840e-06 0.0000000000000000e+00  8.7168113780207109e-07 -1.5133782088674442e-06 0.0000000000000000e+00  1.0821040048672581e-06 -1.6641284156946716e-06 0.0000000000000000e+00  1.2806354308121621e-06 -1.8297053823456196e-06 0.0000000000000000e+00  1.4635264698183897e-06 -2.0283734631087204e-06 0.0000000000000000e+00  1.6449137672678202e-06 -2.2484583682206583e-06 0.0000000000000000e+00  1.8055320004696884e-06 -2.4899749474191091e-06 0.0000000000000000e+00  1.9614920720302054e-06 -2.7615801303463552e-06 0.0000000000000000e+00  2.0989563517012635e-06 -3.0495088488043993e-06 0.0000000000000000e+00  2.2268300196144878e-06 -3.3612497194821999e-06 0.0000000000000000e+00  2.3414293473158425e-06 -3.6928001410587714e-06 0.0000000000000000e+00  2.4409124777792733e-06 -4.0438121295968800e-06 0.0000000000000000e+00  2.5378230123645568e-06 -4.4168727852572963e-06 0.0000000000000000e+00  2.6110202665422236e-06 -4.8021434003649086e-06 0.0000000000000000e+00  2.6810861157259921e-06 -5.2157981373135898e-06 0.0000000000000000e+00  2.7293228166913958e-06 -5.6363035219093383e-06 0.0000000000000000e+00  2.7746420455739296e-06 -6.0826543288603692e-06 0.0000000000000000e+00  2.7985623445773016e-06 -6.5364772081826901e-06 0.0000000000000000e+00  2.8163532939286023e-06 -7.0122379302902965e-06 0.0000000000000000e+00  2.8176194882013811e-06 -7.5024454219576689e-06 0.0000000000000000e+00  2.8079969154529119e-06 -8.0056992661640177e-06 0.0000000000000000e+00  2.7894845396636622e-06 -8.5273403061843736e-06 0.0000000000000000e+00  2.7546828785291805e-06 -9.0555447609854133e-06 0.0000000000000000e+00  2.7070064555855093e-06 -9.6085369954989389e-06 0.0000000000000000e+00  2.6465190320739472e-06 -1.0164426379004071e-05 0.0000000000000000e+00  2.5753581646557282e-06 -1.0740305091827584e-05 0.0000000000000000e+00  2.4892065834055027e-06 -1.1323030865578851e-05 0.0000000000000000e+00  2.3935110476258019e-06 -1.1922680720073514e-05 0.0000000000000000e+00  2.2812923705163917e-06 -1.2525597483725355e-05 0.0000000000000000e+00  2.1596135397334375e-06 -1.3146735962436395e-05 0.0000000000000000e+00  2.0218560068146445e-06 -1.3768316971880959e-05 0.0000000000000000e+00  1.8729304075158413e-06 -1.4408043036856508e-05 0.0000000000000000e+00  1.7089964655443572e-06 -1.5048229226981088e-05 0.0000000000000000e+00  1.5361897946381125e-06 -1.5702302414786589e-05 0.0000000000000000e+00  1.3475058974922321e-06 -1.6358260001884861e-05 0.0000000000000000e+00  1.1477590759532800e-06 -1.7027962349764274e-05 0.0000000000000000e+00  9.3277306717593141e-07 -1.7697086668641986e-05 0.0000000000000000e+00  7.0425336752593716e-07 -1.8375990455828149e-05 0.0000000000000000e+00  4.6285979708694646e-07 -1.9057560859248449e-05 0.0000000000000000e+00  2.0899267767956245e-07 -1.9746425749353134e-05 0.0000000000000000e+00  -5.4837690825679199e-08 -2.0434920647264829e-05 0.0000000000000000e+00  -3.2831335049644260e-07 -2.1124101259917067e-05 0.0000000000000000e+00  -6.0977577929270090e-07 -2.1832706862556064e-05 0.0000000000000000e+00  -1.4353113639220183e-06 -2.2300977166310470e-05 0.0000000000000000e+00  -2.3893507602627374e-06 -2.1675359062409008e-05 0.0000000000000000e+00  -2.5255162844476438e-06 -2.0706760705693086e-05 0.0000000000000000e+00  -2.2398141803678972e-06 -1.9981668241276750e-05 0.0000000000000000e+00  -1.9501805370171562e-06 -1.9250507743844460e-05 0.0000000000000000e+00  -1.6766844993738655e-06 -1.8526149430807204e-05 0.0000000000000000e+00  -1.4086597873854359e-06 -1.7809456343342216e-05 0.0000000000000000e+00  -1.1578591257030503e-06 -1.7095949624046937e-05 0.0000000000000000e+00  -9.1118045135305210e-07 -1.6387957810481319e-05 0.0000000000000000e+00  -6.8391397559306463e-07 -1.5684818045075318e-05 0.0000000000000000e+00  -4.6067486018403788e-07 -1.4991771802087307e-05 0.0000000000000000e+00  -2.5612309214629226e-07 -1.4300529390556733e-05 0.0000000000000000e+00  -5.9084783877539940e-08 -1.3622137777892030e-05 0.0000000000000000e+00  1.2277970331137532e-07 -1.2947754064846414e-05 0.0000000000000000e+00  2.9718723061039046e-07 -1.2285587336542650e-05 0.0000000000000000e+00  4.5708192046609284e-07 -1.1626777087682117e-05 0.0000000000000000e+00  6.0777729521451325e-07 -1.0984477088847451e-05 0.0000000000000000e+00  7.4539924653733823e-07 -1.0345512115083277e-05 0.0000000000000000e+00  8.7373239564202300e-07 -9.7234716281148392e-06 0.0000000000000000e+00  9.8787303468597356e-07 -9.1063855008986800e-06 0.0000000000000000e+00  1.0961729109401453e-06 -8.5083034457869970e-06 0.0000000000000000e+00  1.1868825453495509e-06 -7.9159268617857855e-06 0.0000000000000000e+00  1.2738994052166423e-06 -7.3441420864970458e-06 0.0000000000000000e+00  1.3414843113301264e-06 -6.7787743425085633e-06 0.0000000000000000e+00  1.4034256353360323e-06 -6.2321715506005901e-06 0.0000000000000000e+00  1.4504125077964336e-06 -5.6990963845657068e-06 0.0000000000000000e+00  1.4860002021527255e-06 -5.1803124198547007e-06 0.0000000000000000e+00  1.5154129172163272e-06 -4.6796985321395034e-06 0.0000000000000000e+00  1.5323645973010681e-06 -4.1904569088198524e-06 0.0000000000000000e+00  1.5370133233583062e-06 -3.7241364895633914e-06 0.0000000000000000e+00  1.5287962850634771e-06 -3.2670864494020212e-06 0.0000000000000000e+00  1.5113669018098435e-06 -2.8362784803583112e-06 0.0000000000000000e+00  1.4827896983451612e-06 -2.4129135182629960e-06 0.0000000000000000e+00  1.4434975137521706e-06 -2.0178849406446558e-06 0.0000000000000000e+00  1.3937225567000441e-06 -1.6367069341266012e-06 0.0000000000000000e+00  1.3305144916676430e-06 -1.2798906024328192e-06 0.0000000000000000e+00  1.2614597366209492e-06 -9.3886056427670365e-07 0.0000000000000000e+00  1.1807974613349486e-06 -6.2271941737065072e-07 0.0000000000000000e+00  1.0915098831754205e-06 -3.2978986758209892e-07 0.0000000000000000e+00  9.9094828238056103e-07 -5.7402367363626117e-08 0.0000000000000000e+00  8.8069949077266869e-07 1.8445047862276578e-07 0.0000000000000000e+00  7.6181726664923171e-07 4.0647184962396253e-07 0.0000000000000000e+00  6.2537830967245264e-07 6.0107244808072124e-07 0.0000000000000000e+00  4.9586734246425452e-07 7.6869391355414292e-07 0.0000000000000000e+00  3.4543712882536289e-07 9.1858003154289694e-07 0.0000000000000000e+00  2.1194021073736754e-07 1.0344333869207782e-06 0.0000000000000000e+00  8.7395351678157168e-08 1.0884471096770963e-06 0.0000000000000000e+00  2.5152715832364804e-08 1.0452418503636596e-06 0.0000000000000000e+00  -8.7802018462392540e-08 -3.7181137030983454e-08 0.0000000000000000e+00  -1.4537148675507522e-06 -2.0914302744771658e-05 0.0000000000000000e+00  -8.8144488508680936e-07 -1.9559122402987096e-05 0.0000000000000000e+00  -9.7976897518419251e-08 -1.7367191730470023e-05 0.0000000000000000e+00  3.9878817577247667e-07 -1.7180110887063124e-07 0.0000000000000000e+00  3.2615463338537963e-07 -1.6009760836442068e-05 0.0000000000000000e+00  7.4828277439638302e-07 -4.0213223544784413e-07 0.0000000000000000e+00  7.2139516318040332e-07 -1.4662107209657658e-05 0.0000000000000000e+00  1.2389281115081557e-06 -1.0130413971654944e-06 0.0000000000000000e+00  1.4999642165607610e-06 -1.5333098042175352e-06 0.0000000000000000e+00  1.0675815660269714e-06 -1.3345680258526184e-05 0.0000000000000000e+00  1.9637717074757095e-06 -3.2104043489035249e-06 0.0000000000000000e+00  1.6144428001493006e-06 -1.0819903434624019e-05 0.0000000000000000e+00  1.7083797275663581e-06 -2.1007204007201723e-06 0.0000000000000000e+00  2.0727386952691819e-06 -4.0164075728161393e-06 0.0000000000000000e+00  1.8158790901669424e-06 -9.6201721586673686e-06 0.0000000000000000e+00  1.3653107207556593e-06 -1.2063162244153536e-05 0.0000000000000000e+00  2.1325360863695526e-06 -4.8949902393615361e-06 0.0000000000000000e+00  1.9694629159827524e-06 -8.4707953356475490e-06 0.0000000000000000e+00  2.1384351412713157e-06 -5.7877479479561825e-06 0.0000000000000000e+00  2.0840571971698442e-06 -7.4079807742425733e-06 0.0000000000000000e+00  2.1221619814130415e-06 -6.5508179447323353e-06 0.0000000000000000e+00  1.8470033533417435e-06 -2.6256972292110973e-06 0.0000000000000000e+00  -5.1199609847877453e-07 -1.8491290768871626e-05 0.0000000000000000e+00  9.9482621276478646e-07 -6.8312108895151840e-07 0.0000000000000000e+00  -1.4905800532925187e-06 -2.0027826653119268e-05 0.0000000000000000e+00  1.4473063121238902e-07 3.5144961046841092e-07 0.0000000000000000e+00  2.6818285917744991e-07 -1.5132268170895004e-05 0.0000000000000000e+00  -1.5674910679034311e-07 -1.6502694690658804e-05 0.0000000000000000e+00  6.4444254166381906e-07 -6.9630160584785934e-07 0.0000000000000000e+00  1.4733501809229083e-06 -1.5812527565324184e-06 0.0000000000000000e+00  1.2544765263057143e-06 -1.1210561089008178e-05 0.0000000000000000e+00  6.4464739665487042e-07 -1.3791359330094561e-05 0.0000000000000000e+00  2.1826695025322293e-06 -3.8932050565219578e-06 0.0000000000000000e+00  1.4884482655839617e-06 -9.9802662566665518e-06 0.0000000000000000e+00  1.7330860034148273e-06 -2.1368508036422184e-06 0.0000000000000000e+00  2.2786577440733017e-06 -4.7301912328171484e-06 0.0000000000000000e+00  1.6755163199580450e-06 -8.7972257658114182e-06 0.0000000000000000e+00  9.7344420611894600e-07 -1.2482253457814478e-05 0.0000000000000000e+00  2.3688984287191607e-06 -5.6892359626756150e-06 0.0000000000000000e+00  1.8156074710733850e-06 -7.6659236342677477e-06 0.0000000000000000e+00  -1.6393758127852093e-07 -2.6720332656242316e-07 0.0000000000000000e+00  -1.7406049142871217e-07 2.2968785778402621e-07 0.0000000000000000e+00  -1.4785702498554195e-06 -2.1609213219379584e-05 0.0000000000000000e+00  2.2157221084714980e-07 -5.7745770954498712e-07 0.000000000