<?xml version="1.0"?>
<VTKFile type="UnstructuredGrid"  version="0.1"  >
<UnstructuredGrid>
<Piece  NumberOfPoints="1419" NumberOfCells="2698">
<Points>
<DataArray  type="Float64"  NumberOfComponents="3"  format="ascii">0 0 0  0 0.41 0  2.5 0 0  2.5 0.41 0  0.6 0.19 0  0.6 0.21 0  0.25 0.2 0  0.15 0.2 0  0.2489897948556636 0.21 0  0.2489897948556636 0.19 0  0.6 0.2 0  0 0.3807142857143437 0  0 0.3514285714286952 0  0 0.3221428571430699 0  0 0.29285714285744 0  0 0.2635714285718054 0  0 0.2342857142861561 0  0 0.2050000000005308 0  0 0.175714285714732 0  0 0.1464285714289574 0  0 0.1171428571431897 0  0 0.08785714285737878 0  0 0.05857142857161107 0  0 0.02928571428580012 0  0.03015443760436003 0 0  0.06140001986583606 0 0  0.09377624077125973 0 0  0.1273239957535082 0 0  0.1620856860351972 0 0  0.1981052433264291 0 0  0.235428184091502 0 0  0.2741016576309132 0 0  0.3141745521465447 0 0  0.3556974926295285 0 0  0.3987229542472677 0 0  0.4433053055141081 0 0  0.4895008759286886 0 0  0.5373680609405097 0 0  0.5869673343216626 0 0  0.6383613676634521 0 0  0.6916151138468254 0 0  0.7467958595648856 0 0  0.8039733463919316 0 0  0.8632198139502143 0 0  0.9246101326867038 0 0  0.9882218810934433 0 0  1.054135445558498 0 0  1.122434100542598 0 0  1.193204177141305 0 0  1.266535089879536 0 0  1.342519516046404 0 0  1.421253448503939 0 0  1.502836389106271 0 0  1.587371439758838 0 0  1.674965418777374 0 0  1.765729001825544 0 0  1.859776908880082 0 0  1.957227977487062 0 0  2.058205329869943 0 0  2.162836591189951 0 0  2.271253957290865 0 0  2.383594446803425 0 0  2.5 0.1024999999997612 0  2.5 0.2049999999994743 0  2.5 0.3074999999997183 0  2.383594446803656 0.41 0  2.271253957291315 0.41 0  2.162836591190598 0.41 0  2.058205329870775 0.41 0  1.957227977488067 0.41 0  1.859776908881246 0.41 0  1.765729001826854 0.41 0  1.674965418778818 0.41 0  1.58737143976041 0.41 0  1.502836389107956 0.41 0  1.421253448505726 0.41 0  1.342519516048286 0.41 0  1.266535089881505 0.41 0  1.193204177143353 0.41 0  1.122434100544716 0.41 0  1.05413544556068 0.41 0  0.9882218810956305 0.41 0  0.9246101326886647 0.41 0  0.8632198139519631 0.41 0  0.8039733463934788 0.41 0  0.7467958595662458 0.41 0  0.6916151138480078 0.41 0  0.6383613676644679 0.41 0  0.5869673343225223 0.41 0  0.5373680609412221 0.41 0  0.4895008759292634 0.41 0  0.4433053055145528 0.41 0  0.3987229542475914 0.41 0  0.3556974926297398 0.41 0  0.3141745521466497 0.41 0  0.2741016576310038 0.41 0  0.2354281840915826 0.41 0  0.1981052433265003 0.41 0  0.1620856860352591 0.41 0  0.1273239957535623 0.41 0  0.09377624077128965 0.41 0  0.06140001986584975 0.41 0  0.03015443760436654 0.41 0  0.2497468076502589 0.2050254481002335 0  0.2497468076502614 0.1949745518997913 0  0.2469965252529372 0.1829317073451959 0  0.2439893735792749 0.1762316384219906 0  0.2400332147834255 0.1700443375285386 0  0.2352133972704371 0.1645032867342007 0  0.2296339016332438 0.1597280261969788 0  0.2234150974217223 0.1558215752574715 0  0.2166911463437691 0.1528682099456123 0  0.2096071079204251 0.1509316448471593 0  0.2023158100364996 0.1500536585536553 0  0.194974551899914 0.1502531923497262 0  0.1877417105387872 0.1515259415822739 0  0.1807733240461124 0.153844448527136 0  0.1742197252835808 0.15715869474974 0  0.1682222986673531 0.1613971801805478 0  0.162910430003803 0.1664684656256651 0  0.1583987151779087 0.1722631454351573 0  0.1547844879126891 0.178656207771761 0  0.1521457199348551 0.1855097315605723 0  0.1505393388476355 0.1926758619366523 0  0.1505393388476328 0.2073241380633295 0  0.1521457199348437 0.2144902684393899 0  0.1547844879126531 0.221343792228163 0  0.1583987151778488 0.2277368545647528 0  0.1629104300036858 0.2335315343742052 0  0.1682222986671726 0.2386028198193036 0  0.1742197252833576 0.2428413052501257 0  0.1807733240458683 0.2461555514727623 0  0.1877417105384929 0.2484740584176516 0  0.1949745518995776 0.2497468076502398 0  0.202315810036185 0.2499463414463592 0  0.2096071079201568 0.2490683551528932 0  0.2166911463435495 0.2471317900544655 0  0.2234150974215506 0.2441784247426195 0  0.2296339016331197 0.2402719738031125 0  0.2352133972703547 0.2354967132658811 0  0.2400332147833751 0.2299556624715287 0  0.2439893735792577 0.2237683615780412 0  0.246996525252926 0.2170682926548348 0  0.25645809709277 0.21 0  0.2639263993298655 0.21 0  0.271394701566961 0.21 0  0.2788630038040554 0.21 0  0.2863313060411479 0.21 0  0.2937996082782405 0.21 0  0.301267910515333 0.21 0  0.3087362127524279 0.21 0  0.3162045149895234 0.21 0  0.3236728172265972 0.21 0  0.3311411194636928 0.21 0  0.3386094217007701 0.21 0  0.3460777239378666 0.21 0  0.3535460261749672 0.21 0  0.3610143284120516 0.21 0  0.3684826306491596 0.21 0  0.3759509328862226 0.21 0  0.383419235123329 0.21 0  0.3908875373604028 0.21 0  0.3983558395975142 0.21 0  0.4058241418345938 0.21 0  0.4132924440716992 0.21 0  0.4207607463087888 0.21 0  0.4282290485459029 0.21 0  0.4356973507830418 0.21 0  0.4431656530201649 0.21 0  0.4506339552573136 0.21 0  0.4581022574944306 0.21 0  0.4655705597315852 0.21 0  0.4730388619686996 0.21 0  0.480507164205851 0.21 0  0.4879754664429498 0.21 0  0.4954437686800938 0.21 0  0.502912070917267 0.21 0  0.5103803731544119 0.21 0  0.5178486753915261 0.21 0  0.5253169776286404 0.21 0  0.5327852798657868 0.21 0  0.5402535821029386 0.21 0  0.54772188434007 0.21 0  0.5551901865771842 0.21 0  0.5626584888143201 0.21 0  0.5701267910514778 0.21 0  0.5775950932886138 0.21 0  0.5850633955257281 0.21 0  0.5925316977628483 0.21 0  0.6 0.2050000000000054 0  0.6 0.1950000000000217 0  0.5925316977628897 0.19 0  0.5850633955257988 0.19 0  0.5775950932887378 0.19 0  0.5701267910515998 0.19 0  0.5626584888145268 0.19 0  0.5551901865773963 0.19 0  0.547721884340339 0.19 0  0.5402535821032429 0.19 0  0.5327852798661811 0.19 0  0.5253169776290537 0.19 0  0.5178486753919799 0.19 0  0.5103803731549078 0.19 0  0.502912070917822 0.19 0  0.4954437686807294 0.19 0  0.4879754664436223 0.19 0  0.4805071642065402 0.19 0  0.4730388619694271 0.19 0  0.4655705597323621 0.19 0  0.4581022574952563 0.19 0  0.4506339552581777 0.19 0  0.4431656530210671 0.19 0  0.4356973507839815 0.19 0  0.4282290485468779 0.19 0  0.4207607463097617 0.19 0  0.4132924440726327 0.19 0  0.4058241418354857 0.19 0  0.3983558395983636 0.19 0  0.3908875373612097 0.19 0  0.3834192351240934 0.19 0  0.3759509328869369 0.19 0  0.3684826306498175 0.19 0  0.361014328412667 0.19 0  0.3535460261755617 0.19 0  0.3460777239384295 0.19 0  0.3386094217012945 0.19 0  0.3311411194641595 0.19 0  0.3236728172270245 0.19 0  0.3162045149898895 0.19 0  0.3087362127527544 0.19 0  0.3012679105156187 0.19 0  0.2937996082784807 0.19 0  0.2863313060413428 0.19 0  0.2788630038042048 0.19 0  0.2713947015670686 0.19 0  0.2639263993299336 0.19 0  0.2564580970927985 0.19 0  0.2607803159922026 0.2000727136295815 0  0.5887803774232762 0.2001272386983733 0  0.5745072403740523 0.2002044435018727 0  0.5511891430099709 0.2001122610077113 0  0.2751288526855082 0.20000000000002 0  0.5365194309847112 0.1999999999999436 0  0.2894621222999649 0.1998691686390484 0  0.5215828265105155 0.1999999999999228 0  0.3127789816668748 0.1998657885438805 0  0.3274069683451451 0.2000000000000796 0  0.5066462220363641 0.199999999999908 0  0.3650630746574081 0.199866017807523 0  0.476773013087985 0.1999999999998713 0  0.3417402379596385 0.1998691686391011 0  0.3796850840047755 0.200000000000134 0  0.4618364086138087 0.1999999999998546 0  0.4917096175621762 0.1999999999998808 0  0.3946216884789568 0.2000000000001512 0  0.446899804139621 0.1999999999998389 0  0.4089549580935208 0.1998691686391595 0  0.4322718174608562 0.200127451265745 0  0.4201487168029707 0.1999966199048527 0  0.3528922713220932 0.2000185703532356 0  0.5633122436674589 0.1999814296467508 0  0.3006558810093873 0.1999966199048318 0  0.5815926498168407 0.1966545283159175 0  0.2677053789419034 0.1964246479135325 0  0.5290511287476175 0.1970915826863981 0  0.5439877332217911 0.197091582686394 0  0.2825131256993216 0.2035478995978015 0  0.3199386661080599 0.202908417313604 0  0.4842413153250809 0.1970915826863873 0  0.5141145242734466 0.1970915826863843 0  0.3722167817676917 0.2029084173136195 0  0.4693047108508938 0.1970915826863783 0  0.3348752705822316 0.202908417313609 0  0.3871533862418661 0.2029084173136212 0  0.4543681063767183 0.1970915826863795 0  0.4991779197992749 0.1970915826863902 0  0.4020059614928624 0.203547899597858 0  0.4394315019025246 0.1970915826863714 0  0.2550657455369551 0.2034088125358657 0  0.2548908499171161 0.1966940311614271 0  0.5946539510196798 0.2024302972968126 0  0.267698176732111 0.2039977513680092 0  0.4261685417851465 0.196409292431739 0  0.3590076176283495 0.196411355804271 0  0.5571672426447437 0.2036011176410121 0  0.3066757059912147 0.1964092924317024 0  0.594380730180568 0.1966558399668133 0  0.4842413153245942 0.2040749161535287 0  0.4693047108503577 0.2040749161535231 0  0.3871533862424271 0.1959250838464788 0  0.372246743208829 0.1959123236376545 0  0.5141145242731028 0.2040749161535395 0  0.4543681063761134 0.2040749161535186 0  0.4019979587101454 0.1959834479682427 0  0.4394608940728603 0.2040870543693135 0  0.5439623148931173 0.2040856076781014 0  0.5290511287473298 0.2040749161535501 0  0.4991779197988497 0.2040749161535382 0  0.3347912413592433 0.1959225448935183 0  0.3199680582793816 0.1959123018030061 0  0.2825051229162361 0.1959834479681729 0  0.3590471196690275 0.2036304442587945 0  0.5571594006495384 0.1963685282145804 0  0.3067669986803285 0.203627750582736 0  0.4262598344738712 0.2036568242185335 0  0.5814408164431408 0.2041285596160068 0  0.5688286748170428 0.1961819304477386 0  0.4145905603063645 0.2038180695522843 0  0.3473758401724931 0.2038180695522752 0  0.2950977245128307 0.2038180695522663 0  0.5688286748170693 0.203818069552238 0  0.2950977245127906 0.1961819304477774 0  0.3473758401723931 0.1961819304478349 0  0.4145905603061963 0.1961819304479011 0  0.2601812407614425 0.2056861609747042
[...]
<PointData  Vectors="f_40-0"> 
<DataArray  type="Float64"  Name="f_40-0"  NumberOfComponents="3" format="ascii">0.0000000000000000e+00 0.0000000000000000e+00 0.0000000000000000e+00  0.0000000000000000e+00 0.0000000000000000e+00 0.0000000000000000e+00  0.0000000000000000e+00 0.0000000000000000e+00 0.0000000000000000e+00  0.0000000000000000e+00 0.0000000000000000e+00 0.0000000000000000e+00  -1.2242605596453917e-05 -1.0112935797126720e-05 0.0000000000000000e+00  -1.0774689667924192e-05 -1.2602612528573036e-05 0.0000000000000000e+00  0.0000000000000000e+00 0.0000000000000000e+00 0.0000000000000000e+00  0.0000000000000000e+00 0.0000000000000000e+00 0.0000000000000000e+00  0.0000000000000000e+00 0.0000000000000000e+00 0.0000000000000000e+00  0.0000000000000000e+00 0.0000000000000000e+00 0.0000000000000000e+00  -1.1684575355065832e-05 -1.1355338173309230e-05 0.0000000000000000e+00  9.5841457590523820e-04 0.0000000000000000e+00 0.0000000000000000e+00  1.7693807555174805e-03 0.0000000000000000e+00 0.0000000000000000e+00  2.4328985388365359e-03 0.0000000000000000e+00 0.0000000000000000e+00  2.9489679258631724e-03 0.0000000000000000e+00 0.0000000000000000e+00  3.3175889165973243e-03 0.0000000000000000e+00 0.0000000000000000e+00  3.5387615110389695e-03 0.0000000000000000e+00 0.0000000000000000e+00  3.6124857091878854e-03 0.0000000000000000e+00 0.0000000000000000e+00  3.5387615110434407e-03 0.0000000000000000e+00 0.0000000000000000e+00  3.3175889166050061e-03 0.0000000000000000e+00 0.0000000000000000e+00  2.9489679258726852e-03 0.0000000000000000e+00 0.0000000000000000e+00  2.4328985388455721e-03 0.0000000000000000e+00 0.0000000000000000e+00  1.7693807555251911e-03 0.0000000000000000e+00 0.0000000000000000e+00  9.5841457590958292e-04 0.0000000000000000e+00 0.0000000000000000e+00  0.0000000000000000e+00 0.0000000000000000e+00 0.0000000000000000e+00  0.0000000000000000e+00 0.0000000000000000e+00 0.0000000000000000e+00  0.0000000000000000e+00 0.0000000000000000e+00 0.0000000000000000e+00  0.0000000000000000e+00 0.0000000000000000e+00 0.0000000000000000e+00  0.0000000000000000e+00 0.0000000000000000e+00 0.0000000000000000e+00  0.0000000000000000e+00 0.0000000000000000e+00 0.0000000000000000e+00  0.0000000000000000e+00 0.0000000000000000e+00 0.0000000000000000e+00  0.0000000000000000e+00 0.0000000000000000e+00 0.0000000000000000e+00  0.0000000000000000e+00 0.0000000000000000e+00 0.0000000000000000e+00  0.0000000000000000e+00 0.0000000000000000e+00 0.0000000000000000e+00  0.0000000000000000e+00 0.0000000000000000e+00 0.0000000000000000e+00  0.0000000000000000e+00 0.0000000000000000e+00 0.0000000000000000e+00  0.0000000000000000e+00 0.0000000000000000e+00 0.0000000000000000e+00  0.0000000000000000e+00 0.0000000000000000e+00 0.0000000000000000e+00  0.0000000000000000e+00 0.0000000000000000e+00 0.0000000000000000e+00  0.0000000000000000e+00 0.0000000000000000e+00 0.0000000000000000e+00  0.0000000000000000e+00 0.0000000000000000e+00 0.0000000000000000e+00  0.0000000000000000e+00 0.0000000000000000e+00 0.0000000000000000e+00  0.0000000000000000e+00 0.0000000000000000e+00 0.0000000000000000e+00  0.0000000000000000e+00 0.0000000000000000e+00 0.0000000000000000e+00  0.0000000000000000e+00 0.0000000000000000e+00 0.0000000000000000e+00  0.0000000000000000e+00 0.0000000000000000e+00 0.0000000000000000e+00  0.0000000000000000e+00 0.0000000000000000e+00 0.0000000000000000e+00  0.0000000000000000e+00 0.0000000000000000e+00 0.0000000000000000e+00  0.0000000000000000e+00 0.0000000000000000e+00 0.0000000000000000e+00  0.0000000000000000e+00 0.0000000000000000e+00 0.0000000000000000e+00  0.0000000000000000e+00 0.0000000000000000e+00 0.0000000000000000e+00  0.0000000000000000e+00 0.0000000000000000e+00 0.0000000000000000e+00  0.0000000000000000e+00 0.0000000000000000e+00 0.0000000000000000e+00  0.0000000000000000e+00 0.0000000000000000e+00 0.0000000000000000e+00  0.0000000000000000e+00 0.0000000000000000e+00 0.0000000000000000e+00  0.0000000000000000e+00 0.0000000000000000e+00 0.0000000000000000e+00  0.0000000000000000e+00 0.0000000000000000e+00 0.0000000000000000e+00  0.0000000000000000e+00 0.0000000000000000e+00 0.0000000000000000e+00  0.0000000000000000e+00 0.0000000000000000e+00 0.0000000000000000e+00  0.0000000000000000e+00 0.0000000000000000e+00 0.0000000000000000e+00  0.0000000000000000e+00 0.0000000000000000e+00 0.0000000000000000e+00  0.0000000000000000e+00 0.0000000000000000e+00 0.0000000000000000e+00  3.3887130992467053e-03 1.9381686660248728e-04 0.0000000000000000e+00  2.4211696528926366e-03 -7.6479660226838665e-05 0.0000000000000000e+00  3.5094685905945394e-03 -1.7037434884625548e-04 0.0000000000000000e+00  0.0000000000000000e+00 0.0000000000000000e+00 0.0000000000000000e+00  0.0000000000000000e+00 0.0000000000000000e+00 0.0000000000000000e+00  0.0000000000000000e+00 0.0000000000000000e+00 0.0000000000000000e+00  0.0000000000000000e+00 0.0000000000000000e+00 0.0000000000000000e+00  0.0000000000000000e+00 0.0000000000000000e+00 0.0000000000000000e+00  0.0000000000000000e+00 0.0000000000000000e+00 0.0000000000000000e+00  0.0000000000000000e+00 0.0000000000000000e+00 0.0000000000000000e+00  0.0000000000000000e+00 0.0000000000000000e+00 0.0000000000000000e+00  0.0000000000000000e+00 0.0000000000000000e+00 0.0000000000000000e+00  0.0000000000000000e+00 0.0000000000000000e+00 0.0000000000000000e+00  0.0000000000000000e+00 0.0000000000000000e+00 0.0000000000000000e+00  0.0000000000000000e+00 0.0000000000000000e+00 0.0000000000000000e+00  0.0000000000000000e+00 0.0000000000000000e+00 0.0000000000000000e+00  0.0000000000000000e+00 0.0000000000000000e+00 0.0000000000000000e+00  0.0000000000000000e+00 0.0000000000000000e+00 0.0000000000000000e+00  0.0000000000000000e+00 0.0000000000000000e+00 0.0000000000000000e+00  0.0000000000000000e+00 0.0000000000000000e+00 0.0000000000000000e+00  0.0000000000000000e+00 0.0000000000000000e+00 0.0000000000000000e+00  0.0000000000000000e+00 0.0000000000000000e+00 0.0000000000000000e+00  0.0000000000000000e+00 0.0000000000000000e+00 0.0000000000000000e+00  0.0000000000000000e+00 0.0000000000000000e+00 0.0000000000000000e+00  0.0000000000000000e+00 0.0000000000000000e+00 0.0000000000000000e+00  0.0000000000000000e+00 0.0000000000000000e+00 0.0000000000000000e+00  0.0000000000000000e+00 0.0000000000000000e+00 0.0000000000000000e+00  0.0000000000000000e+00 0.0000000000000000e+00 0.0000000000000000e+00  0.0000000000000000e+00 0.0000000000000000e+00 0.0000000000000000e+00  0.0000000000000000e+00 0.0000000000000000e+00 0.0000000000000000e+00  0.0000000000000000e+00 0.0000000000000000e+00 0.0000000000000000e+00  0.0000000000000000e+00 0.0000000000000000e+00 0.0000000000000000e+00  0.0000000000000000e+00 0.0000000000000000e+00 0.0000000000000000e+00  0.0000000000000000e+00 0.0000000000000000e+00 0.0000000000000000e+00  0.0000000000000000e+00 0.0000000000000000e+00 0.0000000000000000e+00  0.0000000000000000e+00 0.0000000000000000e+00 0.0000000000000000e+00  0.0000000000000000e+00 0.0000000000000000e+00 0.0000000000000000e+00  0.0000000000000000e+00 0.0000000000000000e+00 0.0000000000000000e+00  0.0000000000000000e+00 0.0000000000000000e+00 0.0000000000000000e+00  0.0000000000000000e+00 0.0000000000000000e+00 0.0000000000000000e+00  0.0000000000000000e+00 0.0000000000000000e+00 0.0000000000000000e+00  0.0000000000000000e+00 0.0000000000000000e+00 0.0000000000000000e+00  0.0000000000000000e+00 0.0000000000000000e+00 0.0000000000000000e+00  0.0000000000000000e+00 0.0000000000000000e+00 0.0000000000000000e+00  0.0000000000000000e+00 0.0000000000000000e+00 0.0000000000000000e+00  0.0000000000000000e+00 0.0000000000000000e+00 0.0000000000000000e+00  0.0000000000000000e+00 0.0000000000000000e+00 0.0000000000000000e+00  0.0000000000000000e+00 0.0000000000000000e+00 0.0000000000000000e+00  0.0000000000000000e+00 0.0000000000000000e+00 0.0000000000000000e+00  0.0000000000000000e+00 0.0000000000000000e+00 0.0000000000000000e+00  0.0000000000000000e+00 0.0000000000000000e+00 0.0000000000000000e+00  0.0000000000000000e+00 0.0000000000000000e+00 0.0000000000000000e+00  0.0000000000000000e+00 0.0000000000000000e+00 0.0000000000000000e+00  0.0000000000000000e+00 0.0000000000000000e+00 0.0000000000000000e+00  0.0000000000000000e+00 0.0000000000000000e+00 0.0000000000000000e+00  0.0000000000000000e+00 0.0000000000000000e+00 0.0000000000000000e+00  0.0000000000000000e+00 0.0000000000000000e+00 0.0000000000000000e+00  0.0000000000000000e+00 0.0000000000000000e+00 0.0000000000000000e+00  0.0000000000000000e+00 0.0000000000000000e+00 0.0000000000000000e+00  0.0000000000000000e+00 0.0000000000000000e+00 0.0000000000000000e+00  0.0000000000000000e+00 0.0000000000000000e+00 0.0000000000000000e+00  0.0000000000000000e+00 0.0000000000000000e+00 0.0000000000000000e+00  0.0000000000000000e+00 0.0000000000000000e+00 0.0000000000000000e+00  0.0000000000000000e+00 0.0000000000000000e+00 0.0000000000000000e+00  0.0000000000000000e+00 0.0000000000000000e+00 0.0000000000000000e+00  0.0000000000000000e+00 0.0000000000000000e+00 0.0000000000000000e+00  0.0000000000000000e+00 0.0000000000000000e+00 0.0000000000000000e+00  0.0000000000000000e+00 0.0000000000000000e+00 0.0000000000000000e+00  0.0000000000000000e+00 0.0000000000000000e+00 0.0000000000000000e+00  0.0000000000000000e+00 0.0000000000000000e+00 0.0000000000000000e+00  0.0000000000000000e+00 0.0000000000000000e+00 0.0000000000000000e+00  0.0000000000000000e+00 0.0000000000000000e+00 0.0000000000000000e+00  0.0000000000000000e+00 0.0000000000000000e+00 0.0000000000000000e+00  0.0000000000000000e+00 0.0000000000000000e+00 0.0000000000000000e+00  0.0000000000000000e+00 0.0000000000000000e+00 0.0000000000000000e+00  0.0000000000000000e+00 0.0000000000000000e+00 0.0000000000000000e+00  0.0000000000000000e+00 0.0000000000000000e+00 0.0000000000000000e+00  0.0000000000000000e+00 0.0000000000000000e+00 0.0000000000000000e+00  0.0000000000000000e+00 0.0000000000000000e+00 0.0000000000000000e+00  0.0000000000000000e+00 0.0000000000000000e+00 0.0000000000000000e+00  0.0000000000000000e+00 0.0000000000000000e+00 0.0000000000000000e+00  -9.8738137738922242e-08 -2.0152441652428687e-06 0.0000000000000000e+00  -1.4066523022115798e-07 -2.1566229682000676e-06 0.0000000000000000e+00  -7.2043492161757898e-08 -2.1736640840384242e-06 0.0000000000000000e+00  3.0077540871133832e-08 -2.1285045314727567e-06 0.0000000000000000e+00  1.5535284018290647e-07 -2.0775144559698650e-06 0.0000000000000000e+00  2.5752863469519565e-07 -2.0551046523820707e-06 0.0000000000000000e+00  3.5526301292429065e-07 -2.0242018643552799e-06 0.0000000000000000e+00  4.2830100238890557e-07 -2.0078357658109639e-06 0.0000000000000000e+00  4.9475605079520261e-07 -1.9950070381354248e-06 0.0000000000000000e+00  5.4017545598239277e-07 -1.9880239842616159e-06 0.0000000000000000e+00  5.7144556504906751e-07 -1.9999187094426036e-06 0.0000000000000000e+00  5.8519551637837815e-07 -2.0145919783383351e-06 0.0000000000000000e+00  5.7933017158064402e-07 -2.0426910550309677e-06 0.0000000000000000e+00  5.6039845027180329e-07 -2.0859267875482439e-06 0.0000000000000000e+00  5.1797720061930691e-07 -2.1384425295079074e-06 0.0000000000000000e+00  4.7015457450666306e-07 -2.2117759116800905e-06 0.0000000000000000e+00  3.9069069816860302e-07 -2.2893537291796364e-06 0.0000000000000000e+00  3.0455282548195893e-07 -2.3988246418482045e-06 0.0000000000000000e+00  1.8807179927759057e-07 -2.5086959652440631e-06 0.0000000000000000e+00  6.6601406574125462e-08 -2.6497446984363244e-06 0.0000000000000000e+00  -8.6827596302695435e-08 -2.7938384375006873e-06 0.0000000000000000e+00  -2.4922077024606650e-07 -2.9643740350299298e-06 0.0000000000000000e+00  -4.3626117772162824e-07 -3.1539558050754214e-06 0.0000000000000000e+00  -6.3948786158787410e-07 -3.3560341774854116e-06 0.0000000000000000e+00  -8.5815267768096236e-07 -3.5853156429590666e-06 0.0000000000000000e+00  -1.1004956652956142e-06 -3.8197024353072067e-06 0.0000000000000000e+00  -1.3637904219599243e-06 -4.0913564220750073e-06 0.0000000000000000e+00  -1.6466095886324163e-06 -4.3651226022327142e-06 0.0000000000000000e+00  -1.9459729567186035e-06 -4.6683453255173777e-06 0.0000000000000000e+00  -2.2691345529863279e-06 -4.9829128569250093e-06 0.0000000000000000e+00  -2.6065188592332774e-06 -5.3226658955394536e-06 0.0000000000000000e+00  -2.9712522288698984e-06 -5.6685158187280210e-06 0.0000000000000000e+00  -3.3500841999719426e-06 -6.0435871701549036e-06 0.0000000000000000e+00  -3.7547552714977514e-06 -6.4193009189047725e-06 0.0000000000000000e+00  -4.1775668953216569e-06 -6.8251027592237358e-06 0.0000000000000000e+00  -4.6248561035662425e-06 -7.2325506853503055e-06 0.0000000000000000e+00  -5.0862094151730180e-06 -7.6630972419631874e-06 0.0000000000000000e+00  -5.5733927379271861e-06 -8.0981706641742780e-06 0.0000000000000000e+00  -6.0783638977793151e-06 -8.5557383188000848e-06 0.0000000000000000e+00  -6.6084101739193514e-06 -9.0127640589792355e-06 0.0000000000000000e+00  -7.1614588086085852e-06 -9.4860771023321299e-06 0.0000000000000000e+00  -7.7342121627636157e-06 -9.9646963399198092e-06 0.0000000000000000e+00  -8.3285870698946885e-06 -1.0455174729449026e-05 0.0000000000000000e+00  -8.9382906694483714e-06 -1.0944849748754758e-05 0.0000000000000000e+00  -9.5651918883197809e-06 -1.1436737346500219e-05 0.0000000000000000e+00  -1.0207889978058057e-05 -1.1956587739219859e-05 0.0000000000000000e+00  -1.1298732825804990e-05 -1.1967704925846414e-05 0.0000000000000000e+00  -1.2007697828968933e-05 -1.0738870342594515e-05 0.0000000000000000e+00  -1.1636950412817540e-05 -9.6732174629841185e-06 0.0000000000000000e+00  -1.0988076056765012e-05 -9.1210343782003423e-06 0.0000000000000000e+00  -1.0336280776915451e-05 -8.5607122159274655e-06 0.0000000000000000e+00  -9.7105201719693971e-06 -8.0100644285512066e-06 0.0000000000000000e+00  -9.0934571707281888e-06 -7.4719062130333248e-06 0.0000000000000000e+00  -8.5044814398149149e-06 -6.9396745464443150e-06 0.0000000000000000e+00  -7.9217626577950620e-06 -6.4150617720921144e-06 0.0000000000000000e+00  -7.3705711469712405e-06 -5.9007858059935912e-06 0.0000000000000000e+00  -6.8255218698598059e-06 -5.4015670947965247e-06 0.0000000000000000e+00  -6.3105606283419278e-06 -4.9073414076606632e-06 0.0000000000000000e+00  -5.8082024642423168e-06 -4.4332951668596648e-06 0.0000000000000000e+00  -5.3304106171241214e-06 -3.9681234356905976e-06 0.0000000000000000e+00  -4.8648874027161423e-06 -3.5226189289977091e-06 0.0000000000000000e+00  -4.4232165554048566e-06 -3.0836137407167507e-06 0.0000000000000000e+00  -3.9973435574662478e-06 -2.6709351105862936e-06 0.0000000000000000e+00  -3.5925799032246858e-06 -2.2646948964254445e-06 0.0000000000000000e+00  -3.2037885876235547e-06 -1.8839785965214063e-06 0.0000000000000000e+00  -2.8385605872841492e-06 -1.5122639464811011e-06 0.0000000000000000e+00  -2.4841735858656080e-06 -1.1690667579898158e-06 0.0000000000000000e+00  -2.1583061702553265e-06 -8.3383327832446960e-07 0.0000000000000000e+00  -1.8410545520695026e-06 -5.2821207609089326e-07 0.0000000000000000e+00  -1.5540356360037436e-06 -2.3069416408739408e-07 0.0000000000000000e+00  -1.2797462311846387e-06 4.2114134700766688e-08 0.0000000000000000e+00  -1.0287579242828906e-06 2.9585873022825950e-07 0.0000000000000000e+00  -7.9855016910588086e-07 5.3411822690668423e-07 0.0000000000000000e+00  -5.8044277689332143e-07 7.4835702570690592e-07 0.0000000000000000e+00  -3.8430410191627833e-07 9.5297836805059530e-07 0.0000000000000000e+00  -2.0906429348462636e-07 1.1284222307994810e-06 0.0000000000000000e+00  -5.6846588636927054e-08 1.3007564255739103e-06 0.0000000000000000e+00  7.8516482398968719e-08 1.4407597211245062e-06 0.0000000000000000e+00  1.9362825031249814e-07 1.5826788647985999e-06 0.0000000000000000e+00  2.8723064725894848e-07 1.6946866377890179e-06 0.0000000000000000e+00  3.6467704268616892e-07 1.7993213546253352e-06 0.0000000000000000e+00  4.1879694116764236e-07 1.8858342197961618e-06 0.0000000000000000e+00  4.5476181627101576e-07 1.9639434613841751e-06 0.0000000000000000e+00  4.7372161595661102e-07 2.0267235054608800e-06 0.0000000000000000e+00  4.7196414998494623e-07 2.0761871779897327e-06 0.0000000000000000e+00  4.5283581975865856e-07 2.1201482292021937e-06 0.0000000000000000e+00  4.0680455094572717e-07 2.1480555607304138e-06 0.0000000000000000e+00  3.5329615825100154e-07 2.1705922893378093e-06 0.0000000000000000e+00  2.6597724631977063e-07 2.1910845068505104e-06 0.0000000000000000e+00  1.7960388072337441e-07 2.1976323422975760e-06 0.0000000000000000e+00  5.9657300338682808e-08 2.2227749630617919e-06 0.0000000000000000e+00  -3.9387641370454951e-08 2.2372054485505221e-06 0.0000000000000000e+00  -1.1446280009849044e-07 2.1897983343230362e-06 0.0000000000000000e+00  -9.1601897589905692e-08 2.0180280085201188e-06 0.0000000000000000e+00  -5.0234999461574195e-07 -4.1077325122977564e-09 0.0000000000000000e+00  -1.0643753628357163e-05 -1.0556506266206724e-05 0.0000000000000000e+00  -9.3781570114491903e-06 -9.5563184360392691e-06 0.0000000000000000e+00  -7.5312036161080513e-06 -7.9525042591819359e-06 0.0000000000000000e+00  -2.5047750458406217e-08 3.8726756903813313e-08 0.0000000000000000e+00  -6.4759263753486572e-06 -6.9788858705683481e-06 0.0000000000000000e+00  2.0309769987116188e-07 9.5006219606096024e-08 0.0000000000000000e+00  -5.4707210070432263e-06 -6.0485854926554632e-06 0.0000000000000000e+00  4.3886965652526851e-07 9.9957782361271137e-08 0.0000000000000000e+00  5.0222738927618089e-07 3.6797805172049012e-08 0.0000000000000000e+00  -4.5453365195099701e-06 -5.1724894836779534e-06 0.0000000000000000e+00  3.5316678573255694e-07 -2.3464930674829823e-07 0.0000000000000000e+00  -2.9312993523197219e-06 -3.5998549874305705e-06 0.0000000000000000e+00  5.0168656611538439e-07 -1.2792671642522781e-08 0.0000000000000000e+00  1.6679974513369792e-07 -4.7391364242485321e-07 0.0000000000000000e+00  -2.2414545953774436e-06 -2.9144419686902859e-06 0.0000000000000000e+00  -3.6987596622878104e-06 -4.3541168419873041e-06 0.0000000000000000e+00  -9.7850275384623299e-08 -7.5514447044679203e-07 0.0000000000000000e+00  -1.6294220579140416e-06 -2.3042036271048254e-06 0.0000000000000000e+00  -4.2510806833798759e-07 -1.0655168215965873e-06 0.0000000000000000e+00  -1.0992185728766874e-06 -1.7997640618135043e-06 0.0000000000000000e+00  -7.3224951445383103e-07 -1.4005127063458159e-06 0.0000000000000000e+00  4.4797499510339029e-07 -1.3378409406141420e-07 0.0000000000000000e+00  -8.4867526166576938e-06 -8.7568015606750246e-06 0.0000000000000000e+00  3.2960801658009734e-07 7.6278770822711962e-08 0.0000000000000000e+00  -1.0240329253877425e-05 -9.6403872300961049e-06 0.0000000000000000e+00  -2.0747876697779654e-07 8.4721412471863356e-07 0.0000000000000000e+00  -6.1436052275797919e-06 -6.1129919647506413e-06 0.0000000000000000e+00  -7.1975958062129557e-06 -7.0825412524889367e-06 0.0000000000000000e+00  9.5170741855546183e-08 -7.0925653358748459e-07 0.0000000000000000e+00  4.8577915494307404e-07 -5.3439897591481084e-07 0.0000000000000000e+00  -3.4517109372552857e-06 -3.5298415158021529e-06 0.0000000000000000e+00  -5.1684978283547093e-06 -5.1944921227995059e-06 0.0000000000000000e+00  3.1424198130850467e-07 -9.0629246280259652e-07 0.0000000000000000e+00  -2.7095887795846801e-06 -2.7951310572494991e-06 0.0000000000000000e+00  5.2601276887429520e-07 -5.7987415212319119e-07 0.0000000000000000e+00  9.8587768608828821e-08 -1.1426019705171689e-06 0.0000000000000000e+00  -2.0446026088223208e-06 -2.1333488706502566e-06 0.0000000000000000e+00  -4.2710491621068283e-06 -4.3310073932872159e-06 0.0000000000000000e+00  -1.7286080285200024e-07 -1.5567242679606801e-06 0.0000000000000000e+00  -1.4570656012883453e-06 -1.5456209468510918e-06 0.0000000000000000e+00  -4.8138982269182791e-07 -4.8335260120574463e-07 0.0000000000000000e+00  -4.7042211781777844e-07 4.4085970883663005e-07 0.0000000000000000e+00  -1.1018680872054474e-05 -1.1243710765030630e-05 0.0000000000000000e+00  -2.093214