<?xml version="1.0"?>
<VTKFile type="UnstructuredGrid"  version="0.1"  >
<UnstructuredGrid>
<Piece  NumberOfPoints="1419" NumberOfCells="2698">
<Points>
<DataArray  type="Float64"  NumberOfComponents="3"  format="ascii">0 0 0  0 0.41 0  2.5 0 0  2.5 0.41 0  0.6 0.19 0  0.6 0.21 0  0.25 0.2 0  0.15 0.2 0  0.2489897948556636 0.21 0  0.2489897948556636 0.19 0  0.6 0.2 0  0 0.3807142857143437 0  0 0.3514285714286952 0  0 0.3221428571430699 0  0 0.29285714285744 0  0 0.2635714285718054 0  0 0.2342857142861561 0  0 0.2050000000005308 0  0 0.175714285714732 0  0 0.1464285714289574 0  0 0.1171428571431897 0  0 0.08785714285737878 0  0 0.05857142857161107 0  0 0.02928571428580012 0  0.03015443760436003 0 0  0.06140001986583606 0 0  0.09377624077125973 0 0  0.1273239957535082 0 0  0.1620856860351972 0 0  0.1981052433264291 0 0  0.235428184091502 0 0  0.2741016576309132 0 0  0.3141745521465447 0 0  0.3556974926295285 0 0  0.3987229542472677 0 0  0.4433053055141081 0 0  0.4895008759286886 0 0  0.5373680609405097 0 0  0.5869673343216626 0 0  0.6383613676634521 0 0  0.6916151138468254 0 0  0.7467958595648856 0 0  0.8039733463919316 0 0  0.8632198139502143 0 0  0.9246101326867038 0 0  0.9882218810934433 0 0  1.054135445558498 0 0  1.122434100542598 0 0  1.193204177141305 0 0  1.266535089879536 0 0  1.342519516046404 0 0  1.421253448503939 0 0  1.502836389106271 0 0  1.587371439758838 0 0  1.674965418777374 0 0  1.765729001825544 0 0  1.859776908880082 0 0  1.957227977487062 0 0  2.058205329869943 0 0  2.162836591189951 0 0  2.271253957290865 0 0  2.383594446803425 0 0  2.5 0.1024999999997612 0  2.5 0.2049999999994743 0  2.5 0.3074999999997183 0  2.383594446803656 0.41 0  2.271253957291315 0.41 0  2.162836591190598 0.41 0  2.058205329870775 0.41 0  1.957227977488067 0.41 0  1.859776908881246 0.41 0  1.765729001826854 0.41 0  1.674965418778818 0.41 0  1.58737143976041 0.41 0  1.502836389107956 0.41 0  1.421253448505726 0.41 0  1.342519516048286 0.41 0  1.266535089881505 0.41 0  1.193204177143353 0.41 0  1.122434100544716 0.41 0  1.05413544556068 0.41 0  0.9882218810956305 0.41 0  0.9246101326886647 0.41 0  0.8632198139519631 0.41 0  0.8039733463934788 0.41 0  0.7467958595662458 0.41 0  0.6916151138480078 0.41 0  0.6383613676644679 0.41 0  0.5869673343225223 0.41 0  0.5373680609412221 0.41 0  0.4895008759292634 0.41 0  0.4433053055145528 0.41 0  0.3987229542475914 0.41 0  0.3556974926297398 0.41 0  0.3141745521466497 0.41 0  0.2741016576310038 0.41 0  0.2354281840915826 0.41 0  0.1981052433265003 0.41 0  0.1620856860352591 0.41 0  0.1273239957535623 0.41 0  0.09377624077128965 0.41 0  0.06140001986584975 0.41 0  0.03015443760436654 0.41 0  0.2497468076502589 0.2050254481002335 0  0.2497468076502614 0.1949745518997913 0  0.2469965252529372 0.1829317073451959 0  0.2439893735792749 0.1762316384219906 0  0.2400332147834255 0.1700443375285386 0  0.2352133972704371 0.1645032867342007 0  0.2296339016332438 0.1597280261969788 0  0.2234150974217223 0.1558215752574715 0  0.2166911463437691 0.1528682099456123 0  0.2096071079204251 0.1509316448471593 0  0.2023158100364996 0.1500536585536553 0  0.194974551899914 0.1502531923497262 0  0.1877417105387872 0.1515259415822739 0  0.1807733240461124 0.153844448527136 0  0.1742197252835808 0.15715869474974 0  0.1682222986673531 0.1613971801805478 0  0.162910430003803 0.1664684656256651 0  0.1583987151779087 0.1722631454351573 0  0.1547844879126891 0.178656207771761 0  0.1521457199348551 0.1855097315605723 0  0.1505393388476355 0.1926758619366523 0  0.1505393388476328 0.2073241380633295 0  0.1521457199348437 0.2144902684393899 0  0.1547844879126531 0.221343792228163 0  0.1583987151778488 0.2277368545647528 0  0.1629104300036858 0.2335315343742052 0  0.1682222986671726 0.2386028198193036 0  0.1742197252833576 0.2428413052501257 0  0.1807733240458683 0.2461555514727623 0  0.1877417105384929 0.2484740584176516 0  0.1949745518995776 0.2497468076502398 0  0.202315810036185 0.2499463414463592 0  0.2096071079201568 0.2490683551528932 0  0.2166911463435495 0.2471317900544655 0  0.2234150974215506 0.2441784247426195 0  0.2296339016331197 0.2402719738031125 0  0.2352133972703547 0.2354967132658811 0  0.2400332147833751 0.2299556624715287 0  0.2439893735792577 0.2237683615780412 0  0.246996525252926 0.2170682926548348 0  0.25645809709277 0.21 0  0.2639263993298655 0.21 0  0.271394701566961 0.21 0  0.2788630038040554 0.21 0  0.2863313060411479 0.21 0  0.2937996082782405 0.21 0  0.301267910515333 0.21 0  0.3087362127524279 0.21 0  0.3162045149895234 0.21 0  0.3236728172265972 0.21 0  0.3311411194636928 0.21 0  0.3386094217007701 0.21 0  0.3460777239378666 0.21 0  0.3535460261749672 0.21 0  0.3610143284120516 0.21 0  0.3684826306491596 0.21 0  0.3759509328862226 0.21 0  0.383419235123329 0.21 0  0.3908875373604028 0.21 0  0.3983558395975142 0.21 0  0.4058241418345938 0.21 0  0.4132924440716992 0.21 0  0.4207607463087888 0.21 0  0.4282290485459029 0.21 0  0.4356973507830418 0.21 0  0.4431656530201649 0.21 0  0.4506339552573136 0.21 0  0.4581022574944306 0.21 0  0.4655705597315852 0.21 0  0.4730388619686996 0.21 0  0.480507164205851 0.21 0  0.4879754664429498 0.21 0  0.4954437686800938 0.21 0  0.502912070917267 0.21 0  0.5103803731544119 0.21 0  0.5178486753915261 0.21 0  0.5253169776286404 0.21 0  0.5327852798657868 0.21 0  0.5402535821029386 0.21 0  0.54772188434007 0.21 0  0.5551901865771842 0.21 0  0.5626584888143201 0.21 0  0.5701267910514778 0.21 0  0.5775950932886138 0.21 0  0.5850633955257281 0.21 0  0.5925316977628483 0.21 0  0.6 0.2050000000000054 0  0.6 0.1950000000000217 0  0.5925316977628897 0.19 0  0.5850633955257988 0.19 0  0.5775950932887378 0.19 0  0.5701267910515998 0.19 0  0.5626584888145268 0.19 0  0.5551901865773963 0.19 0  0.547721884340339 0.19 0  0.5402535821032429 0.19 0  0.5327852798661811 0.19 0  0.5253169776290537 0.19 0  0.5178486753919799 0.19 0  0.5103803731549078 0.19 0  0.502912070917822 0.19 0  0.4954437686807294 0.19 0  0.4879754664436223 0.19 0  0.4805071642065402 0.19 0  0.4730388619694271 0.19 0  0.4655705597323621 0.19 0  0.4581022574952563 0.19 0  0.4506339552581777 0.19 0  0.4431656530210671 0.19 0  0.4356973507839815 0.19 0  0.4282290485468779 0.19 0  0.4207607463097617 0.19 0  0.4132924440726327 0.19 0  0.4058241418354857 0.19 0  0.3983558395983636 0.19 0  0.3908875373612097 0.19 0  0.3834192351240934 0.19 0  0.3759509328869369 0.19 0  0.3684826306498175 0.19 0  0.361014328412667 0.19 0  0.3535460261755617 0.19 0  0.3460777239384295 0.19 0  0.3386094217012945 0.19 0  0.3311411194641595 0.19 0  0.3236728172270245 0.19 0  0.3162045149898895 0.19 0  0.3087362127527544 0.19 0  0.3012679105156187 0.19 0  0.2937996082784807 0.19 0  0.2863313060413428 0.19 0  0.2788630038042048 0.19 0  0.2713947015670686 0.19 0  0.2639263993299336 0.19 0  0.2564580970927985 0.19 0  0.2607803159922026 0.2000727136295815 0  0.5887803774232762 0.2001272386983733 0  0.5745072403740523 0.2002044435018727 0  0.5511891430099709 0.2001122610077113 0  0.2751288526855082 0.20000000000002 0  0.5365194309847112 0.1999999999999436 0  0.2894621222999649 0.1998691686390484 0  0.5215828265105155 0.1999999999999228 0  0.3127789816668748 0.1998657885438805 0  0.3274069683451451 0.2000000000000796 0  0.5066462220363641 0.199999999999908 0  0.3650630746574081 0.199866017807523 0  0.476773013087985 0.1999999999998713 0  0.3417402379596385 0.1998691686391011 0  0.3796850840047755 0.200000000000134 0  0.4618364086138087 0.1999999999998546 0  0.4917096175621762 0.1999999999998808 0  0.3946216884789568 0.2000000000001512 0  0.446899804139621 0.1999999999998389 0  0.4089549580935208 0.1998691686391595 0  0.4322718174608562 0.200127451265745 0  0.4201487168029707 0.1999966199048527 0  0.3528922713220932 0.2000185703532356 0  0.5633122436674589 0.1999814296467508 0  0.3006558810093873 0.1999966199048318 0  0.5815926498168407 0.1966545283159175 0  0.2677053789419034 0.1964246479135325 0  0.5290511287476175 0.1970915826863981 0  0.5439877332217911 0.197091582686394 0  0.2825131256993216 0.2035478995978015 0  0.3199386661080599 0.202908417313604 0  0.4842413153250809 0.1970915826863873 0  0.5141145242734466 0.1970915826863843 0  0.3722167817676917 0.2029084173136195 0  0.4693047108508938 0.1970915826863783 0  0.3348752705822316 0.202908417313609 0  0.3871533862418661 0.2029084173136212 0  0.4543681063767183 0.1970915826863795 0  0.4991779197992749 0.1970915826863902 0  0.4020059614928624 0.203547899597858 0  0.4394315019025246 0.1970915826863714 0  0.2550657455369551 0.2034088125358657 0  0.2548908499171161 0.1966940311614271 0  0.5946539510196798 0.2024302972968126 0  0.267698176732111 0.2039977513680092 0  0.4261685417851465 0.196409292431739 0  0.3590076176283495 0.196411355804271 0  0.5571672426447437 0.2036011176410121 0  0.3066757059912147 0.1964092924317024 0  0.594380730180568 0.1966558399668133 0  0.4842413153245942 0.2040749161535287 0  0.4693047108503577 0.2040749161535231 0  0.3871533862424271 0.1959250838464788 0  0.372246743208829 0.1959123236376545 0  0.5141145242731028 0.2040749161535395 0  0.4543681063761134 0.2040749161535186 0  0.4019979587101454 0.1959834479682427 0  0.4394608940728603 0.2040870543693135 0  0.5439623148931173 0.2040856076781014 0  0.5290511287473298 0.2040749161535501 0  0.4991779197988497 0.2040749161535382 0  0.3347912413592433 0.1959225448935183 0  0.3199680582793816 0.1959123018030061 0  0.2825051229162361 0.1959834479681729 0  0.3590471196690275 0.2036304442587945 0  0.5571594006495384 0.1963685282145804 0  0.3067669986803285 0.203627750582736 0  0.4262598344738712 0.2036568242185335 0  0.5814408164431408 0.2041285596160068 0  0.5688286748170428 0.1961819304477386 0  0.4145905603063645 0.2038180695522843 0  0.3473758401724931 0.2038180695522752 0  0.2950977245128307 0.2038180695522663 0  0.5688286748170693 0.203818069552238 0  0.2950977245127906 0.1961819304477774 0  0.3473758401723931 0.1961819304478349 0  0.4145905603061963 0.1961819304479011 0  0.2601812407614425 0.2056861609747042
[...]
<PointData  Vectors="f_40-0"> 
<DataArray  type="Float64"  Name="f_40-0"  NumberOfComponents="3" format="ascii">0.0000000000000000e+00 0.0000000000000000e+00 0.0000000000000000e+00  0.0000000000000000e+00 0.0000000000000000e+00 0.0000000000000000e+00  0.0000000000000000e+00 0.0000000000000000e+00 0.0000000000000000e+00  0.0000000000000000e+00 0.0000000000000000e+00 0.0000000000000000e+00  1.2441208447442597e-05 -4.1871890946253105e-04 0.0000000000000000e+00  4.5899362115266072e-05 -4.1917106645539005e-04 0.0000000000000000e+00  0.0000000000000000e+00 0.0000000000000000e+00 0.0000000000000000e+00  0.0000000000000000e+00 0.0000000000000000e+00 0.0000000000000000e+00  0.0000000000000000e+00 0.0000000000000000e+00 0.0000000000000000e+00  0.0000000000000000e+00 0.0000000000000000e+00 0.0000000000000000e+00  2.8889514019315075e-05 -4.1893396714740130e-04 0.0000000000000000e+00  4.2918270136029724e-02 0.0000000000000000e+00 0.0000000000000000e+00  7.9233729481906282e-02 0.0000000000000000e+00 0.0000000000000000e+00  1.0894637803762115e-01 0.0000000000000000e+00 0.0000000000000000e+00  1.3205621580320875e-01 0.0000000000000000e+00 0.0000000000000000e+00  1.4856324277866603e-01 0.0000000000000000e+00 0.0000000000000000e+00  1.5846745896399206e-01 0.0000000000000000e+00 0.0000000000000000e+00  1.6176886435917692e-01 0.0000000000000000e+00 0.0000000000000000e+00  1.5846745896419231e-01 0.0000000000000000e+00 0.0000000000000000e+00  1.4856324277901001e-01 0.0000000000000000e+00 0.0000000000000000e+00  1.3205621580363469e-01 0.0000000000000000e+00 0.0000000000000000e+00  1.0894637803802580e-01 0.0000000000000000e+00 0.0000000000000000e+00  7.9233729482251575e-02 0.0000000000000000e+00 0.0000000000000000e+00  4.2918270136224276e-02 0.0000000000000000e+00 0.0000000000000000e+00  0.0000000000000000e+00 0.0000000000000000e+00 0.0000000000000000e+00  0.0000000000000000e+00 0.0000000000000000e+00 0.0000000000000000e+00  0.0000000000000000e+00 0.0000000000000000e+00 0.0000000000000000e+00  0.0000000000000000e+00 0.0000000000000000e+00 0.0000000000000000e+00  0.0000000000000000e+00 0.0000000000000000e+00 0.0000000000000000e+00  0.0000000000000000e+00 0.0000000000000000e+00 0.0000000000000000e+00  0.0000000000000000e+00 0.0000000000000000e+00 0.0000000000000000e+00  0.0000000000000000e+00 0.0000000000000000e+00 0.0000000000000000e+00  0.0000000000000000e+00 0.0000000000000000e+00 0.0000000000000000e+00  0.0000000000000000e+00 0.0000000000000000e+00 0.0000000000000000e+00  0.0000000000000000e+00 0.0000000000000000e+00 0.0000000000000000e+00  0.0000000000000000e+00 0.0000000000000000e+00 0.0000000000000000e+00  0.0000000000000000e+00 0.0000000000000000e+00 0.0000000000000000e+00  0.0000000000000000e+00 0.0000000000000000e+00 0.0000000000000000e+00  0.0000000000000000e+00 0.0000000000000000e+00 0.0000000000000000e+00  0.0000000000000000e+00 0.0000000000000000e+00 0.0000000000000000e+00  0.0000000000000000e+00 0.0000000000000000e+00 0.0000000000000000e+00  0.0000000000000000e+00 0.0000000000000000e+00 0.0000000000000000e+00  0.0000000000000000e+00 0.0000000000000000e+00 0.0000000000000000e+00  0.0000000000000000e+00 0.0000000000000000e+00 0.0000000000000000e+00  0.0000000000000000e+00 0.0000000000000000e+00 0.0000000000000000e+00  0.0000000000000000e+00 0.0000000000000000e+00 0.0000000000000000e+00  0.0000000000000000e+00 0.0000000000000000e+00 0.0000000000000000e+00  0.0000000000000000e+00 0.0000000000000000e+00 0.0000000000000000e+00  0.0000000000000000e+00 0.0000000000000000e+00 0.0000000000000000e+00  0.0000000000000000e+00 0.0000000000000000e+00 0.0000000000000000e+00  0.0000000000000000e+00 0.0000000000000000e+00 0.0000000000000000e+00  0.0000000000000000e+00 0.0000000000000000e+00 0.0000000000000000e+00  0.0000000000000000e+00 0.0000000000000000e+00 0.0000000000000000e+00  0.0000000000000000e+00 0.0000000000000000e+00 0.0000000000000000e+00  0.0000000000000000e+00 0.0000000000000000e+00 0.0000000000000000e+00  0.0000000000000000e+00 0.0000000000000000e+00 0.0000000000000000e+00  0.0000000000000000e+00 0.0000000000000000e+00 0.0000000000000000e+00  0.0000000000000000e+00 0.0000000000000000e+00 0.0000000000000000e+00  0.0000000000000000e+00 0.0000000000000000e+00 0.0000000000000000e+00  0.0000000000000000e+00 0.0000000000000000e+00 0.0000000000000000e+00  0.0000000000000000e+00 0.0000000000000000e+00 0.0000000000000000e+00  0.0000000000000000e+00 0.0000000000000000e+00 0.0000000000000000e+00  1.5081506533172201e-01 2.3469558053668795e-03 0.0000000000000000e+00  1.1560734783725617e-01 -1.7832030147493497e-03 0.0000000000000000e+00  1.5277926144334791e-01 -4.9309998359357940e-04 0.0000000000000000e+00  0.0000000000000000e+00 0.0000000000000000e+00 0.0000000000000000e+00  0.0000000000000000e+00 0.0000000000000000e+00 0.0000000000000000e+00  0.0000000000000000e+00 0.0000000000000000e+00 0.0000000000000000e+00  0.0000000000000000e+00 0.0000000000000000e+00 0.0000000000000000e+00  0.0000000000000000e+00 0.0000000000000000e+00 0.0000000000000000e+00  0.0000000000000000e+00 0.0000000000000000e+00 0.0000000000000000e+00  0.0000000000000000e+00 0.0000000000000000e+00 0.0000000000000000e+00  0.0000000000000000e+00 0.0000000000000000e+00 0.0000000000000000e+00  0.0000000000000000e+00 0.0000000000000000e+00 0.0000000000000000e+00  0.0000000000000000e+00 0.0000000000000000e+00 0.0000000000000000e+00  0.0000000000000000e+00 0.0000000000000000e+00 0.0000000000000000e+00  0.0000000000000000e+00 0.0000000000000000e+00 0.0000000000000000e+00  0.0000000000000000e+00 0.0000000000000000e+00 0.0000000000000000e+00  0.0000000000000000e+00 0.0000000000000000e+00 0.0000000000000000e+00  0.0000000000000000e+00 0.0000000000000000e+00 0.0000000000000000e+00  0.0000000000000000e+00 0.0000000000000000e+00 0.0000000000000000e+00  0.0000000000000000e+00 0.0000000000000000e+00 0.0000000000000000e+00  0.0000000000000000e+00 0.0000000000000000e+00 0.0000000000000000e+00  0.0000000000000000e+00 0.0000000000000000e+00 0.0000000000000000e+00  0.0000000000000000e+00 0.0000000000000000e+00 0.0000000000000000e+00  0.0000000000000000e+00 0.0000000000000000e+00 0.0000000000000000e+00  0.0000000000000000e+00 0.0000000000000000e+00 0.0000000000000000e+00  0.0000000000000000e+00 0.0000000000000000e+00 0.0000000000000000e+00  0.0000000000000000e+00 0.0000000000000000e+00 0.0000000000000000e+00  0.0000000000000000e+00 0.0000000000000000e+00 0.0000000000000000e+00  0.0000000000000000e+00 0.0000000000000000e+00 0.0000000000000000e+00  0.0000000000000000e+00 0.0000000000000000e+00 0.0000000000000000e+00  0.0000000000000000e+00 0.0000000000000000e+00 0.0000000000000000e+00  0.0000000000000000e+00 0.0000000000000000e+00 0.0000000000000000e+00  0.0000000000000000e+00 0.0000000000000000e+00 0.0000000000000000e+00  0.0000000000000000e+00 0.0000000000000000e+00 0.0000000000000000e+00  0.0000000000000000e+00 0.0000000000000000e+00 0.0000000000000000e+00  0.0000000000000000e+00 0.0000000000000000e+00 0.0000000000000000e+00  0.0000000000000000e+00 0.0000000000000000e+00 0.0000000000000000e+00  0.0000000000000000e+00 0.0000000000000000e+00 0.0000000000000000e+00  0.0000000000000000e+00 0.0000000000000000e+00 0.0000000000000000e+00  0.0000000000000000e+00 0.0000000000000000e+00 0.0000000000000000e+00  0.0000000000000000e+00 0.0000000000000000e+00 0.0000000000000000e+00  0.0000000000000000e+00 0.0000000000000000e+00 0.0000000000000000e+00  0.0000000000000000e+00 0.0000000000000000e+00 0.0000000000000000e+00  0.0000000000000000e+00 0.0000000000000000e+00 0.0000000000000000e+00  0.0000000000000000e+00 0.0000000000000000e+00 0.0000000000000000e+00  0.0000000000000000e+00 0.0000000000000000e+00 0.0000000000000000e+00  0.0000000000000000e+00 0.0000000000000000e+00 0.0000000000000000e+00  0.0000000000000000e+00 0.0000000000000000e+00 0.0000000000000000e+00  0.0000000000000000e+00 0.0000000000000000e+00 0.0000000000000000e+00  0.0000000000000000e+00 0.0000000000000000e+00 0.0000000000000000e+00  0.0000000000000000e+00 0.0000000000000000e+00 0.0000000000000000e+00  0.0000000000000000e+00 0.0000000000000000e+00 0.0000000000000000e+00  0.0000000000000000e+00 0.0000000000000000e+00 0.0000000000000000e+00  0.0000000000000000e+00 0.0000000000000000e+00 0.0000000000000000e+00  0.0000000000000000e+00 0.0000000000000000e+00 0.0000000000000000e+00  0.0000000000000000e+00 0.0000000000000000e+00 0.0000000000000000e+00  0.0000000000000000e+00 0.0000000000000000e+00 0.0000000000000000e+00  0.0000000000000000e+00 0.0000000000000000e+00 0.0000000000000000e+00  0.0000000000000000e+00 0.0000000000000000e+00 0.0000000000000000e+00  0.0000000000000000e+00 0.0000000000000000e+00 0.0000000000000000e+00  0.0000000000000000e+00 0.0000000000000000e+00 0.0000000000000000e+00  0.0000000000000000e+00 0.0000000000000000e+00 0.0000000000000000e+00  0.0000000000000000e+00 0.0000000000000000e+00 0.0000000000000000e+00  0.0000000000000000e+00 0.0000000000000000e+00 0.0000000000000000e+00  0.0000000000000000e+00 0.0000000000000000e+00 0.0000000000000000e+00  0.0000000000000000e+00 0.0000000000000000e+00 0.0000000000000000e+00  0.0000000000000000e+00 0.0000000000000000e+00 0.0000000000000000e+00  0.0000000000000000e+00 0.0000000000000000e+00 0.0000000000000000e+00  0.0000000000000000e+00 0.0000000000000000e+00 0.0000000000000000e+00  0.0000000000000000e+00 0.0000000000000000e+00 0.0000000000000000e+00  0.0000000000000000e+00 0.0000000000000000e+00 0.0000000000000000e+00  0.0000000000000000e+00 0.0000000000000000e+00 0.0000000000000000e+00  0.0000000000000000e+00 0.0000000000000000e+00 0.0000000000000000e+00  0.0000000000000000e+00 0.0000000000000000e+00 0.0000000000000000e+00  0.0000000000000000e+00 0.0000000000000000e+00 0.0000000000000000e+00  0.0000000000000000e+00 0.0000000000000000e+00 0.0000000000000000e+00  0.0000000000000000e+00 0.0000000000000000e+00 0.0000000000000000e+00  0.0000000000000000e+00 0.0000000000000000e+00 0.0000000000000000e+00  0.0000000000000000e+00 0.0000000000000000e+00 0.0000000000000000e+00  0.0000000000000000e+00 0.0000000000000000e+00 0.0000000000000000e+00  0.0000000000000000e+00 0.0000000000000000e+00 0.0000000000000000e+00  1.5458743383221192e-06 -1.3950912464394697e-06 0.0000000000000000e+00  3.2682966072004277e-06 -2.3425635848044910e-06 0.0000000000000000e+00  4.9688147684821760e-06 -3.8514093381469940e-06 0.0000000000000000e+00  6.7855068847172138e-06 -5.9715574997275181e-06 0.0000000000000000e+00  8.4710514152691478e-06 -8.6444681224883155e-06 0.0000000000000000e+00  1.0279949938689707e-05 -1.1931640974067559e-05 0.0000000000000000e+00  1.1916964531837086e-05 -1.5674859026079486e-05 0.0000000000000000e+00  1.3538555728923537e-05 -2.0023336077030139e-05 0.0000000000000000e+00  1.5263084307018560e-05 -2.4841404594793881e-05 0.0000000000000000e+00  1.6785530890997124e-05 -3.0149610528997741e-05 0.0000000000000000e+00  1.8440190954983545e-05 -3.5959633573831724e-05 0.0000000000000000e+00  1.9885741145661736e-05 -4.2214476385237152e-05 0.0000000000000000e+00  2.1418683095988988e-05 -4.8922400027520220e-05 0.0000000000000000e+00  2.2796937400963672e-05 -5.5995678597325239e-05 0.0000000000000000e+00  2.4139244497165719e-05 -6.3524375224969839e-05 0.0000000000000000e+00  2.5539427406649678e-05 -7.1405265509741605e-05 0.0000000000000000e+00  2.6766491407878864e-05 -7.9643259194617588e-05 0.0000000000000000e+00  2.8068426037111259e-05 -8.8255299836817417e-05 0.0000000000000000e+00  2.9205785668904364e-05 -9.7170227118434688e-05 0.0000000000000000e+00  3.0398688971176977e-05 -1.0640746110567690e-04 0.0000000000000000e+00  3.1466565854021178e-05 -1.1593128901734693e-04 0.0000000000000000e+00  3.2553877475598243e-05 -1.2575715368764827e-04 0.0000000000000000e+00  3.3534190946539228e-05 -1.3579867193445923e-04 0.0000000000000000e+00  3.4474371768634604e-05 -1.4612171423990591e-04 0.0000000000000000e+00  3.5431047558547724e-05 -1.5664248616717222e-04 0.0000000000000000e+00  3.6294955503983425e-05 -1.6738202343381830e-04 0.0000000000000000e+00  3.7136919849584358e-05 -1.7833761575158005e-04 0.0000000000000000e+00  3.7917778641472577e-05 -1.8944944480087287e-04 0.0000000000000000e+00  3.8674572598104297e-05 -2.0075191088919476e-04 0.0000000000000000e+00  3.9373036968208528e-05 -2.1218442247086762e-04 0.0000000000000000e+00  4.0045163432921310e-05 -2.2377702636747779e-04 0.0000000000000000e+00  4.0663593096107288e-05 -2.3547053142725295e-04 0.0000000000000000e+00  4.1254842878826531e-05 -2.4729818131521026e-04 0.0000000000000000e+00  4.1793088698287360e-05 -2.5920442198649232e-04 0.0000000000000000e+00  4.2305261140765623e-05 -2.7122211123524953e-04 0.0000000000000000e+00  4.2770403570377981e-05 -2.8329506445917967e-04 0.0000000000000000e+00  4.3210552124595265e-05 -2.9545370575196408e-04 0.0000000000000000e+00  4.3605342161432705e-05 -3.0765307811817178e-04 0.0000000000000000e+00  4.3972444063991381e-05 -3.1992137114746896e-04 0.0000000000000000e+00  4.4298666132665360e-05 -3.3221453409566966e-04 0.0000000000000000e+00  4.4596256751149914e-05 -3.4455587962000528e-04 0.0000000000000000e+00  4.4854558393708918e-05 -3.5691564510192736e-04 0.0000000000000000e+00  4.5084398133089983e-05 -3.6930468256610448e-04 0.0000000000000000e+00  4.5290388808649666e-05 -3.8170557314651661e-04 0.0000000000000000e+00  4.5468688280396028e-05 -3.9410964173035653e-04 0.0000000000000000e+00  4.5628147917194997e-05 -4.0655687927827142e-04 0.0000000000000000e+00  3.7281813638458709e-05 -4.1903034568174791e-04 0.0000000000000000e+00  2.0598660632483639e-05 -4.1883052128200647e-04 0.0000000000000000e+00  1.2254671899057799e-05 -4.0635660543328166e-04 0.0000000000000000e+00  1.2121933862110720e-05 -3.9388213073205368e-04 0.0000000000000000e+00  1.1997344813737317e-05 -3.8139227042309791e-04 0.0000000000000000e+00  1.1838953844801269e-05 -3.6893154974920668e-04 0.0000000000000000e+00  1.1672805393996000e-05 -3.5649564970131225e-04 0.0000000000000000e+00  1.1476567301098067e-05 -3.4407895581060839e-04 0.0000000000000000e+00  1.1284673304908446e-05 -3.3169607527521968e-04 0.0000000000000000e+00  1.1051617557473834e-05 -3.1934371783449577e-04 0.0000000000000000e+00  1.0833102483128469e-05 -3.0704423022142170e-04 0.0000000000000000e+00  1.0569308723893529e-05 -2.9478473699689301e-04 0.0000000000000000e+00  1.0321919883651200e-05 -2.8259415461734166e-04 0.0000000000000000e+00  1.0034897317229132e-05 -2.7046303885429091e-04 0.0000000000000000e+00  9.7684060899516016e-06 -2.5841642057966102e-04 0.0000000000000000e+00  9.4619536294915337e-06 -2.4644877959508030e-04 0.0000000000000000e+00  9.1822106204209041e-06 -2.3459513177585242e-04 0.0000000000000000e+00  8.8585631815175739e-06 -2.2283856610401078e-04 0.0000000000000000e+00  8.5694004520683005e-06 -2.1122235312580497e-04 0.0000000000000000e+00  8.2289294404156037e-06 -1.9972835713081769e-04 0.0000000000000000e+00  7.9416291585050464e-06 -1.8839965666335573e-04 0.0000000000000000e+00  7.5855394955190527e-06 -1.7722587900236686e-04 0.0000000000000000e+00  7.3033918093711907e-06 -1.6624968664568976e-04 0.0000000000000000e+00  6.9347430013603612e-06 -1.5545482180153282e-04 0.0000000000000000e+00  6.6444961912456107e-06 -1.4488852330129143e-04 0.0000000000000000e+00  6.2827869144014351e-06 -1.3452248494252820e-04 0.0000000000000000e+00  5.9241376593030956e-06 -1.2443761013735628e-04 0.0000000000000000e+00  5.6167211661810447e-06 -1.1457130414298019e-04 0.0000000000000000e+00  5.2778643813688102e-06 -1.0500225112919549e-04 0.0000000000000000e+00  4.9539720498077087e-06 -9.5722626043539169e-05 0.0000000000000000e+00  4.6053834196647160e-06 -8.6753812457297946e-05 0.0000000000000000e+00  4.2800877915561747e-06 -7.8119448538967025e-05 0.0000000000000000e+00  3.9344756902137487e-06 -6.9807829103937961e-05 0.0000000000000000e+00  3.6464495298804335e-06 -6.1913927060641051e-05 0.0000000000000000e+00  3.2834973851501100e-06 -5.4341706259514779e-05 0.0000000000000000e+00  2.9065394766958749e-06 -4.7233566752510096e-05 0.0000000000000000e+00  2.6293764015963299e-06 -4.0463950282680211e-05 0.0000000000000000e+00  2.2940666084830292e-06 -3.4186257247126129e-05 0.0000000000000000e+00  2.0114420994685920e-06 -2.8351726187256904e-05 0.0000000000000000e+00  1.6892078347905614e-06 -2.2996580489424234e-05 0.0000000000000000e+00  1.4692886530862170e-06 -1.8196336161415788e-05 0.0000000000000000e+00  1.1431425588062823e-06 -1.3827261340381402e-05 0.0000000000000000e+00  8.1970371168116831e-07 -1.0082338978491660e-05 0.0000000000000000e+00  6.4596260305457329e-07 -6.7878748952765443e-06 0.0000000000000000e+00  3.9257451050899642e-07 -4.1117165715366530e-06 0.0000000000000000e+00  2.6912783663611975e-07 -2.0257687386976952e-06 0.0000000000000000e+00  7.2450156176583712e-08 -5.6653986752554348e-07 0.0000000000000000e+00  5.8939756383031778e-08 2.4811084388619319e-07 0.0000000000000000e+00  1.1466223881301467e-06 -5.8706146559128324e-07 0.0000000000000000e+00  2.8982976322370753e-05 -4.0018920710392620e-04 0.0000000000000000e+00  2.8872187271392947e-05 -3.7639702004232256e-04 0.0000000000000000e+00  2.8056074623064418e-05 -3.3766935738187108e-04 0.0000000000000000e+00  3.0852369779247676e-06 -3.5292483525603280e-06 0.0000000000000000e+00  2.7324975257248760e-05 -3.1345157543528928e-04 0.0000000000000000e+00  4.9130028854312757e-06 -8.6343650153639503e-06 0.0000000000000000e+00  2.6677939763398446e-05 -2.8898065996810820e-04 0.0000000000000000e+00  7.9145051236636243e-06 -2.1302248772603683e-05 0.0000000000000000e+00  9.8548977683307874e-06 -3.1800508300099731e-05 0.0000000000000000e+00  2.5936009169344643e-05 -2.6476055551868022e-04 0.0000000000000000e+00  1.4172916312258694e-05 -6.6689791607993373e-05 0.0000000000000000e+00  2.4172496532173018e-05 -2.1740235707206110e-04 0.0000000000000000e+00  1.1499840506005845e-05 -4.3807709841769534e-05 0.0000000000000000e+00  1.5895824187266483e-05 -8.2932364163702623e-05 0.0000000000000000e+00  2.3152547371126419e-05 -1.9445692227979333e-04 0.0000000000000000e+00  2.5100763554256565e-05 -2.4086953435803265e-04 0.0000000000000000e+00  1.7423799389808968e-05 -1.0083949895511541e-04 0.0000000000000000e+00  2.2039442409906368e-05 -1.7215096787621861e-04 0.0000000000000000e+00  1.8633940271616867e-05 -1.1915215159764851e-04 0.0000000000000000e+00  2.1044808638310033e-05 -1.5104598625879898e-04 0.0000000000000000e+00  1.9807664492310777e-05 -1.3420662904155289e-04 0.0000000000000000e+00  1.2939305314944231e-05 -5.4337612850772631e-05 0.0000000000000000e+00  2.8201912486285530e-05 -3.5777779755972149e-04 0.0000000000000000e+00  6.4227794451059236e-06 -1.4164942871036089e-05 0.0000000000000000e+00  2.3096767623516543e-05 -3.8815905491520309e-04 0.0000000000000000e+00  1.3849755899409009e-06 -1.4595640087241988e-06 0.0000000000000000e+00  2.2259240507302128e-05 -3.0110353055013306e-04 0.0000000000000000e+00  2.2821564774236462e-05 -3.2568672147991601e-04 0.0000000000000000e+00  5.3020537783925916e-06 -6.2938615351534408e-06 0.0000000000000000e+00  1.0983314088632744e-05 -2.6517240191781992e-05 0.0000000000000000e+00  2.0094374535456351e-05 -2.2895590754353854e-04 0.0000000000000000e+00  2.1615039612045092e-05 -2.7673692592011107e-04 0.0000000000000000e+00  1.8308416873784914e-05 -7.4727549451692631e-05 0.0000000000000000e+00  1.9223918888048075e-05 -2.0572696684202052e-04 0.0000000000000000e+00  1.3196942889996781e-05 -3.8153870850199914e-05 0.0000000000000000e+00  2.0137568675503752e-05 -9.1969971440762806e-05 0.0000000000000000e+00  1.8282744227828475e-05 -1.8307666705240551e-04 0.0000000000000000e+00  2.0892495965122859e-05 -2.5265764667497680e-04 0.0000000000000000e+00  2.2658204998070919e-05 -1.1042361167684291e-04 0.0000000000000000e+00  1.7269859935300607e-05 -1.6112611614074794e-04 0.0000000000000000e+00  5.8046688941782531e-07 -3.1761790618317435e-07 0.0000000000000000e+00  3.1302597723931202e-07 9.0673792707998149e-08 0.0000000000000000e+00  3.2894410065837488e-05 -4.1001763253369268e-04 0.0000000000000000e+00  2.8982802576550467e-06 -2.1783212853145533e-06 0.0000000000000000e+00  1.5370