<?xml version="1.0"?>
<VTKFile type="UnstructuredGrid"  version="0.1"  >
<UnstructuredGrid>
<Piece  NumberOfPoints="1419" NumberOfCells="2698">
<Points>
<DataArray  type="Float64"  NumberOfComponents="3"  format="ascii">0 0 0  0 0.41 0  2.5 0 0  2.5 0.41 0  0.6 0.19 0  0.6 0.21 0  0.25 0.2 0  0.15 0.2 0  0.2489897948556636 0.21 0  0.2489897948556636 0.19 0  0.6 0.2 0  0 0.3807142857143437 0  0 0.3514285714286952 0  0 0.3221428571430699 0  0 0.29285714285744 0  0 0.2635714285718054 0  0 0.2342857142861561 0  0 0.2050000000005308 0  0 0.175714285714732 0  0 0.1464285714289574 0  0 0.1171428571431897 0  0 0.08785714285737878 0  0 0.05857142857161107 0  0 0.02928571428580012 0  0.03015443760436003 0 0  0.06140001986583606 0 0  0.09377624077125973 0 0  0.1273239957535082 0 0  0.1620856860351972 0 0  0.1981052433264291 0 0  0.235428184091502 0 0  0.2741016576309132 0 0  0.3141745521465447 0 0  0.3556974926295285 0 0  0.3987229542472677 0 0  0.4433053055141081 0 0  0.4895008759286886 0 0  0.5373680609405097 0 0  0.5869673343216626 0 0  0.6383613676634521 0 0  0.6916151138468254 0 0  0.7467958595648856 0 0  0.8039733463919316 0 0  0.8632198139502143 0 0  0.9246101326867038 0 0  0.9882218810934433 0 0  1.054135445558498 0 0  1.122434100542598 0 0  1.193204177141305 0 0  1.266535089879536 0 0  1.342519516046404 0 0  1.421253448503939 0 0  1.502836389106271 0 0  1.587371439758838 0 0  1.674965418777374 0 0  1.765729001825544 0 0  1.859776908880082 0 0  1.957227977487062 0 0  2.058205329869943 0 0  2.162836591189951 0 0  2.271253957290865 0 0  2.383594446803425 0 0  2.5 0.1024999999997612 0  2.5 0.2049999999994743 0  2.5 0.3074999999997183 0  2.383594446803656 0.41 0  2.271253957291315 0.41 0  2.162836591190598 0.41 0  2.058205329870775 0.41 0  1.957227977488067 0.41 0  1.859776908881246 0.41 0  1.765729001826854 0.41 0  1.674965418778818 0.41 0  1.58737143976041 0.41 0  1.502836389107956 0.41 0  1.421253448505726 0.41 0  1.342519516048286 0.41 0  1.266535089881505 0.41 0  1.193204177143353 0.41 0  1.122434100544716 0.41 0  1.05413544556068 0.41 0  0.9882218810956305 0.41 0  0.9246101326886647 0.41 0  0.8632198139519631 0.41 0  0.8039733463934788 0.41 0  0.7467958595662458 0.41 0  0.6916151138480078 0.41 0  0.6383613676644679 0.41 0  0.5869673343225223 0.41 0  0.5373680609412221 0.41 0  0.4895008759292634 0.41 0  0.4433053055145528 0.41 0  0.3987229542475914 0.41 0  0.3556974926297398 0.41 0  0.3141745521466497 0.41 0  0.2741016576310038 0.41 0  0.2354281840915826 0.41 0  0.1981052433265003 0.41 0  0.1620856860352591 0.41 0  0.1273239957535623 0.41 0  0.09377624077128965 0.41 0  0.06140001986584975 0.41 0  0.03015443760436654 0.41 0  0.2497468076502589 0.2050254481002335 0  0.2497468076502614 0.1949745518997913 0  0.2469965252529372 0.1829317073451959 0  0.2439893735792749 0.1762316384219906 0  0.2400332147834255 0.1700443375285386 0  0.2352133972704371 0.1645032867342007 0  0.2296339016332438 0.1597280261969788 0  0.2234150974217223 0.1558215752574715 0  0.2166911463437691 0.1528682099456123 0  0.2096071079204251 0.1509316448471593 0  0.2023158100364996 0.1500536585536553 0  0.194974551899914 0.1502531923497262 0  0.1877417105387872 0.1515259415822739 0  0.1807733240461124 0.153844448527136 0  0.1742197252835808 0.15715869474974 0  0.1682222986673531 0.1613971801805478 0  0.162910430003803 0.1664684656256651 0  0.1583987151779087 0.1722631454351573 0  0.1547844879126891 0.178656207771761 0  0.1521457199348551 0.1855097315605723 0  0.1505393388476355 0.1926758619366523 0  0.1505393388476328 0.2073241380633295 0  0.1521457199348437 0.2144902684393899 0  0.1547844879126531 0.221343792228163 0  0.1583987151778488 0.2277368545647528 0  0.1629104300036858 0.2335315343742052 0  0.1682222986671726 0.2386028198193036 0  0.1742197252833576 0.2428413052501257 0  0.1807733240458683 0.2461555514727623 0  0.1877417105384929 0.2484740584176516 0  0.1949745518995776 0.2497468076502398 0  0.202315810036185 0.2499463414463592 0  0.2096071079201568 0.2490683551528932 0  0.2166911463435495 0.2471317900544655 0  0.2234150974215506 0.2441784247426195 0  0.2296339016331197 0.2402719738031125 0  0.2352133972703547 0.2354967132658811 0  0.2400332147833751 0.2299556624715287 0  0.2439893735792577 0.2237683615780412 0  0.246996525252926 0.2170682926548348 0  0.25645809709277 0.21 0  0.2639263993298655 0.21 0  0.271394701566961 0.21 0  0.2788630038040554 0.21 0  0.2863313060411479 0.21 0  0.2937996082782405 0.21 0  0.301267910515333 0.21 0  0.3087362127524279 0.21 0  0.3162045149895234 0.21 0  0.3236728172265972 0.21 0  0.3311411194636928 0.21 0  0.3386094217007701 0.21 0  0.3460777239378666 0.21 0  0.3535460261749672 0.21 0  0.3610143284120516 0.21 0  0.3684826306491596 0.21 0  0.3759509328862226 0.21 0  0.383419235123329 0.21 0  0.3908875373604028 0.21 0  0.3983558395975142 0.21 0  0.4058241418345938 0.21 0  0.4132924440716992 0.21 0  0.4207607463087888 0.21 0  0.4282290485459029 0.21 0  0.4356973507830418 0.21 0  0.4431656530201649 0.21 0  0.4506339552573136 0.21 0  0.4581022574944306 0.21 0  0.4655705597315852 0.21 0  0.4730388619686996 0.21 0  0.480507164205851 0.21 0  0.4879754664429498 0.21 0  0.4954437686800938 0.21 0  0.502912070917267 0.21 0  0.5103803731544119 0.21 0  0.5178486753915261 0.21 0  0.5253169776286404 0.21 0  0.5327852798657868 0.21 0  0.5402535821029386 0.21 0  0.54772188434007 0.21 0  0.5551901865771842 0.21 0  0.5626584888143201 0.21 0  0.5701267910514778 0.21 0  0.5775950932886138 0.21 0  0.5850633955257281 0.21 0  0.5925316977628483 0.21 0  0.6 0.2050000000000054 0  0.6 0.1950000000000217 0  0.5925316977628897 0.19 0  0.5850633955257988 0.19 0  0.5775950932887378 0.19 0  0.5701267910515998 0.19 0  0.5626584888145268 0.19 0  0.5551901865773963 0.19 0  0.547721884340339 0.19 0  0.5402535821032429 0.19 0  0.5327852798661811 0.19 0  0.5253169776290537 0.19 0  0.5178486753919799 0.19 0  0.5103803731549078 0.19 0  0.502912070917822 0.19 0  0.4954437686807294 0.19 0  0.4879754664436223 0.19 0  0.4805071642065402 0.19 0  0.4730388619694271 0.19 0  0.4655705597323621 0.19 0  0.4581022574952563 0.19 0  0.4506339552581777 0.19 0  0.4431656530210671 0.19 0  0.4356973507839815 0.19 0  0.4282290485468779 0.19 0  0.4207607463097617 0.19 0  0.4132924440726327 0.19 0  0.4058241418354857 0.19 0  0.3983558395983636 0.19 0  0.3908875373612097 0.19 0  0.3834192351240934 0.19 0  0.3759509328869369 0.19 0  0.3684826306498175 0.19 0  0.361014328412667 0.19 0  0.3535460261755617 0.19 0  0.3460777239384295 0.19 0  0.3386094217012945 0.19 0  0.3311411194641595 0.19 0  0.3236728172270245 0.19 0  0.3162045149898895 0.19 0  0.3087362127527544 0.19 0  0.3012679105156187 0.19 0  0.2937996082784807 0.19 0  0.2863313060413428 0.19 0  0.2788630038042048 0.19 0  0.2713947015670686 0.19 0  0.2639263993299336 0.19 0  0.2564580970927985 0.19 0  0.2607803159922026 0.2000727136295815 0  0.5887803774232762 0.2001272386983733 0  0.5745072403740523 0.2002044435018727 0  0.5511891430099709 0.2001122610077113 0  0.2751288526855082 0.20000000000002 0  0.5365194309847112 0.1999999999999436 0  0.2894621222999649 0.1998691686390484 0  0.5215828265105155 0.1999999999999228 0  0.3127789816668748 0.1998657885438805 0  0.3274069683451451 0.2000000000000796 0  0.5066462220363641 0.199999999999908 0  0.3650630746574081 0.199866017807523 0  0.476773013087985 0.1999999999998713 0  0.3417402379596385 0.1998691686391011 0  0.3796850840047755 0.200000000000134 0  0.4618364086138087 0.1999999999998546 0  0.4917096175621762 0.1999999999998808 0  0.3946216884789568 0.2000000000001512 0  0.446899804139621 0.1999999999998389 0  0.4089549580935208 0.1998691686391595 0  0.4322718174608562 0.200127451265745 0  0.4201487168029707 0.1999966199048527 0  0.3528922713220932 0.2000185703532356 0  0.5633122436674589 0.1999814296467508 0  0.3006558810093873 0.1999966199048318 0  0.5815926498168407 0.1966545283159175 0  0.2677053789419034 0.1964246479135325 0  0.5290511287476175 0.1970915826863981 0  0.5439877332217911 0.197091582686394 0  0.2825131256993216 0.2035478995978015 0  0.3199386661080599 0.202908417313604 0  0.4842413153250809 0.1970915826863873 0  0.5141145242734466 0.1970915826863843 0  0.3722167817676917 0.2029084173136195 0  0.4693047108508938 0.1970915826863783 0  0.3348752705822316 0.202908417313609 0  0.3871533862418661 0.2029084173136212 0  0.4543681063767183 0.1970915826863795 0  0.4991779197992749 0.1970915826863902 0  0.4020059614928624 0.203547899597858 0  0.4394315019025246 0.1970915826863714 0  0.2550657455369551 0.2034088125358657 0  0.2548908499171161 0.1966940311614271 0  0.5946539510196798 0.2024302972968126 0  0.267698176732111 0.2039977513680092 0  0.4261685417851465 0.196409292431739 0  0.3590076176283495 0.196411355804271 0  0.5571672426447437 0.2036011176410121 0  0.3066757059912147 0.1964092924317024 0  0.594380730180568 0.1966558399668133 0  0.4842413153245942 0.2040749161535287 0  0.4693047108503577 0.2040749161535231 0  0.3871533862424271 0.1959250838464788 0  0.372246743208829 0.1959123236376545 0  0.5141145242731028 0.2040749161535395 0  0.4543681063761134 0.2040749161535186 0  0.4019979587101454 0.1959834479682427 0  0.4394608940728603 0.2040870543693135 0  0.5439623148931173 0.2040856076781014 0  0.5290511287473298 0.2040749161535501 0  0.4991779197988497 0.2040749161535382 0  0.3347912413592433 0.1959225448935183 0  0.3199680582793816 0.1959123018030061 0  0.2825051229162361 0.1959834479681729 0  0.3590471196690275 0.2036304442587945 0  0.5571594006495384 0.1963685282145804 0  0.3067669986803285 0.203627750582736 0  0.4262598344738712 0.2036568242185335 0  0.5814408164431408 0.2041285596160068 0  0.5688286748170428 0.1961819304477386 0  0.4145905603063645 0.2038180695522843 0  0.3473758401724931 0.2038180695522752 0  0.2950977245128307 0.2038180695522663 0  0.5688286748170693 0.203818069552238 0  0.2950977245127906 0.1961819304477774 0  0.3473758401723931 0.1961819304478349 0  0.4145905603061963 0.1961819304479011 0  0.2601812407614425 0.2056861609747042
[...]
<PointData  Vectors="f_40-0"> 
<DataArray  type="Float64"  Name="f_40-0"  NumberOfComponents="3" format="ascii">0.0000000000000000e+00 0.0000000000000000e+00 0.0000000000000000e+00  0.0000000000000000e+00 0.0000000000000000e+00 0.0000000000000000e+00  0.0000000000000000e+00 0.0000000000000000e+00 0.0000000000000000e+00  0.0000000000000000e+00 0.0000000000000000e+00 0.0000000000000000e+00  1.2056530387269753e-05 5.2446027234708177e-04 0.0000000000000000e+00  -2.4113695485618316e-05 5.2460090007936907e-04 0.0000000000000000e+00  0.0000000000000000e+00 0.0000000000000000e+00 0.0000000000000000e+00  0.0000000000000000e+00 0.0000000000000000e+00 0.0000000000000000e+00  0.0000000000000000e+00 0.0000000000000000e+00 0.0000000000000000e+00  0.0000000000000000e+00 0.0000000000000000e+00 0.0000000000000000e+00  -6.0072767705908193e-06 5.2453079140770255e-04 0.0000000000000000e+00  7.9591836734548407e-02 0.0000000000000000e+00 0.0000000000000000e+00  1.4693877550994527e-01 0.0000000000000000e+00 0.0000000000000000e+00  2.0204081632617479e-01 0.0000000000000000e+00 0.0000000000000000e+00  2.4489795918330076e-01 0.0000000000000000e+00 0.0000000000000000e+00  2.7551020408131754e-01 0.0000000000000000e+00 0.0000000000000000e+00  2.9387755102022350e-01 0.0000000000000000e+00 0.0000000000000000e+00  3.0000000000000004e-01 0.0000000000000000e+00 0.0000000000000000e+00  2.9387755102059482e-01 0.0000000000000000e+00 0.0000000000000000e+00  2.7551020408195548e-01 0.0000000000000000e+00 0.0000000000000000e+00  2.4489795918409071e-01 0.0000000000000000e+00 0.0000000000000000e+00  2.0204081632692525e-01 0.0000000000000000e+00 0.0000000000000000e+00  1.4693877551058568e-01 0.0000000000000000e+00 0.0000000000000000e+00  7.9591836734909230e-02 0.0000000000000000e+00 0.0000000000000000e+00  0.0000000000000000e+00 0.0000000000000000e+00 0.0000000000000000e+00  0.0000000000000000e+00 0.0000000000000000e+00 0.0000000000000000e+00  0.0000000000000000e+00 0.0000000000000000e+00 0.0000000000000000e+00  0.0000000000000000e+00 0.0000000000000000e+00 0.0000000000000000e+00  0.0000000000000000e+00 0.0000000000000000e+00 0.0000000000000000e+00  0.0000000000000000e+00 0.0000000000000000e+00 0.0000000000000000e+00  0.0000000000000000e+00 0.0000000000000000e+00 0.0000000000000000e+00  0.0000000000000000e+00 0.0000000000000000e+00 0.0000000000000000e+00  0.0000000000000000e+00 0.0000000000000000e+00 0.0000000000000000e+00  0.0000000000000000e+00 0.0000000000000000e+00 0.0000000000000000e+00  0.0000000000000000e+00 0.0000000000000000e+00 0.0000000000000000e+00  0.0000000000000000e+00 0.0000000000000000e+00 0.0000000000000000e+00  0.0000000000000000e+00 0.0000000000000000e+00 0.0000000000000000e+00  0.0000000000000000e+00 0.0000000000000000e+00 0.0000000000000000e+00  0.0000000000000000e+00 0.0000000000000000e+00 0.0000000000000000e+00  0.0000000000000000e+00 0.0000000000000000e+00 0.0000000000000000e+00  0.0000000000000000e+00 0.0000000000000000e+00 0.0000000000000000e+00  0.0000000000000000e+00 0.0000000000000000e+00 0.0000000000000000e+00  0.0000000000000000e+00 0.0000000000000000e+00 0.0000000000000000e+00  0.0000000000000000e+00 0.0000000000000000e+00 0.0000000000000000e+00  0.0000000000000000e+00 0.0000000000000000e+00 0.0000000000000000e+00  0.0000000000000000e+00 0.0000000000000000e+00 0.0000000000000000e+00  0.0000000000000000e+00 0.0000000000000000e+00 0.0000000000000000e+00  0.0000000000000000e+00 0.0000000000000000e+00 0.0000000000000000e+00  0.0000000000000000e+00 0.0000000000000000e+00 0.0000000000000000e+00  0.0000000000000000e+00 0.0000000000000000e+00 0.0000000000000000e+00  0.0000000000000000e+00 0.0000000000000000e+00 0.0000000000000000e+00  0.0000000000000000e+00 0.0000000000000000e+00 0.0000000000000000e+00  0.0000000000000000e+00 0.0000000000000000e+00 0.0000000000000000e+00  0.0000000000000000e+00 0.0000000000000000e+00 0.0000000000000000e+00  0.0000000000000000e+00 0.0000000000000000e+00 0.0000000000000000e+00  0.0000000000000000e+00 0.0000000000000000e+00 0.0000000000000000e+00  0.0000000000000000e+00 0.0000000000000000e+00 0.0000000000000000e+00  0.0000000000000000e+00 0.0000000000000000e+00 0.0000000000000000e+00  0.0000000000000000e+00 0.0000000000000000e+00 0.0000000000000000e+00  0.0000000000000000e+00 0.0000000000000000e+00 0.0000000000000000e+00  0.0000000000000000e+00 0.0000000000000000e+00 0.0000000000000000e+00  0.0000000000000000e+00 0.0000000000000000e+00 0.0000000000000000e+00  2.5059106977344886e-01 -6.3732399856237694e-03 0.0000000000000000e+00  2.7147820141505458e-01 2.6931451936548340e-03 0.0000000000000000e+00  2.5530451843868585e-01 8.6615205519390802e-03 0.0000000000000000e+00  0.0000000000000000e+00 0.0000000000000000e+00 0.0000000000000000e+00  0.0000000000000000e+00 0.0000000000000000e+00 0.0000000000000000e+00  0.0000000000000000e+00 0.0000000000000000e+00 0.0000000000000000e+00  0.0000000000000000e+00 0.0000000000000000e+00 0.0000000000000000e+00  0.0000000000000000e+00 0.0000000000000000e+00 0.0000000000000000e+00  0.0000000000000000e+00 0.0000000000000000e+00 0.0000000000000000e+00  0.0000000000000000e+00 0.0000000000000000e+00 0.0000000000000000e+00  0.0000000000000000e+00 0.0000000000000000e+00 0.0000000000000000e+00  0.0000000000000000e+00 0.0000000000000000e+00 0.0000000000000000e+00  0.0000000000000000e+00 0.0000000000000000e+00 0.0000000000000000e+00  0.0000000000000000e+00 0.0000000000000000e+00 0.0000000000000000e+00  0.0000000000000000e+00 0.0000000000000000e+00 0.0000000000000000e+00  0.0000000000000000e+00 0.0000000000000000e+00 0.0000000000000000e+00  0.0000000000000000e+00 0.0000000000000000e+00 0.0000000000000000e+00  0.0000000000000000e+00 0.0000000000000000e+00 0.0000000000000000e+00  0.0000000000000000e+00 0.0000000000000000e+00 0.0000000000000000e+00  0.0000000000000000e+00 0.0000000000000000e+00 0.0000000000000000e+00  0.0000000000000000e+00 0.0000000000000000e+00 0.0000000000000000e+00  0.0000000000000000e+00 0.0000000000000000e+00 0.0000000000000000e+00  0.0000000000000000e+00 0.0000000000000000e+00 0.0000000000000000e+00  0.0000000000000000e+00 0.0000000000000000e+00 0.0000000000000000e+00  0.0000000000000000e+00 0.0000000000000000e+00 0.0000000000000000e+00  0.0000000000000000e+00 0.0000000000000000e+00 0.0000000000000000e+00  0.0000000000000000e+00 0.0000000000000000e+00 0.0000000000000000e+00  0.0000000000000000e+00 0.0000000000000000e+00 0.0000000000000000e+00  0.0000000000000000e+00 0.0000000000000000e+00 0.0000000000000000e+00  0.0000000000000000e+00 0.0000000000000000e+00 0.0000000000000000e+00  0.0000000000000000e+00 0.0000000000000000e+00 0.0000000000000000e+00  0.0000000000000000e+00 0.0000000000000000e+00 0.0000000000000000e+00  0.0000000000000000e+00 0.0000000000000000e+00 0.0000000000000000e+00  0.0000000000000000e+00 0.0000000000000000e+00 0.0000000000000000e+00  0.0000000000000000e+00 0.0000000000000000e+00 0.0000000000000000e+00  0.0000000000000000e+00 0.0000000000000000e+00 0.0000000000000000e+00  0.0000000000000000e+00 0.0000000000000000e+00 0.0000000000000000e+00  0.0000000000000000e+00 0.0000000000000000e+00 0.0000000000000000e+00  0.0000000000000000e+00 0.0000000000000000e+00 0.0000000000000000e+00  0.0000000000000000e+00 0.0000000000000000e+00 0.0000000000000000e+00  0.0000000000000000e+00 0.0000000000000000e+00 0.0000000000000000e+00  0.0000000000000000e+00 0.0000000000000000e+00 0.0000000000000000e+00  0.0000000000000000e+00 0.0000000000000000e+00 0.0000000000000000e+00  0.0000000000000000e+00 0.0000000000000000e+00 0.0000000000000000e+00  0.0000000000000000e+00 0.0000000000000000e+00 0.0000000000000000e+00  0.0000000000000000e+00 0.0000000000000000e+00 0.0000000000000000e+00  0.0000000000000000e+00 0.0000000000000000e+00 0.0000000000000000e+00  0.0000000000000000e+00 0.0000000000000000e+00 0.0000000000000000e+00  0.0000000000000000e+00 0.0000000000000000e+00 0.0000000000000000e+00  0.0000000000000000e+00 0.0000000000000000e+00 0.0000000000000000e+00  0.0000000000000000e+00 0.0000000000000000e+00 0.0000000000000000e+00  0.0000000000000000e+00 0.0000000000000000e+00 0.0000000000000000e+00  0.0000000000000000e+00 0.0000000000000000e+00 0.0000000000000000e+00  0.0000000000000000e+00 0.0000000000000000e+00 0.0000000000000000e+00  0.0000000000000000e+00 0.0000000000000000e+00 0.0000000000000000e+00  0.0000000000000000e+00 0.0000000000000000e+00 0.0000000000000000e+00  0.0000000000000000e+00 0.0000000000000000e+00 0.0000000000000000e+00  0.0000000000000000e+00 0.0000000000000000e+00 0.0000000000000000e+00  0.0000000000000000e+00 0.0000000000000000e+00 0.0000000000000000e+00  0.0000000000000000e+00 0.0000000000000000e+00 0.0000000000000000e+00  0.0000000000000000e+00 0.0000000000000000e+00 0.0000000000000000e+00  0.0000000000000000e+00 0.0000000000000000e+00 0.0000000000000000e+00  0.0000000000000000e+00 0.0000000000000000e+00 0.0000000000000000e+00  0.0000000000000000e+00 0.0000000000000000e+00 0.0000000000000000e+00  0.0000000000000000e+00 0.0000000000000000e+00 0.0000000000000000e+00  0.0000000000000000e+00 0.0000000000000000e+00 0.0000000000000000e+00  0.0000000000000000e+00 0.0000000000000000e+00 0.0000000000000000e+00  0.0000000000000000e+00 0.0000000000000000e+00 0.0000000000000000e+00  0.0000000000000000e+00 0.0000000000000000e+00 0.0000000000000000e+00  0.0000000000000000e+00 0.0000000000000000e+00 0.0000000000000000e+00  0.0000000000000000e+00 0.0000000000000000e+00 0.0000000000000000e+00  0.0000000000000000e+00 0.0000000000000000e+00 0.0000000000000000e+00  0.0000000000000000e+00 0.0000000000000000e+00 0.0000000000000000e+00  0.0000000000000000e+00 0.0000000000000000e+00 0.0000000000000000e+00  0.0000000000000000e+00 0.0000000000000000e+00 0.0000000000000000e+00  0.0000000000000000e+00 0.0000000000000000e+00 0.0000000000000000e+00  0.0000000000000000e+00 0.0000000000000000e+00 0.0000000000000000e+00  0.0000000000000000e+00 0.0000000000000000e+00 0.0000000000000000e+00  0.0000000000000000e+00 0.0000000000000000e+00 0.0000000000000000e+00  0.0000000000000000e+00 0.0000000000000000e+00 0.0000000000000000e+00  0.0000000000000000e+00 0.0000000000000000e+00 0.0000000000000000e+00  -1.6766541231142809e-06 1.4831273842946439e-06 0.0000000000000000e+00  -3.5202350872336198e-06 3.3163907456915701e-06 0.0000000000000000e+00  -5.1399457983831791e-06 6.2104197259948480e-06 0.0000000000000000e+00  -6.8368417719782218e-06 1.0223146465739937e-05 0.0000000000000000e+00  -8.2508716356095221e-06 1.5119106634159973e-05 0.0000000000000000e+00  -9.7838386127989572e-06 2.0980198573675040e-05 0.0000000000000000e+00  -1.1024414055938619e-05 2.7516455946838914e-05 0.0000000000000000e+00  -1.2199170943915181e-05 3.4921935518402857e-05 0.0000000000000000e+00  -1.3480783515362950e-05 4.2962810134588042e-05 0.0000000000000000e+00  -1.4469584449105025e-05 5.1633131042828226e-05 0.0000000000000000e+00  -1.5595203788283695e-05 6.0914519065297871e-05 0.0000000000000000e+00  -1.6454289252547521e-05 7.0713480357357920e-05 0.0000000000000000e+00  -1.7394275391190544e-05 8.1010372155628483e-05 0.0000000000000000e+00  -1.8149312620490034e-05 9.1684258656968306e-05 0.0000000000000000e+00  -1.8853537438434936e-05 1.0280608956050167e-04 0.0000000000000000e+00  -1.9592976190131566e-05 1.1425460873611022e-04 0.0000000000000000e+00  -2.0164210900765509e-05 1.2601064937964432e-04 0.0000000000000000e+00  -2.0778781709866180e-05 1.3806925263505263e-04 0.0000000000000000e+00  -2.1246721527215907e-05 1.5035725403306357e-04 0.0000000000000000e+00  -2.1739642031965247e-05 1.6287412700578317e-04 0.0000000000000000e+00  -2.2128407110701608e-05 1.7557353923772285e-04 0.0000000000000000e+00  -2.2511873545339923e-05 1.8845415867941990e-04 0.0000000000000000e+00  -2.2819230469379092e-05 2.0144893705258227e-04 0.0000000000000000e+00  -2.3089857850927977e-05 2.1458252649404002e-04 0.0000000000000000e+00  -2.3353795318945784e-05 2.2780621475021226e-04 0.0000000000000000e+00  -2.3554773472266540e-05 2.4111155753286915e-04 0.0000000000000000e+00  -2.3736292729258074e-05 2.5449704666852642e-04 0.0000000000000000e+00  -2.3877452921100081e-05 2.6791670953632698e-04 0.0000000000000000e+00  -2.4003749142510684e-05 2.8139088849795643e-04 0.0000000000000000e+00  -2.4097185918721743e-05 2.9488211137745722e-04 0.0000000000000000e+00  -2.4175595735183689e-05 3.0840399832662320e-04 0.0000000000000000e+00  -2.4229432023944340e-05 3.2192692385488625e-04 0.0000000000000000e+00  -2.4271307494690160e-05 3.3546346937880344e-04 0.0000000000000000e+00  -2.4292530748526726e-05 3.4899508583525443e-04 0.0000000000000000e+00  -2.4307110128070654e-05 3.6253058658290656e-04 0.0000000000000000e+00  -2.4310120666519873e-05 3.7605684763163312e-04 0.0000000000000000e+00  -2.4308462017243774e-05 3.8957863535251492e-04 0.0000000000000000e+00  -2.4299066552825380e-05 4.0309287321355460e-04 0.0000000000000000e+00  -2.4284672309260848e-05 4.1660303890366120e-04 0.0000000000000000e+00  -2.4267742372823530e-05 4.3010801019936572e-04 0.0000000000000000e+00  -2.4247352879608723e-05 4.4360665613492784e-04 0.0000000000000000e+00  -2.4226679533876839e-05 4.5710403528880427e-04 0.0000000000000000e+00  -2.4203175118147531e-05 4.7059669062114810e-04 0.0000000000000000e+00  -2.4176960090167819e-05 4.8409271402869445e-04 0.0000000000000000e+00  -2.4153828573521339e-05 4.9758899037802718e-04 0.0000000000000000e+00  -2.4126402360139136e-05 5.1108570160115889e-04 0.0000000000000000e+00  -1.5050002176605123e-05 5.2456449381420918e-04 0.0000000000000000e+00  3.0283538843448463e-06 5.2449636842845794e-04 0.0000000000000000e+00  1.2029678452983284e-05 5.1096758593678236e-04 0.0000000000000000e+00  1.2001724527565718e-05 4.9746848060121523e-04 0.0000000000000000e+00  1.1973124146120960e-05 4.8396558372569006e-04 0.0000000000000000e+00  1.1952087506407409e-05 4.7046536385381637e-04 0.0000000000000000e+00  1.1931437829330896e-05 4.5696534067030147e-04 0.0000000000000000e+00  1.1917702485717889e-05 4.4346083698835001e-04 0.0000000000000000e+00  1.1906842919062209e-05 4.2995413460599684e-04 0.0000000000000000e+00  1.1903548050398842e-05 4.1644126089520760e-04 0.0000000000000000e+00  1.1903089848136412e-05 4.0292418521280845e-04 0.0000000000000000e+00  1.1909483728651525e-05 3.8939801982078824e-04 0.0000000000000000e+00  1.1919294821276367e-05 3.7586688001376204e-04 0.0000000000000000e+00  1.1935264990667423e-05 3.6232519109166597e-04 0.0000000000000000e+00  1.1955036300698849e-05 3.4877999653454224e-04 0.0000000000000000e+00  1.1979075794335535e-05 3.3522909261440853e-04 0.0000000000000000e+00  1.2002751839174295e-05 3.2168109268027620e-04 0.0000000000000000e+00  1.2031124381513084e-05 3.0813454221938821e-04 0.0000000000000000e+00  1.2053576762072619e-05 2.9460259951974356e-04 0.0000000000000000e+00  1.2083098405822747e-05 2.8108373481579318e-04 0.0000000000000000e+00  1.2098233143850256e-05 2.6759819772569099e-04 0.0000000000000000e+00  1.2125745764447687e-05 2.5414899336619111e-04 0.0000000000000000e+00  1.2122269935736000e-05 2.4075469189478805e-04 0.0000000000000000e+00  1.2139233503146531e-05 2.2742245865334040e-04 0.0000000000000000e+00  1.2113524399587274e-05 2.1417746510754378e-04 0.0000000000000000e+00  1.2104241492621405e-05 2.0102217086209850e-04 0.0000000000000000e+00  1.2082581626966010e-05 1.8800739554897705e-04 0.0000000000000000e+00  1.2012170826962835e-05 1.7510747971875027e-04 0.0000000000000000e+00  1.1943831523113225e-05 1.6239025271950927e-04 0.0000000000000000e+00  1.1833996903291115e-05 1.4985183486814410e-04 0.0000000000000000e+00  1.1719135622669163e-05 1.3754424448723978e-04 0.0000000000000000e+00  1.1551738348752228e-05 1.2547535273580508e-04 0.0000000000000000e+00  1.1376062558223680e-05 1.1368663595168924e-04 0.0000000000000000e+00  1.1097163636137623e-05 1.0225039998563946e-04 0.0000000000000000e+00  1.0863080753261197e-05 9.1112380204037027e-05 0.0000000000000000e+00  1.0594645498430786e-05 8.0436975422870405e-05 0.0000000000000000e+00  1.0179924914388787e-05 7.0105376135466964e-05 0.0000000000000000e+00  9.7773021030586300e-06 6.0319490853229769e-05 0.0000000000000000e+00  9.2602345034467322e-06 5.1034082864962680e-05 0.0000000000000000e+00  8.7393455619018664e-06 4.2338992898425378e-05 0.0000000000000000e+00  8.0135970427174698e-06 3.4342336252055894e-05 0.0000000000000000e+00  7.3863719339942785e-06 2.6930074690738106e-05 0.0000000000000000e+00  6.6962688835467763e-06 2.0401265454089811e-05 0.0000000000000000e+00  5.7354060150754229e-06 1.4525529714998169e-05 0.0000000000000000e+00  4.8317316262969748e-06 9.6165482069217208e-06 0.0000000000000000e+00  3.6667536260950251e-06 5.6615163764113684e-06 0.0000000000000000e+00  2.6003706393831067e-06 2.7672772457083695e-06 0.0000000000000000e+00  1.2393567271923254e-06 9.6169399724560099e-07 0.0000000000000000e+00  -3.2315413022052273e-07 1.3411838703485239e-06 0.0000000000000000e+00  -6.2845740068062262e-06 5.0424693773343644e-04 0.0000000000000000e+00  -6.4779853485983198e-06 4.7845065840523924e-04 0.0000000000000000e+00  -6.3719500696144963e-06 4.3630362139329698e-04 0.0000000000000000e+00  -8.5336087019545168e-07 7.1456797391374865e-06 0.0000000000000000e+00  -6.1877438636126128e-06 4.0976929533179178e-04 0.0000000000000000e+00  -1.2856581034593557e-06 1.6585013123460199e-05 0.0000000000000000e+00  -6.1896301459033754e-06 3.8272837889838466e-04 0.0000000000000000e+00  -2.0858589376402419e-06 3.8440935792151842e-05 0.0000000000000000e+00  -2.7507782253877447e-06 5.5541778678010603e-05 0.0000000000000000e+00  -6.1680483324059808e-06 3.5565920036848800e-04 0.0000000000000000e+00  -3.7825791485216696e-06 1.0846033458263147e-04 0.0000000000000000e+00  -6.0338585188416954e-06 3.0149053748930904e-04 0.0000000000000000e+00  -3.0676056721768705e-06 7.4353977415095364e-05 0.0000000000000000e+00  -4.4049177663503839e-06 1.3156648761861845e-04 0.0000000000000000e+00  -5.9110061456323960e-06 2.7446781073025162e-04 0.0000000000000000e+00  -6.1179874923143725e-06 3.2857036892026308e-04 0.0000000000000000e+00  -4.7882578584575551e-06 1.5620457853733898e-04 0.0000000000000000e+00  -5.7444580728941510e-06 2.4757922220668024e-04 0.0000000000000000e+00  -4.8873316663094187e-06 1.8061268684264116e-04 0.0000000000000000e+00  -5.7641164291605701e-06 2.2147186782553929e-04 0.0000000000000000e+00  -5.3211134204492669e-06 2.0010243636623014e-04 0.0000000000000000e+00  -3.6334585508828690e-06 9.0251683852099880e-05 0.0000000000000000e+00  -6.1064865149386640e-06 4.5821684783808111e-04 0.0000000000000000e+00  -1.7820664078632785e-06 2.6284973607369582e-05 0.0000000000000000e+00  -3.5732501848114975e-08 4.9123412378780868e-04 0.0000000000000000e+00  7.6231816532038918e-07 3.6758984946438014e-06 0.0000000000000000e+00  -9.2563962905870261e-07 3.9622714731748826e-04 0.0000000000000000e+00  -9.1833584574572491e-07 4.2325727638625515e-04 0.0000000000000000e+00  -3.3717606170763963e-06 1.1799081915262227e-05 0.0000000000000000e+00  -5.8319771888295469e-06 4.6663211538429423e-05 0.0000000000000000e+00  -8.1440411540628728e-07 3.1499135309297411e-04 0.0000000000000000e+00  -9.1288042664736167e-07 3.6916917029464278e-04 0.0000000000000000e+00  -8.7552816907397665e-06 1.1973029951094977e-04 0.0000000000000000e+00  -7.2682490116182679e-07 2.8792852650677656e-04 0.0000000000000000e+00  -6.7756601733109031e-06 6.5248424899606516e-05 0.0000000000000000e+00  -9.3658870872771321e-06 1.4386731187360124e-04 0.0000000000000000e+00  -6.1193826606225821e-07 2.6095884329667087e-04 0.0000000000000000e+00  -8.7621272080468665e-07 3.4208409622569802e-04 0.0000000000000000e+00  -1.0968315733038929e-05 1.6880536356367079e-04 0.0000000000000000e+00  -4.7093998881888204e-07 2.3416828615987684e-04 0.0000000000000000e+00  -3.7186601967086457e-07 3.7496262027259208e-07 0.0000000000000000e+00  1.1136729377006543e-07 2.2588406566209308e-07 0.0000000000000000e+00  -1.0424057879004206e-05 5.1487845585367000e-04 0.0000000000000000e+00  -2.0743500586920084e-06 3.9010469678343607e-06 0.0000000000000000e+00  8.7225584718392148e-07 2.1060783885718152e-04 0.0000000