<?xml version="1.0"?>
<VTKFile type="UnstructuredGrid"  version="0.1"  >
<UnstructuredGrid>
<Piece  NumberOfPoints="1419" NumberOfCells="2698">
<Points>
<DataArray  type="Float64"  NumberOfComponents="3"  format="ascii">0 0 0  0 0.41 0  2.5 0 0  2.5 0.41 0  0.6 0.19 0  0.6 0.21 0  0.25 0.2 0  0.15 0.2 0  0.2489897948556636 0.21 0  0.2489897948556636 0.19 0  0.6 0.2 0  0 0.3807142857143437 0  0 0.3514285714286952 0  0 0.3221428571430699 0  0 0.29285714285744 0  0 0.2635714285718054 0  0 0.2342857142861561 0  0 0.2050000000005308 0  0 0.175714285714732 0  0 0.1464285714289574 0  0 0.1171428571431897 0  0 0.08785714285737878 0  0 0.05857142857161107 0  0 0.02928571428580012 0  0.03015443760436003 0 0  0.06140001986583606 0 0  0.09377624077125973 0 0  0.1273239957535082 0 0  0.1620856860351972 0 0  0.1981052433264291 0 0  0.235428184091502 0 0  0.2741016576309132 0 0  0.3141745521465447 0 0  0.3556974926295285 0 0  0.3987229542472677 0 0  0.4433053055141081 0 0  0.4895008759286886 0 0  0.5373680609405097 0 0  0.5869673343216626 0 0  0.6383613676634521 0 0  0.6916151138468254 0 0  0.7467958595648856 0 0  0.8039733463919316 0 0  0.8632198139502143 0 0  0.9246101326867038 0 0  0.9882218810934433 0 0  1.054135445558498 0 0  1.122434100542598 0 0  1.193204177141305 0 0  1.266535089879536 0 0  1.342519516046404 0 0  1.421253448503939 0 0  1.502836389106271 0 0  1.587371439758838 0 0  1.674965418777374 0 0  1.765729001825544 0 0  1.859776908880082 0 0  1.957227977487062 0 0  2.058205329869943 0 0  2.162836591189951 0 0  2.271253957290865 0 0  2.383594446803425 0 0  2.5 0.1024999999997612 0  2.5 0.2049999999994743 0  2.5 0.3074999999997183 0  2.383594446803656 0.41 0  2.271253957291315 0.41 0  2.162836591190598 0.41 0  2.058205329870775 0.41 0  1.957227977488067 0.41 0  1.859776908881246 0.41 0  1.765729001826854 0.41 0  1.674965418778818 0.41 0  1.58737143976041 0.41 0  1.502836389107956 0.41 0  1.421253448505726 0.41 0  1.342519516048286 0.41 0  1.266535089881505 0.41 0  1.193204177143353 0.41 0  1.122434100544716 0.41 0  1.05413544556068 0.41 0  0.9882218810956305 0.41 0  0.9246101326886647 0.41 0  0.8632198139519631 0.41 0  0.8039733463934788 0.41 0  0.7467958595662458 0.41 0  0.6916151138480078 0.41 0  0.6383613676644679 0.41 0  0.5869673343225223 0.41 0  0.5373680609412221 0.41 0  0.4895008759292634 0.41 0  0.4433053055145528 0.41 0  0.3987229542475914 0.41 0  0.3556974926297398 0.41 0  0.3141745521466497 0.41 0  0.2741016576310038 0.41 0  0.2354281840915826 0.41 0  0.1981052433265003 0.41 0  0.1620856860352591 0.41 0  0.1273239957535623 0.41 0  0.09377624077128965 0.41 0  0.06140001986584975 0.41 0  0.03015443760436654 0.41 0  0.2497468076502589 0.2050254481002335 0  0.2497468076502614 0.1949745518997913 0  0.2469965252529372 0.1829317073451959 0  0.2439893735792749 0.1762316384219906 0  0.2400332147834255 0.1700443375285386 0  0.2352133972704371 0.1645032867342007 0  0.2296339016332438 0.1597280261969788 0  0.2234150974217223 0.1558215752574715 0  0.2166911463437691 0.1528682099456123 0  0.2096071079204251 0.1509316448471593 0  0.2023158100364996 0.1500536585536553 0  0.194974551899914 0.1502531923497262 0  0.1877417105387872 0.1515259415822739 0  0.1807733240461124 0.153844448527136 0  0.1742197252835808 0.15715869474974 0  0.1682222986673531 0.1613971801805478 0  0.162910430003803 0.1664684656256651 0  0.1583987151779087 0.1722631454351573 0  0.1547844879126891 0.178656207771761 0  0.1521457199348551 0.1855097315605723 0  0.1505393388476355 0.1926758619366523 0  0.1505393388476328 0.2073241380633295 0  0.1521457199348437 0.2144902684393899 0  0.1547844879126531 0.221343792228163 0  0.1583987151778488 0.2277368545647528 0  0.1629104300036858 0.2335315343742052 0  0.1682222986671726 0.2386028198193036 0  0.1742197252833576 0.2428413052501257 0  0.1807733240458683 0.2461555514727623 0  0.1877417105384929 0.2484740584176516 0  0.1949745518995776 0.2497468076502398 0  0.202315810036185 0.2499463414463592 0  0.2096071079201568 0.2490683551528932 0  0.2166911463435495 0.2471317900544655 0  0.2234150974215506 0.2441784247426195 0  0.2296339016331197 0.2402719738031125 0  0.2352133972703547 0.2354967132658811 0  0.2400332147833751 0.2299556624715287 0  0.2439893735792577 0.2237683615780412 0  0.246996525252926 0.2170682926548348 0  0.25645809709277 0.21 0  0.2639263993298655 0.21 0  0.271394701566961 0.21 0  0.2788630038040554 0.21 0  0.2863313060411479 0.21 0  0.2937996082782405 0.21 0  0.301267910515333 0.21 0  0.3087362127524279 0.21 0  0.3162045149895234 0.21 0  0.3236728172265972 0.21 0  0.3311411194636928 0.21 0  0.3386094217007701 0.21 0  0.3460777239378666 0.21 0  0.3535460261749672 0.21 0  0.3610143284120516 0.21 0  0.3684826306491596 0.21 0  0.3759509328862226 0.21 0  0.383419235123329 0.21 0  0.3908875373604028 0.21 0  0.3983558395975142 0.21 0  0.4058241418345938 0.21 0  0.4132924440716992 0.21 0  0.4207607463087888 0.21 0  0.4282290485459029 0.21 0  0.4356973507830418 0.21 0  0.4431656530201649 0.21 0  0.4506339552573136 0.21 0  0.4581022574944306 0.21 0  0.4655705597315852 0.21 0  0.4730388619686996 0.21 0  0.480507164205851 0.21 0  0.4879754664429498 0.21 0  0.4954437686800938 0.21 0  0.502912070917267 0.21 0  0.5103803731544119 0.21 0  0.5178486753915261 0.21 0  0.5253169776286404 0.21 0  0.5327852798657868 0.21 0  0.5402535821029386 0.21 0  0.54772188434007 0.21 0  0.5551901865771842 0.21 0  0.5626584888143201 0.21 0  0.5701267910514778 0.21 0  0.5775950932886138 0.21 0  0.5850633955257281 0.21 0  0.5925316977628483 0.21 0  0.6 0.2050000000000054 0  0.6 0.1950000000000217 0  0.5925316977628897 0.19 0  0.5850633955257988 0.19 0  0.5775950932887378 0.19 0  0.5701267910515998 0.19 0  0.5626584888145268 0.19 0  0.5551901865773963 0.19 0  0.547721884340339 0.19 0  0.5402535821032429 0.19 0  0.5327852798661811 0.19 0  0.5253169776290537 0.19 0  0.5178486753919799 0.19 0  0.5103803731549078 0.19 0  0.502912070917822 0.19 0  0.4954437686807294 0.19 0  0.4879754664436223 0.19 0  0.4805071642065402 0.19 0  0.4730388619694271 0.19 0  0.4655705597323621 0.19 0  0.4581022574952563 0.19 0  0.4506339552581777 0.19 0  0.4431656530210671 0.19 0  0.4356973507839815 0.19 0  0.4282290485468779 0.19 0  0.4207607463097617 0.19 0  0.4132924440726327 0.19 0  0.4058241418354857 0.19 0  0.3983558395983636 0.19 0  0.3908875373612097 0.19 0  0.3834192351240934 0.19 0  0.3759509328869369 0.19 0  0.3684826306498175 0.19 0  0.361014328412667 0.19 0  0.3535460261755617 0.19 0  0.3460777239384295 0.19 0  0.3386094217012945 0.19 0  0.3311411194641595 0.19 0  0.3236728172270245 0.19 0  0.3162045149898895 0.19 0  0.3087362127527544 0.19 0  0.3012679105156187 0.19 0  0.2937996082784807 0.19 0  0.2863313060413428 0.19 0  0.2788630038042048 0.19 0  0.2713947015670686 0.19 0  0.2639263993299336 0.19 0  0.2564580970927985 0.19 0  0.2607803159922026 0.2000727136295815 0  0.5887803774232762 0.2001272386983733 0  0.5745072403740523 0.2002044435018727 0  0.5511891430099709 0.2001122610077113 0  0.2751288526855082 0.20000000000002 0  0.5365194309847112 0.1999999999999436 0  0.2894621222999649 0.1998691686390484 0  0.5215828265105155 0.1999999999999228 0  0.3127789816668748 0.1998657885438805 0  0.3274069683451451 0.2000000000000796 0  0.5066462220363641 0.199999999999908 0  0.3650630746574081 0.199866017807523 0  0.476773013087985 0.1999999999998713 0  0.3417402379596385 0.1998691686391011 0  0.3796850840047755 0.200000000000134 0  0.4618364086138087 0.1999999999998546 0  0.4917096175621762 0.1999999999998808 0  0.3946216884789568 0.2000000000001512 0  0.446899804139621 0.1999999999998389 0  0.4089549580935208 0.1998691686391595 0  0.4322718174608562 0.200127451265745 0  0.4201487168029707 0.1999966199048527 0  0.3528922713220932 0.2000185703532356 0  0.5633122436674589 0.1999814296467508 0  0.3006558810093873 0.1999966199048318 0  0.5815926498168407 0.1966545283159175 0  0.2677053789419034 0.1964246479135325 0  0.5290511287476175 0.1970915826863981 0  0.5439877332217911 0.197091582686394 0  0.2825131256993216 0.2035478995978015 0  0.3199386661080599 0.202908417313604 0  0.4842413153250809 0.1970915826863873 0  0.5141145242734466 0.1970915826863843 0  0.3722167817676917 0.2029084173136195 0  0.4693047108508938 0.1970915826863783 0  0.3348752705822316 0.202908417313609 0  0.3871533862418661 0.2029084173136212 0  0.4543681063767183 0.1970915826863795 0  0.4991779197992749 0.1970915826863902 0  0.4020059614928624 0.203547899597858 0  0.4394315019025246 0.1970915826863714 0  0.2550657455369551 0.2034088125358657 0  0.2548908499171161 0.1966940311614271 0  0.5946539510196798 0.2024302972968126 0  0.267698176732111 0.2039977513680092 0  0.4261685417851465 0.196409292431739 0  0.3590076176283495 0.196411355804271 0  0.5571672426447437 0.2036011176410121 0  0.3066757059912147 0.1964092924317024 0  0.594380730180568 0.1966558399668133 0  0.4842413153245942 0.2040749161535287 0  0.4693047108503577 0.2040749161535231 0  0.3871533862424271 0.1959250838464788 0  0.372246743208829 0.1959123236376545 0  0.5141145242731028 0.2040749161535395 0  0.4543681063761134 0.2040749161535186 0  0.4019979587101454 0.1959834479682427 0  0.4394608940728603 0.2040870543693135 0  0.5439623148931173 0.2040856076781014 0  0.5290511287473298 0.2040749161535501 0  0.4991779197988497 0.2040749161535382 0  0.3347912413592433 0.1959225448935183 0  0.3199680582793816 0.1959123018030061 0  0.2825051229162361 0.1959834479681729 0  0.3590471196690275 0.2036304442587945 0  0.5571594006495384 0.1963685282145804 0  0.3067669986803285 0.203627750582736 0  0.4262598344738712 0.2036568242185335 0  0.5814408164431408 0.2041285596160068 0  0.5688286748170428 0.1961819304477386 0  0.4145905603063645 0.2038180695522843 0  0.3473758401724931 0.2038180695522752 0  0.2950977245128307 0.2038180695522663 0  0.5688286748170693 0.203818069552238 0  0.2950977245127906 0.1961819304477774 0  0.3473758401723931 0.1961819304478349 0  0.4145905603061963 0.1961819304479011 0  0.2601812407614425 0.2056861609747042
[...]
<PointData  Vectors="f_40-0"> 
<DataArray  type="Float64"  Name="f_40-0"  NumberOfComponents="3" format="ascii">0.0000000000000000e+00 0.0000000000000000e+00 0.0000000000000000e+00  0.0000000000000000e+00 0.0000000000000000e+00 0.0000000000000000e+00  0.0000000000000000e+00 0.0000000000000000e+00 0.0000000000000000e+00  0.0000000000000000e+00 0.0000000000000000e+00 0.0000000000000000e+00  1.0661903222542942e-05 -4.8199413979836968e-04 0.0000000000000000e+00  4.9342516222712231e-05 -4.8193608778379323e-04 0.0000000000000000e+00  0.0000000000000000e+00 0.0000000000000000e+00 0.0000000000000000e+00  0.0000000000000000e+00 0.0000000000000000e+00 0.0000000000000000e+00  0.0000000000000000e+00 0.0000000000000000e+00 0.0000000000000000e+00  0.0000000000000000e+00 0.0000000000000000e+00 0.0000000000000000e+00  2.9774680764490779e-05 -4.8195203578382941e-04 0.0000000000000000e+00  5.0296988723019895e-02 0.0000000000000000e+00 0.0000000000000000e+00  9.2855979180965970e-02 0.0000000000000000e+00 0.0000000000000000e+00  1.2767697137382822e-01 0.0000000000000000e+00 0.0000000000000000e+00  1.5475996530164698e-01 0.0000000000000000e+00 0.0000000000000000e+00  1.7410496096441874e-01 0.0000000000000000e+00 0.0000000000000000e+00  1.8571195836214230e-01 0.0000000000000000e+00 0.0000000000000000e+00  1.8958095749480613e-01 0.0000000000000000e+00 0.0000000000000000e+00  1.8571195836237700e-01 0.0000000000000000e+00 0.0000000000000000e+00  1.7410496096482181e-01 0.0000000000000000e+00 0.0000000000000000e+00  1.5475996530214617e-01 0.0000000000000000e+00 0.0000000000000000e+00  1.2767697137430245e-01 0.0000000000000000e+00 0.0000000000000000e+00  9.2855979181370646e-02 0.0000000000000000e+00 0.0000000000000000e+00  5.0296988723247907e-02 0.0000000000000000e+00 0.0000000000000000e+00  0.0000000000000000e+00 0.0000000000000000e+00 0.0000000000000000e+00  0.0000000000000000e+00 0.0000000000000000e+00 0.0000000000000000e+00  0.0000000000000000e+00 0.0000000000000000e+00 0.0000000000000000e+00  0.0000000000000000e+00 0.0000000000000000e+00 0.0000000000000000e+00  0.0000000000000000e+00 0.0000000000000000e+00 0.0000000000000000e+00  0.0000000000000000e+00 0.0000000000000000e+00 0.0000000000000000e+00  0.0000000000000000e+00 0.0000000000000000e+00 0.0000000000000000e+00  0.0000000000000000e+00 0.0000000000000000e+00 0.0000000000000000e+00  0.0000000000000000e+00 0.0000000000000000e+00 0.0000000000000000e+00  0.0000000000000000e+00 0.0000000000000000e+00 0.0000000000000000e+00  0.0000000000000000e+00 0.0000000000000000e+00 0.0000000000000000e+00  0.0000000000000000e+00 0.0000000000000000e+00 0.0000000000000000e+00  0.0000000000000000e+00 0.0000000000000000e+00 0.0000000000000000e+00  0.0000000000000000e+00 0.0000000000000000e+00 0.0000000000000000e+00  0.0000000000000000e+00 0.0000000000000000e+00 0.0000000000000000e+00  0.0000000000000000e+00 0.0000000000000000e+00 0.0000000000000000e+00  0.0000000000000000e+00 0.0000000000000000e+00 0.0000000000000000e+00  0.0000000000000000e+00 0.0000000000000000e+00 0.0000000000000000e+00  0.0000000000000000e+00 0.0000000000000000e+00 0.0000000000000000e+00  0.0000000000000000e+00 0.0000000000000000e+00 0.0000000000000000e+00  0.0000000000000000e+00 0.0000000000000000e+00 0.0000000000000000e+00  0.0000000000000000e+00 0.0000000000000000e+00 0.0000000000000000e+00  0.0000000000000000e+00 0.0000000000000000e+00 0.0000000000000000e+00  0.0000000000000000e+00 0.0000000000000000e+00 0.0000000000000000e+00  0.0000000000000000e+00 0.0000000000000000e+00 0.0000000000000000e+00  0.0000000000000000e+00 0.0000000000000000e+00 0.0000000000000000e+00  0.0000000000000000e+00 0.0000000000000000e+00 0.0000000000000000e+00  0.0000000000000000e+00 0.0000000000000000e+00 0.0000000000000000e+00  0.0000000000000000e+00 0.0000000000000000e+00 0.0000000000000000e+00  0.0000000000000000e+00 0.0000000000000000e+00 0.0000000000000000e+00  0.0000000000000000e+00 0.0000000000000000e+00 0.0000000000000000e+00  0.0000000000000000e+00 0.0000000000000000e+00 0.0000000000000000e+00  0.0000000000000000e+00 0.0000000000000000e+00 0.0000000000000000e+00  0.0000000000000000e+00 0.0000000000000000e+00 0.0000000000000000e+00  0.0000000000000000e+00 0.0000000000000000e+00 0.0000000000000000e+00  0.0000000000000000e+00 0.0000000000000000e+00 0.0000000000000000e+00  0.0000000000000000e+00 0.0000000000000000e+00 0.0000000000000000e+00  0.0000000000000000e+00 0.0000000000000000e+00 0.0000000000000000e+00  1.7610817190978756e-01 1.6953675223532686e-03 0.0000000000000000e+00  1.3716139519111847e-01 -1.7890090821001579e-03 0.0000000000000000e+00  1.7800444703188256e-01 4.9917329825960939e-04 0.0000000000000000e+00  0.0000000000000000e+00 0.0000000000000000e+00 0.0000000000000000e+00  0.0000000000000000e+00 0.0000000000000000e+00 0.0000000000000000e+00  0.0000000000000000e+00 0.0000000000000000e+00 0.0000000000000000e+00  0.0000000000000000e+00 0.0000000000000000e+00 0.0000000000000000e+00  0.0000000000000000e+00 0.0000000000000000e+00 0.0000000000000000e+00  0.0000000000000000e+00 0.0000000000000000e+00 0.0000000000000000e+00  0.0000000000000000e+00 0.0000000000000000e+00 0.0000000000000000e+00  0.0000000000000000e+00 0.0000000000000000e+00 0.0000000000000000e+00  0.0000000000000000e+00 0.0000000000000000e+00 0.0000000000000000e+00  0.0000000000000000e+00 0.0000000000000000e+00 0.0000000000000000e+00  0.0000000000000000e+00 0.0000000000000000e+00 0.0000000000000000e+00  0.0000000000000000e+00 0.0000000000000000e+00 0.0000000000000000e+00  0.0000000000000000e+00 0.0000000000000000e+00 0.0000000000000000e+00  0.0000000000000000e+00 0.0000000000000000e+00 0.0000000000000000e+00  0.0000000000000000e+00 0.0000000000000000e+00 0.0000000000000000e+00  0.0000000000000000e+00 0.0000000000000000e+00 0.0000000000000000e+00  0.0000000000000000e+00 0.0000000000000000e+00 0.0000000000000000e+00  0.0000000000000000e+00 0.0000000000000000e+00 0.0000000000000000e+00  0.0000000000000000e+00 0.0000000000000000e+00 0.0000000000000000e+00  0.0000000000000000e+00 0.0000000000000000e+00 0.0000000000000000e+00  0.0000000000000000e+00 0.0000000000000000e+00 0.0000000000000000e+00  0.0000000000000000e+00 0.0000000000000000e+00 0.0000000000000000e+00  0.0000000000000000e+00 0.0000000000000000e+00 0.0000000000000000e+00  0.0000000000000000e+00 0.0000000000000000e+00 0.0000000000000000e+00  0.0000000000000000e+00 0.0000000000000000e+00 0.0000000000000000e+00  0.0000000000000000e+00 0.0000000000000000e+00 0.0000000000000000e+00  0.0000000000000000e+00 0.0000000000000000e+00 0.0000000000000000e+00  0.0000000000000000e+00 0.0000000000000000e+00 0.0000000000000000e+00  0.0000000000000000e+00 0.0000000000000000e+00 0.0000000000000000e+00  0.0000000000000000e+00 0.0000000000000000e+00 0.0000000000000000e+00  0.0000000000000000e+00 0.0000000000000000e+00 0.0000000000000000e+00  0.0000000000000000e+00 0.0000000000000000e+00 0.0000000000000000e+00  0.0000000000000000e+00 0.0000000000000000e+00 0.0000000000000000e+00  0.0000000000000000e+00 0.0000000000000000e+00 0.0000000000000000e+00  0.0000000000000000e+00 0.0000000000000000e+00 0.0000000000000000e+00  0.0000000000000000e+00 0.0000000000000000e+00 0.0000000000000000e+00  0.0000000000000000e+00 0.0000000000000000e+00 0.0000000000000000e+00  0.0000000000000000e+00 0.0000000000000000e+00 0.0000000000000000e+00  0.0000000000000000e+00 0.0000000000000000e+00 0.0000000000000000e+00  0.0000000000000000e+00 0.0000000000000000e+00 0.0000000000000000e+00  0.0000000000000000e+00 0.0000000000000000e+00 0.0000000000000000e+00  0.0000000000000000e+00 0.0000000000000000e+00 0.0000000000000000e+00  0.0000000000000000e+00 0.0000000000000000e+00 0.0000000000000000e+00  0.0000000000000000e+00 0.0000000000000000e+00 0.0000000000000000e+00  0.0000000000000000e+00 0.0000000000000000e+00 0.0000000000000000e+00  0.0000000000000000e+00 0.0000000000000000e+00 0.0000000000000000e+00  0.0000000000000000e+00 0.0000000000000000e+00 0.0000000000000000e+00  0.0000000000000000e+00 0.0000000000000000e+00 0.0000000000000000e+00  0.0000000000000000e+00 0.0000000000000000e+00 0.0000000000000000e+00  0.0000000000000000e+00 0.0000000000000000e+00 0.0000000000000000e+00  0.0000000000000000e+00 0.0000000000000000e+00 0.0000000000000000e+00  0.0000000000000000e+00 0.0000000000000000e+00 0.0000000000000000e+00  0.0000000000000000e+00 0.0000000000000000e+00 0.0000000000000000e+00  0.0000000000000000e+00 0.0000000000000000e+00 0.0000000000000000e+00  0.0000000000000000e+00 0.0000000000000000e+00 0.0000000000000000e+00  0.0000000000000000e+00 0.0000000000000000e+00 0.0000000000000000e+00  0.0000000000000000e+00 0.0000000000000000e+00 0.0000000000000000e+00  0.0000000000000000e+00 0.0000000000000000e+00 0.0000000000000000e+00  0.0000000000000000e+00 0.0000000000000000e+00 0.0000000000000000e+00  0.0000000000000000e+00 0.0000000000000000e+00 0.0000000000000000e+00  0.0000000000000000e+00 0.0000000000000000e+00 0.0000000000000000e+00  0.0000000000000000e+00 0.0000000000000000e+00 0.0000000000000000e+00  0.0000000000000000e+00 0.0000000000000000e+00 0.0000000000000000e+00  0.0000000000000000e+00 0.0000000000000000e+00 0.0000000000000000e+00  0.0000000000000000e+00 0.0000000000000000e+00 0.0000000000000000e+00  0.0000000000000000e+00 0.0000000000000000e+00 0.0000000000000000e+00  0.0000000000000000e+00 0.0000000000000000e+00 0.0000000000000000e+00  0.0000000000000000e+00 0.0000000000000000e+00 0.0000000000000000e+00  0.0000000000000000e+00 0.0000000000000000e+00 0.0000000000000000e+00  0.0000000000000000e+00 0.0000000000000000e+00 0.0000000000000000e+00  0.0000000000000000e+00 0.0000000000000000e+00 0.0000000000000000e+00  0.0000000000000000e+00 0.0000000000000000e+00 0.0000000000000000e+00  0.0000000000000000e+00 0.0000000000000000e+00 0.0000000000000000e+00  0.0000000000000000e+00 0.0000000000000000e+00 0.0000000000000000e+00  0.0000000000000000e+00 0.0000000000000000e+00 0.0000000000000000e+00  0.0000000000000000e+00 0.0000000000000000e+00 0.0000000000000000e+00  0.0000000000000000e+00 0.0000000000000000e+00 0.0000000000000000e+00  0.0000000000000000e+00 0.0000000000000000e+00 0.0000000000000000e+00  1.5630630231079826e-06 -9.6474986999695313e-07 0.0000000000000000e+00  3.3052400525388728e-06 -1.9522394409182079e-06 0.0000000000000000e+00  4.9957583979390345e-06 -3.6039074055770391e-06 0.0000000000000000e+00  6.8177652979073357e-06 -5.9535125341890956e-06 0.0000000000000000e+00  8.4946636660770659e-06 -8.9371330709028256e-06 0.0000000000000000e+00  1.0330646265086960e-05 -1.2606955788298211e-05 0.0000000000000000e+00  1.1980506532534091e-05 -1.6803418904793698e-05 0.0000000000000000e+00  1.3631418797704485e-05 -2.1691837119468599e-05 0.0000000000000000e+00  1.5414111829070393e-05 -2.7121361180001441e-05 0.0000000000000000e+00  1.6977772570809393e-05 -3.3121847404279055e-05 0.0000000000000000e+00  1.8710596782814523e-05 -3.9698141775736718e-05 0.0000000000000000e+00  2.0211203434074677e-05 -4.6800669759642589e-05 0.0000000000000000e+00  2.1831628273345226e-05 -5.4428704027542456e-05 0.0000000000000000e+00  2.3276926301016487e-05 -6.2485635643055724e-05 0.0000000000000000e+00  2.4693843432629316e-05 -7.1081290201658513e-05 0.0000000000000000e+00  2.6185658624310205e-05 -8.0088494781249374e-05 0.0000000000000000e+00  2.7486757666799608e-05 -8.9523214965760189e-05 0.0000000000000000e+00  2.8884553932250045e-05 -9.9393029283163177e-05 0.0000000000000000e+00  3.0097598697851816e-05 -1.0963118110267307e-04 0.0000000000000000e+00  3.1383595445360452e-05 -1.2024458516173079e-04 0.0000000000000000e+00  3.2532257581750118e-05 -1.3120658732947561e-04 0.0000000000000000e+00  3.3711910449809114e-05 -1.4252316359907339e-04 0.0000000000000000e+00  3.4771768820237335e-05 -1.5409668298494111e-04 0.0000000000000000e+00  3.5791463748608190e-05 -1.6600689947896980e-04 0.0000000000000000e+00  3.6838105663319018e-05 -1.7814937035778972e-04 0.0000000000000000e+00  3.7783996805960508e-05 -1.9055754235123291e-04 0.0000000000000000e+00  3.8712113978871322e-05 -2.0321467495207005e-04 0.0000000000000000e+00  3.9574628795083673e-05 -2.1606389207523823e-04 0.0000000000000000e+00  4.0415791887300130e-05 -2.2913366155846411e-04 0.0000000000000000e+00  4.1196390364252360e-05 -2.4236091277950205e-04 0.0000000000000000e+00  4.1952626491776047e-05 -2.5577276588460186e-04 0.0000000000000000e+00  4.2654678555852697e-05 -2.6930909874278730e-04 0.0000000000000000e+00  4.3331658041346269e-05 -2.8299789896209200e-04 0.0000000000000000e+00  4.3955759118713719e-05 -2.9678474909235555e-04 0.0000000000000000e+00  4.4556407640438540e-05 -3.1069665019189675e-04 0.0000000000000000e+00  4.5111037568792507e-05 -3.2467868531088639e-04 0.0000000000000000e+00  4.5641783702127803e-05 -3.3875719335518703e-04 0.0000000000000000e+00  4.6129478780018593e-05 -3.5288693559391257e-04 0.0000000000000000e+00  4.6591299107553871e-05 -3.6709214464030463e-04 0.0000000000000000e+00  4.7015156132377626e-05 -3.8132995886962722e-04 0.0000000000000000e+00  4.7413680933440000e-05 -3.9562077663661457e-04 0.0000000000000000e+00  4.7774691354650971e-05 -4.0993339018941297e-04 0.0000000000000000e+00  4.8110046292795604e-05 -4.2427777093375892e-04 0.0000000000000000e+00  4.8424796536952915e-05 -4.3863669500448854e-04 0.0000000000000000e+00  4.8713164619788381e-05 -4.5300081999063210e-04 0.0000000000000000e+00  4.8983189293873038e-05 -4.6740216706220430e-04 0.0000000000000000e+00  3.9464909340143305e-05 -4.8192447382609224e-04 0.0000000000000000e+00  2.0165981538538419e-05 -4.8197401740811334e-04 0.0000000000000000e+00  1.0382448588828943e-05 -4.6764473983072107e-04 0.0000000000000000e+00  1.0141642983800096e-05 -4.5322159281271750e-04 0.0000000000000000e+00  9.9068008708224518e-06 -4.3878650360943739e-04 0.0000000000000000e+00  9.6456389932071003e-06 -4.2438092783605638e-04 0.0000000000000000e+00  9.3787431759956348e-06 -4.0999988452504623e-04 0.0000000000000000e+00  9.0897425547721556e-06 -3.9564190435779066e-04 0.0000000000000000e+00  8.8095565125811452e-06 -3.8132053727163440e-04 0.0000000000000000e+00  8.4948787816483467e-06 -3.6703541539348207e-04 0.0000000000000000e+00  8.2013227177574142e-06 -3.5280768747060828e-04 0.0000000000000000e+00  7.8676892899610678e-06 -3.3863022330306351e-04 0.0000000000000000e+00  7.5601199062115268e-06 -3.2452909966377262e-04 0.0000000000000000e+00  7.2156804726293392e-06 -3.1050058913108583e-04 0.0000000000000000e+00  6.9030299156429980e-06 -2.9656845002553413e-04 0.0000000000000000e+00  6.5517520596989042e-06 -2.8273343228405628e-04 0.0000000000000000e+00  6.2417784219970235e-06 -2.6902666354928080e-04 0.0000000000000000e+00  5.8866875436156567e-06 -2.5543986047977179e-04 0.0000000000000000e+00  5.5828163909312514e-06 -2.4201263208420155e-04 0.0000000000000000e+00  5.2251321454542818e-06 -2.2873556644521412e-04 0.0000000000000000e+00  4.9387163808575874e-06 -2.1564776641019956e-04 0.0000000000000000e+00  4.5802732619572136e-06 -2.0274860619434691e-04 0.0000000000000000e+00  4.3159407985164881e-06 -1.9007793383408672e-04 0.0000000000000000e+00  3.9601950655705699e-06 -1.7762835582850676e-04 0.0000000000000000e+00  3.7046996024420956e-06 -1.6544695797784478e-04 0.0000000000000000e+00  3.3728959720234426e-06 -1.5350480724921368e-04 0.0000000000000000e+00  3.0530108437359250e-06 -1.4189911257237426e-04 0.0000000000000000e+00  2.8010519258034262e-06 -1.3054936382834732e-04 0.0000000000000000e+00  2.5187926346637101e-06 -1.1955875478892946e-04 0.0000000000000000e+00  2.2648764522870995e-06 -1.0890712016551084e-04 0.0000000000000000e+00  1.9890225055798010e-06 -9.8630614040642276e-05 0.0000000000000000e+00  1.7491351991874063e-06 -8.8745603681594817e-05 0.0000000000000000e+00  1.4914866558736666e-06 -7.9250583536234594e-05 0.0000000000000000e+00  1.3131417633730019e-06 -7.0245138749762320e-05 0.0000000000000000e+00  1.0497881434346733e-06 -6.1621500364371991e-05 0.0000000000000000e+00  7.8039791920439365e-07 -5.3544119717277224e-05 0.0000000000000000e+00  6.3366834895388671e-07 -4.5866504424776435e-05 0.0000000000000000e+00  4.2839464251496002e-07 -3.8765449234991694e-05 0.0000000000000000e+00  2.9128358485729155e-07 -3.2179693209050720e-05 0.0000000000000000e+00  1.1755894080136764e-07 -2.6155793662533490e-05 0.0000000000000000e+00  7.2381804711532620e-08 -2.0770432622168317e-05 0.0000000000000000e+00  -9.2303524359330445e-08 -1.5883774892656565e-05 0.0000000000000000e+00  -2.4048145195638502e-07 -1.1714124697284684e-05 0.0000000000000000e+00  -2.1911609715575641e-07 -8.0532808363212923e-06 0.0000000000000000e+00  -2.7870742693656811e-07 -5.1014464764725364e-06 0.0000000000000000e+00  -2.0126058745296387e-07 -2.8090129825033807e-06 0.0000000000000000e+00  -2.1545715513830780e-07 -1.1996149755302563e-06 0.0000000000000000e+00  -6.6087049774792386e-08 -2.6902848978448813e-07 0.0000000000000000e+00  1.1467681413589721e-06 -6.1992903397865219e-07 0.0000000000000000e+00  2.9718921713001637e-05 -4.6027269607283247e-04 0.0000000000000000e+00  2.9406819410517194e-05 -4.3274687844945399e-04 0.0000000000000000e+00  2.8252514167721291e-05 -3.8793524453971043e-04 0.0000000000000000e+00  2.8231990766736770e-06 -3.8497695942597422e-06 0.0000000000000000e+00  2.7317354019768107e-05 -3.5991102392472784e-04 0.0000000000000000e+00  4.4565967840635512e-06 -9.5162276617298137e-06 0.0000000000000000e+00  2.6508568968459035e-05 -3.3158920434241845e-04 0.0000000000000000e+00  7.2255836899346783e-06 -2.3691807007875921e-05 0.0000000000000000e+00  9.0819200457786206e-06 -3.5521235423075566e-05 0.0000000000000000e+00  2.5621902340078367e-05 -3.0356024018401582e-04 0.0000000000000000e+00  1.3261228201349800e-05 -7.5192170331691278e-05 0.0000000000000000e+00  2.3619063954573003e-05 -2.4877470005996459e-04 0.0000000000000000e+00  1.0646160095743528e-05 -4.9131153327769651e-05 0.0000000000000000e+00  1.4997739497255020e-05 -9.3764267417259254e-05 0.0000000000000000e+00  2.2503643650652401e-05 -2.2224686171712577e-04 0.0000000000000000e+00  2.4658660629883622e-05 -2.7591825638080509e-04 0.0000000000000000e+00  1.6535349854356118e-05 -1.1430497960386096e-04 0.0000000000000000e+00  2.1310323141960162e-05 -1.9647421480607056e-04 0.0000000000000000e+00  1.7743738178203970e-05 -1.3536555397325217e-04 0.0000000000000000e+00  2.0279211933781272e-05 -1.7210682158065620e-04 0.0000000000000000e+00  1.8973737450192616e-05 -1.5269747896970451e-04 0.0000000000000000e+00  1.2073407620058076e-05 -6.1099223234572543e-05 0.0000000000000000e+00  2.8523947281187523e-05 -4.1120841879887366e-04 0.0000000000000000e+00  5.8547453972400520e-06 -1.5681457427468334e-05 0.0000000000000000e+00  2.2810556174104906e-05 -4.4644158561266850e-04 0.0000000000000000e+00  1.1676538045759009e-06 -1.8015833152323612e-06 0.0000000000000000e+00  2.1420754132937909e-05 -3.4571165478979407e-04 0.0000000000000000e+00  2.2147562862691734e-05 -3.7415790229764731e-04 0.0000000000000000e+00  5.0789247794004661e-06 -6.6981517042560375e-06 0.0000000000000000e+00  1.0520547122319212e-05 -2.9398464942194271e-05 0.0000000000000000e+00  1.8881540750928286e-05 -2.6224522170425124e-04 0.0000000000000000e+00  2.0631876922848463e-05 -3.1751675075152600e-04 0.0000000000000000e+00  1.7873442654180901e-05 -8.4231410028002356e-05 0.0000000000000000e+00  1.7926361090044452e-05 -2.3538779423518902e-04 0.0000000000000000e+00  1.2709199382676515e-05 -4.2558321478179182e-05 0.0000000000000000e+00  1.9751514040640333e-05 -1.0398725691202917e-04 0.0000000000000000e+00  1.6920431156382482e-05 -2.0921306812546252e-04 0.0000000000000000e+00  1.9784362324376152e-05 -2.8965940679834273e-04 0.0000000000000000e+00  2.2454723629929743e-05 -1.2515638398706111e-04 0.0000000000000000e+00  1.5862058612604863e-05 -1.8386675156078797e-04 0.0000000000000000e+00  6.5008297748236060e-07 -2.0322942145072036e-07 0.0000000000000000e+00  3.5723528726946409e-07 -1.3008994315251823e-08 0.0000000000000000e+00  3.4327922961417815e-05 -4.7158515564146294e-04 0.0000000000000000e+00  2.8379109258994076e-06 -2.1134829294112997e-06 0.0000000000000000e+00