<?xml version="1.0"?>
<VTKFile type="UnstructuredGrid"  version="0.1"  >
<UnstructuredGrid>
<Piece  NumberOfPoints="1419" NumberOfCells="2698">
<Points>
<DataArray  type="Float64"  NumberOfComponents="3"  format="ascii">0 0 0  0 0.41 0  2.5 0 0  2.5 0.41 0  0.6 0.19 0  0.6 0.21 0  0.25 0.2 0  0.15 0.2 0  0.2489897948556636 0.21 0  0.2489897948556636 0.19 0  0.6 0.2 0  0 0.3807142857143437 0  0 0.3514285714286952 0  0 0.3221428571430699 0  0 0.29285714285744 0  0 0.2635714285718054 0  0 0.2342857142861561 0  0 0.2050000000005308 0  0 0.175714285714732 0  0 0.1464285714289574 0  0 0.1171428571431897 0  0 0.08785714285737878 0  0 0.05857142857161107 0  0 0.02928571428580012 0  0.03015443760436003 0 0  0.06140001986583606 0 0  0.09377624077125973 0 0  0.1273239957535082 0 0  0.1620856860351972 0 0  0.1981052433264291 0 0  0.235428184091502 0 0  0.2741016576309132 0 0  0.3141745521465447 0 0  0.3556974926295285 0 0  0.3987229542472677 0 0  0.4433053055141081 0 0  0.4895008759286886 0 0  0.5373680609405097 0 0  0.5869673343216626 0 0  0.6383613676634521 0 0  0.6916151138468254 0 0  0.7467958595648856 0 0  0.8039733463919316 0 0  0.8632198139502143 0 0  0.9246101326867038 0 0  0.9882218810934433 0 0  1.054135445558498 0 0  1.122434100542598 0 0  1.193204177141305 0 0  1.266535089879536 0 0  1.342519516046404 0 0  1.421253448503939 0 0  1.502836389106271 0 0  1.587371439758838 0 0  1.674965418777374 0 0  1.765729001825544 0 0  1.859776908880082 0 0  1.957227977487062 0 0  2.058205329869943 0 0  2.162836591189951 0 0  2.271253957290865 0 0  2.383594446803425 0 0  2.5 0.1024999999997612 0  2.5 0.2049999999994743 0  2.5 0.3074999999997183 0  2.383594446803656 0.41 0  2.271253957291315 0.41 0  2.162836591190598 0.41 0  2.058205329870775 0.41 0  1.957227977488067 0.41 0  1.859776908881246 0.41 0  1.765729001826854 0.41 0  1.674965418778818 0.41 0  1.58737143976041 0.41 0  1.502836389107956 0.41 0  1.421253448505726 0.41 0  1.342519516048286 0.41 0  1.266535089881505 0.41 0  1.193204177143353 0.41 0  1.122434100544716 0.41 0  1.05413544556068 0.41 0  0.9882218810956305 0.41 0  0.9246101326886647 0.41 0  0.8632198139519631 0.41 0  0.8039733463934788 0.41 0  0.7467958595662458 0.41 0  0.6916151138480078 0.41 0  0.6383613676644679 0.41 0  0.5869673343225223 0.41 0  0.5373680609412221 0.41 0  0.4895008759292634 0.41 0  0.4433053055145528 0.41 0  0.3987229542475914 0.41 0  0.3556974926297398 0.41 0  0.3141745521466497 0.41 0  0.2741016576310038 0.41 0  0.2354281840915826 0.41 0  0.1981052433265003 0.41 0  0.1620856860352591 0.41 0  0.1273239957535623 0.41 0  0.09377624077128965 0.41 0  0.06140001986584975 0.41 0  0.03015443760436654 0.41 0  0.2497468076502589 0.2050254481002335 0  0.2497468076502614 0.1949745518997913 0  0.2469965252529372 0.1829317073451959 0  0.2439893735792749 0.1762316384219906 0  0.2400332147834255 0.1700443375285386 0  0.2352133972704371 0.1645032867342007 0  0.2296339016332438 0.1597280261969788 0  0.2234150974217223 0.1558215752574715 0  0.2166911463437691 0.1528682099456123 0  0.2096071079204251 0.1509316448471593 0  0.2023158100364996 0.1500536585536553 0  0.194974551899914 0.1502531923497262 0  0.1877417105387872 0.1515259415822739 0  0.1807733240461124 0.153844448527136 0  0.1742197252835808 0.15715869474974 0  0.1682222986673531 0.1613971801805478 0  0.162910430003803 0.1664684656256651 0  0.1583987151779087 0.1722631454351573 0  0.1547844879126891 0.178656207771761 0  0.1521457199348551 0.1855097315605723 0  0.1505393388476355 0.1926758619366523 0  0.1505393388476328 0.2073241380633295 0  0.1521457199348437 0.2144902684393899 0  0.1547844879126531 0.221343792228163 0  0.1583987151778488 0.2277368545647528 0  0.1629104300036858 0.2335315343742052 0  0.1682222986671726 0.2386028198193036 0  0.1742197252833576 0.2428413052501257 0  0.1807733240458683 0.2461555514727623 0  0.1877417105384929 0.2484740584176516 0  0.1949745518995776 0.2497468076502398 0  0.202315810036185 0.2499463414463592 0  0.2096071079201568 0.2490683551528932 0  0.2166911463435495 0.2471317900544655 0  0.2234150974215506 0.2441784247426195 0  0.2296339016331197 0.2402719738031125 0  0.2352133972703547 0.2354967132658811 0  0.2400332147833751 0.2299556624715287 0  0.2439893735792577 0.2237683615780412 0  0.246996525252926 0.2170682926548348 0  0.25645809709277 0.21 0  0.2639263993298655 0.21 0  0.271394701566961 0.21 0  0.2788630038040554 0.21 0  0.2863313060411479 0.21 0  0.2937996082782405 0.21 0  0.301267910515333 0.21 0  0.3087362127524279 0.21 0  0.3162045149895234 0.21 0  0.3236728172265972 0.21 0  0.3311411194636928 0.21 0  0.3386094217007701 0.21 0  0.3460777239378666 0.21 0  0.3535460261749672 0.21 0  0.3610143284120516 0.21 0  0.3684826306491596 0.21 0  0.3759509328862226 0.21 0  0.383419235123329 0.21 0  0.3908875373604028 0.21 0  0.3983558395975142 0.21 0  0.4058241418345938 0.21 0  0.4132924440716992 0.21 0  0.4207607463087888 0.21 0  0.4282290485459029 0.21 0  0.4356973507830418 0.21 0  0.4431656530201649 0.21 0  0.4506339552573136 0.21 0  0.4581022574944306 0.21 0  0.4655705597315852 0.21 0  0.4730388619686996 0.21 0  0.480507164205851 0.21 0  0.4879754664429498 0.21 0  0.4954437686800938 0.21 0  0.502912070917267 0.21 0  0.5103803731544119 0.21 0  0.5178486753915261 0.21 0  0.5253169776286404 0.21 0  0.5327852798657868 0.21 0  0.5402535821029386 0.21 0  0.54772188434007 0.21 0  0.5551901865771842 0.21 0  0.5626584888143201 0.21 0  0.5701267910514778 0.21 0  0.5775950932886138 0.21 0  0.5850633955257281 0.21 0  0.5925316977628483 0.21 0  0.6 0.2050000000000054 0  0.6 0.1950000000000217 0  0.5925316977628897 0.19 0  0.5850633955257988 0.19 0  0.5775950932887378 0.19 0  0.5701267910515998 0.19 0  0.5626584888145268 0.19 0  0.5551901865773963 0.19 0  0.547721884340339 0.19 0  0.5402535821032429 0.19 0  0.5327852798661811 0.19 0  0.5253169776290537 0.19 0  0.5178486753919799 0.19 0  0.5103803731549078 0.19 0  0.502912070917822 0.19 0  0.4954437686807294 0.19 0  0.4879754664436223 0.19 0  0.4805071642065402 0.19 0  0.4730388619694271 0.19 0  0.4655705597323621 0.19 0  0.4581022574952563 0.19 0  0.4506339552581777 0.19 0  0.4431656530210671 0.19 0  0.4356973507839815 0.19 0  0.4282290485468779 0.19 0  0.4207607463097617 0.19 0  0.4132924440726327 0.19 0  0.4058241418354857 0.19 0  0.3983558395983636 0.19 0  0.3908875373612097 0.19 0  0.3834192351240934 0.19 0  0.3759509328869369 0.19 0  0.3684826306498175 0.19 0  0.361014328412667 0.19 0  0.3535460261755617 0.19 0  0.3460777239384295 0.19 0  0.3386094217012945 0.19 0  0.3311411194641595 0.19 0  0.3236728172270245 0.19 0  0.3162045149898895 0.19 0  0.3087362127527544 0.19 0  0.3012679105156187 0.19 0  0.2937996082784807 0.19 0  0.2863313060413428 0.19 0  0.2788630038042048 0.19 0  0.2713947015670686 0.19 0  0.2639263993299336 0.19 0  0.2564580970927985 0.19 0  0.2607803159922026 0.2000727136295815 0  0.5887803774232762 0.2001272386983733 0  0.5745072403740523 0.2002044435018727 0  0.5511891430099709 0.2001122610077113 0  0.2751288526855082 0.20000000000002 0  0.5365194309847112 0.1999999999999436 0  0.2894621222999649 0.1998691686390484 0  0.5215828265105155 0.1999999999999228 0  0.3127789816668748 0.1998657885438805 0  0.3274069683451451 0.2000000000000796 0  0.5066462220363641 0.199999999999908 0  0.3650630746574081 0.199866017807523 0  0.476773013087985 0.1999999999998713 0  0.3417402379596385 0.1998691686391011 0  0.3796850840047755 0.200000000000134 0  0.4618364086138087 0.1999999999998546 0  0.4917096175621762 0.1999999999998808 0  0.3946216884789568 0.2000000000001512 0  0.446899804139621 0.1999999999998389 0  0.4089549580935208 0.1998691686391595 0  0.4322718174608562 0.200127451265745 0  0.4201487168029707 0.1999966199048527 0  0.3528922713220932 0.2000185703532356 0  0.5633122436674589 0.1999814296467508 0  0.3006558810093873 0.1999966199048318 0  0.5815926498168407 0.1966545283159175 0  0.2677053789419034 0.1964246479135325 0  0.5290511287476175 0.1970915826863981 0  0.5439877332217911 0.197091582686394 0  0.2825131256993216 0.2035478995978015 0  0.3199386661080599 0.202908417313604 0  0.4842413153250809 0.1970915826863873 0  0.5141145242734466 0.1970915826863843 0  0.3722167817676917 0.2029084173136195 0  0.4693047108508938 0.1970915826863783 0  0.3348752705822316 0.202908417313609 0  0.3871533862418661 0.2029084173136212 0  0.4543681063767183 0.1970915826863795 0  0.4991779197992749 0.1970915826863902 0  0.4020059614928624 0.203547899597858 0  0.4394315019025246 0.1970915826863714 0  0.2550657455369551 0.2034088125358657 0  0.2548908499171161 0.1966940311614271 0  0.5946539510196798 0.2024302972968126 0  0.267698176732111 0.2039977513680092 0  0.4261685417851465 0.196409292431739 0  0.3590076176283495 0.196411355804271 0  0.5571672426447437 0.2036011176410121 0  0.3066757059912147 0.1964092924317024 0  0.594380730180568 0.1966558399668133 0  0.4842413153245942 0.2040749161535287 0  0.4693047108503577 0.2040749161535231 0  0.3871533862424271 0.1959250838464788 0  0.372246743208829 0.1959123236376545 0  0.5141145242731028 0.2040749161535395 0  0.4543681063761134 0.2040749161535186 0  0.4019979587101454 0.1959834479682427 0  0.4394608940728603 0.2040870543693135 0  0.5439623148931173 0.2040856076781014 0  0.5290511287473298 0.2040749161535501 0  0.4991779197988497 0.2040749161535382 0  0.3347912413592433 0.1959225448935183 0  0.3199680582793816 0.1959123018030061 0  0.2825051229162361 0.1959834479681729 0  0.3590471196690275 0.2036304442587945 0  0.5571594006495384 0.1963685282145804 0  0.3067669986803285 0.203627750582736 0  0.4262598344738712 0.2036568242185335 0  0.5814408164431408 0.2041285596160068 0  0.5688286748170428 0.1961819304477386 0  0.4145905603063645 0.2038180695522843 0  0.3473758401724931 0.2038180695522752 0  0.2950977245128307 0.2038180695522663 0  0.5688286748170693 0.203818069552238 0  0.2950977245127906 0.1961819304477774 0  0.3473758401723931 0.1961819304478349 0  0.4145905603061963 0.1961819304479011 0  0.2601812407614425 0.2056861609747042
[...]
<PointData  Vectors="f_40-0"> 
<DataArray  type="Float64"  Name="f_40-0"  NumberOfComponents="3" format="ascii">0.0000000000000000e+00 0.0000000000000000e+00 0.0000000000000000e+00  0.0000000000000000e+00 0.0000000000000000e+00 0.0000000000000000e+00  0.0000000000000000e+00 0.0000000000000000e+00 0.0000000000000000e+00  0.0000000000000000e+00 0.0000000000000000e+00 0.0000000000000000e+00  2.5765247660620356e-05 8.1058143747317454e-04 0.0000000000000000e+00  -3.3873144001962351e-05 8.1072612062073118e-04 0.0000000000000000e+00  0.0000000000000000e+00 0.0000000000000000e+00 0.0000000000000000e+00  0.0000000000000000e+00 0.0000000000000000e+00 0.0000000000000000e+00  0.0000000000000000e+00 0.0000000000000000e+00 0.0000000000000000e+00  0.0000000000000000e+00 0.0000000000000000e+00 0.0000000000000000e+00  -4.0398034089103084e-06 8.1065046279370635e-04 0.0000000000000000e+00  7.9591836734548407e-02 0.0000000000000000e+00 0.0000000000000000e+00  1.4693877550994527e-01 0.0000000000000000e+00 0.0000000000000000e+00  2.0204081632617479e-01 0.0000000000000000e+00 0.0000000000000000e+00  2.4489795918330076e-01 0.0000000000000000e+00 0.0000000000000000e+00  2.7551020408131754e-01 0.0000000000000000e+00 0.0000000000000000e+00  2.9387755102022350e-01 0.0000000000000000e+00 0.0000000000000000e+00  3.0000000000000004e-01 0.0000000000000000e+00 0.0000000000000000e+00  2.9387755102059482e-01 0.0000000000000000e+00 0.0000000000000000e+00  2.7551020408195548e-01 0.0000000000000000e+00 0.0000000000000000e+00  2.4489795918409071e-01 0.0000000000000000e+00 0.0000000000000000e+00  2.0204081632692525e-01 0.0000000000000000e+00 0.0000000000000000e+00  1.4693877551058568e-01 0.0000000000000000e+00 0.0000000000000000e+00  7.9591836734909230e-02 0.0000000000000000e+00 0.0000000000000000e+00  0.0000000000000000e+00 0.0000000000000000e+00 0.0000000000000000e+00  0.0000000000000000e+00 0.0000000000000000e+00 0.0000000000000000e+00  0.0000000000000000e+00 0.0000000000000000e+00 0.0000000000000000e+00  0.0000000000000000e+00 0.0000000000000000e+00 0.0000000000000000e+00  0.0000000000000000e+00 0.0000000000000000e+00 0.0000000000000000e+00  0.0000000000000000e+00 0.0000000000000000e+00 0.0000000000000000e+00  0.0000000000000000e+00 0.0000000000000000e+00 0.0000000000000000e+00  0.0000000000000000e+00 0.0000000000000000e+00 0.0000000000000000e+00  0.0000000000000000e+00 0.0000000000000000e+00 0.0000000000000000e+00  0.0000000000000000e+00 0.0000000000000000e+00 0.0000000000000000e+00  0.0000000000000000e+00 0.0000000000000000e+00 0.0000000000000000e+00  0.0000000000000000e+00 0.0000000000000000e+00 0.0000000000000000e+00  0.0000000000000000e+00 0.0000000000000000e+00 0.0000000000000000e+00  0.0000000000000000e+00 0.0000000000000000e+00 0.0000000000000000e+00  0.0000000000000000e+00 0.0000000000000000e+00 0.0000000000000000e+00  0.0000000000000000e+00 0.0000000000000000e+00 0.0000000000000000e+00  0.0000000000000000e+00 0.0000000000000000e+00 0.0000000000000000e+00  0.0000000000000000e+00 0.0000000000000000e+00 0.0000000000000000e+00  0.0000000000000000e+00 0.0000000000000000e+00 0.0000000000000000e+00  0.0000000000000000e+00 0.0000000000000000e+00 0.0000000000000000e+00  0.0000000000000000e+00 0.0000000000000000e+00 0.0000000000000000e+00  0.0000000000000000e+00 0.0000000000000000e+00 0.0000000000000000e+00  0.0000000000000000e+00 0.0000000000000000e+00 0.0000000000000000e+00  0.0000000000000000e+00 0.0000000000000000e+00 0.0000000000000000e+00  0.0000000000000000e+00 0.0000000000000000e+00 0.0000000000000000e+00  0.0000000000000000e+00 0.0000000000000000e+00 0.0000000000000000e+00  0.0000000000000000e+00 0.0000000000000000e+00 0.0000000000000000e+00  0.0000000000000000e+00 0.0000000000000000e+00 0.0000000000000000e+00  0.0000000000000000e+00 0.0000000000000000e+00 0.0000000000000000e+00  0.0000000000000000e+00 0.0000000000000000e+00 0.0000000000000000e+00  0.0000000000000000e+00 0.0000000000000000e+00 0.0000000000000000e+00  0.0000000000000000e+00 0.0000000000000000e+00 0.0000000000000000e+00  0.0000000000000000e+00 0.0000000000000000e+00 0.0000000000000000e+00  0.0000000000000000e+00 0.0000000000000000e+00 0.0000000000000000e+00  0.0000000000000000e+00 0.0000000000000000e+00 0.0000000000000000e+00  0.0000000000000000e+00 0.0000000000000000e+00 0.0000000000000000e+00  0.0000000000000000e+00 0.0000000000000000e+00 0.0000000000000000e+00  0.0000000000000000e+00 0.0000000000000000e+00 0.0000000000000000e+00  2.4684576947931536e-01 -5.9431524052643509e-03 0.0000000000000000e+00  2.7882499839920100e-01 2.8419573822323950e-03 0.0000000000000000e+00  2.5200208583667955e-01 8.7260704885999026e-03 0.0000000000000000e+00  0.0000000000000000e+00 0.0000000000000000e+00 0.0000000000000000e+00  0.0000000000000000e+00 0.0000000000000000e+00 0.0000000000000000e+00  0.0000000000000000e+00 0.0000000000000000e+00 0.0000000000000000e+00  0.0000000000000000e+00 0.0000000000000000e+00 0.0000000000000000e+00  0.0000000000000000e+00 0.0000000000000000e+00 0.0000000000000000e+00  0.0000000000000000e+00 0.0000000000000000e+00 0.0000000000000000e+00  0.0000000000000000e+00 0.0000000000000000e+00 0.0000000000000000e+00  0.0000000000000000e+00 0.0000000000000000e+00 0.0000000000000000e+00  0.0000000000000000e+00 0.0000000000000000e+00 0.0000000000000000e+00  0.0000000000000000e+00 0.0000000000000000e+00 0.0000000000000000e+00  0.0000000000000000e+00 0.0000000000000000e+00 0.0000000000000000e+00  0.0000000000000000e+00 0.0000000000000000e+00 0.0000000000000000e+00  0.0000000000000000e+00 0.0000000000000000e+00 0.0000000000000000e+00  0.0000000000000000e+00 0.0000000000000000e+00 0.0000000000000000e+00  0.0000000000000000e+00 0.0000000000000000e+00 0.0000000000000000e+00  0.0000000000000000e+00 0.0000000000000000e+00 0.0000000000000000e+00  0.0000000000000000e+00 0.0000000000000000e+00 0.0000000000000000e+00  0.0000000000000000e+00 0.0000000000000000e+00 0.0000000000000000e+00  0.0000000000000000e+00 0.0000000000000000e+00 0.0000000000000000e+00  0.0000000000000000e+00 0.0000000000000000e+00 0.0000000000000000e+00  0.0000000000000000e+00 0.0000000000000000e+00 0.0000000000000000e+00  0.0000000000000000e+00 0.0000000000000000e+00 0.0000000000000000e+00  0.0000000000000000e+00 0.0000000000000000e+00 0.0000000000000000e+00  0.0000000000000000e+00 0.0000000000000000e+00 0.0000000000000000e+00  0.0000000000000000e+00 0.0000000000000000e+00 0.0000000000000000e+00  0.0000000000000000e+00 0.0000000000000000e+00 0.0000000000000000e+00  0.0000000000000000e+00 0.0000000000000000e+00 0.0000000000000000e+00  0.0000000000000000e+00 0.0000000000000000e+00 0.0000000000000000e+00  0.0000000000000000e+00 0.0000000000000000e+00 0.0000000000000000e+00  0.0000000000000000e+00 0.0000000000000000e+00 0.0000000000000000e+00  0.0000000000000000e+00 0.0000000000000000e+00 0.0000000000000000e+00  0.0000000000000000e+00 0.0000000000000000e+00 0.0000000000000000e+00  0.0000000000000000e+00 0.0000000000000000e+00 0.0000000000000000e+00  0.0000000000000000e+00 0.0000000000000000e+00 0.0000000000000000e+00  0.0000000000000000e+00 0.0000000000000000e+00 0.0000000000000000e+00  0.0000000000000000e+00 0.0000000000000000e+00 0.0000000000000000e+00  0.0000000000000000e+00 0.0000000000000000e+00 0.0000000000000000e+00  0.0000000000000000e+00 0.0000000000000000e+00 0.0000000000000000e+00  0.0000000000000000e+00 0.0000000000000000e+00 0.0000000000000000e+00  0.0000000000000000e+00 0.0000000000000000e+00 0.0000000000000000e+00  0.0000000000000000e+00 0.0000000000000000e+00 0.0000000000000000e+00  0.0000000000000000e+00 0.0000000000000000e+00 0.0000000000000000e+00  0.0000000000000000e+00 0.0000000000000000e+00 0.0000000000000000e+00  0.0000000000000000e+00 0.0000000000000000e+00 0.0000000000000000e+00  0.0000000000000000e+00 0.0000000000000000e+00 0.0000000000000000e+00  0.0000000000000000e+00 0.0000000000000000e+00 0.0000000000000000e+00  0.0000000000000000e+00 0.0000000000000000e+00 0.0000000000000000e+00  0.0000000000000000e+00 0.0000000000000000e+00 0.0000000000000000e+00  0.0000000000000000e+00 0.0000000000000000e+00 0.0000000000000000e+00  0.0000000000000000e+00 0.0000000000000000e+00 0.0000000000000000e+00  0.0000000000000000e+00 0.0000000000000000e+00 0.0000000000000000e+00  0.0000000000000000e+00 0.0000000000000000e+00 0.0000000000000000e+00  0.0000000000000000e+00 0.0000000000000000e+00 0.0000000000000000e+00  0.0000000000000000e+00 0.0000000000000000e+00 0.0000000000000000e+00  0.0000000000000000e+00 0.0000000000000000e+00 0.0000000000000000e+00  0.0000000000000000e+00 0.0000000000000000e+00 0.0000000000000000e+00  0.0000000000000000e+00 0.0000000000000000e+00 0.0000000000000000e+00  0.0000000000000000e+00 0.0000000000000000e+00 0.0000000000000000e+00  0.0000000000000000e+00 0.0000000000000000e+00 0.0000000000000000e+00  0.0000000000000000e+00 0.0000000000000000e+00 0.0000000000000000e+00  0.0000000000000000e+00 0.0000000000000000e+00 0.0000000000000000e+00  0.0000000000000000e+00 0.0000000000000000e+00 0.0000000000000000e+00  0.0000000000000000e+00 0.0000000000000000e+00 0.0000000000000000e+00  0.0000000000000000e+00 0.0000000000000000e+00 0.0000000000000000e+00  0.0000000000000000e+00 0.0000000000000000e+00 0.0000000000000000e+00  0.0000000000000000e+00 0.0000000000000000e+00 0.0000000000000000e+00  0.0000000000000000e+00 0.0000000000000000e+00 0.0000000000000000e+00  0.0000000000000000e+00 0.0000000000000000e+00 0.0000000000000000e+00  0.0000000000000000e+00 0.0000000000000000e+00 0.0000000000000000e+00  0.0000000000000000e+00 0.0000000000000000e+00 0.0000000000000000e+00  0.0000000000000000e+00 0.0000000000000000e+00 0.0000000000000000e+00  0.0000000000000000e+00 0.0000000000000000e+00 0.0000000000000000e+00  0.0000000000000000e+00 0.0000000000000000e+00 0.0000000000000000e+00  0.0000000000000000e+00 0.0000000000000000e+00 0.0000000000000000e+00  0.0000000000000000e+00 0.0000000000000000e+00 0.0000000000000000e+00  0.0000000000000000e+00 0.0000000000000000e+00 0.0000000000000000e+00  0.0000000000000000e+00 0.0000000000000000e+00 0.0000000000000000e+00  0.0000000000000000e+00 0.0000000000000000e+00 0.0000000000000000e+00  -2.0136868050824542e-06 1.6978698756356001e-06 0.0000000000000000e+00  -4.2653294408441239e-06 4.0050847073846450e-06 0.0000000000000000e+00  -6.2404672587399191e-06 7.7340457484437761e-06 0.0000000000000000e+00  -8.3476601760072566e-06 1.2960504428079425e-05 0.0000000000000000e+00  -1.0097620911613173e-05 1.9412925340502329e-05 0.0000000000000000e+00  -1.2049604029607542e-05 2.7203653699630217e-05 0.0000000000000000e+00  -1.3614392490703699e-05 3.5966129117136702e-05 0.0000000000000000e+00  -1.5115674958801940e-05 4.5995825762512035e-05 0.0000000000000000e+00  -1.6807600071195702e-05 5.6972171158332200e-05 0.0000000000000000e+00  -1.8095061243751798e-05 6.8919301811416959e-05 0.0000000000000000e+00  -1.9629428464284188e-05 8.1812984588845806e-05 0.0000000000000000e+00  -2.0779830160199083e-05 9.5556691230914810e-05 0.0000000000000000e+00  -2.2104465138726066e-05 1.1011818171987800e-04 0.0000000000000000e+00  -2.3152858283352872e-05 1.2532775233183981e-04 0.0000000000000000e+00  -2.4150714722301563e-05 1.4133004710324576e-04 0.0000000000000000e+00  -2.5251229485075144e-05 1.5792138992112785e-04 0.0000000000000000e+00  -2.6085342105392929e-05 1.7510653359183940e-04 0.0000000000000000e+00  -2.7047246265828236e-05 1.9286733698994701e-04 0.0000000000000000e+00  -2.7762141696697154e-05 2.1112359017358586e-04 0.0000000000000000e+00  -2.8571951512089878e-05 2.2984716489547253e-04 0.0000000000000000e+00  -2.9205883312391204e-05 2.4900395513716611e-04 0.0000000000000000e+00  -2.9877732839136372e-05 2.6857600316605490e-04 0.0000000000000000e+00  -3.0406225572833785e-05 2.8844172542794163e-04 0.0000000000000000e+00  -3.0891195365309257e-05 3.0868137004364714e-04 0.0000000000000000e+00  -3.1400602387217057e-05 3.2916846102340637e-04 0.0000000000000000e+00  -3.1802114012736655e-05 3.4993196130561708e-04 0.0000000000000000e+00  -3.2184678918627970e-05 3.7093690740968498e-04 0.0000000000000000e+00  -3.2500806711754191e-05 3.9212381833057618e-04 0.0000000000000000e+00  -3.2798087943243115e-05 4.1350704855638181e-04 0.0000000000000000e+00  -3.3038022543210318e-05 4.3502778740339438e-04 0.0000000000000000e+00  -3.3258363746971467e-05 4.5669802132512934e-04 0.0000000000000000e+00  -3.3431474050632007e-05 4.7846592362494570e-04 0.0000000000000000e+00  -3.3586150377507714e-05 5.0034329339462716e-04 0.0000000000000000e+00  -3.3701235844128252e-05 5.2228886785611682e-04 0.0000000000000000e+00  -3.3800898296768508e-05 5.4431242389972752e-04 0.0000000000000000e+00  -3.3871626686012256e-05 5.6637980393035273e-04 0.0000000000000000e+00  -3.3929335111875220e-05 5.8849813975371242e-04 0.0000000000000000e+00  -3.3965131051020714e-05 6.1064465860391297e-04 0.0000000000000000e+00  -3.3988826184394783e-05 6.3282436858399073e-04 0.0000000000000000e+00  -3.3998121095408896e-05 6.5502109513918146e-04 0.0000000000000000e+00  -3.3999222447976005e-05 6.7723712072527626e-04 0.0000000000000000e+00  -3.3989827047389594e-05 6.9946252336156945e-04 0.0000000000000000e+00  -3.3972335349628599e-05 7.2169837891316788e-04 0.0000000000000000e+00  -3.3950642888691459e-05 7.4394328779518076e-04 0.0000000000000000e+00  -3.3926022822030365e-05 7.6619500513038820e-04 0.0000000000000000e+00  -3.3894436608186655e-05 7.8845122703274137e-04 0.0000000000000000e+00  -1.8946192044623108e-05 8.1068615842120391e-04 0.0000000000000000e+00  1.0862486302200432e-05 8.1061504667413807e-04 0.0000000000000000e+00  2.5721303261942451e-05 7.8831973739817410e-04 0.0000000000000000e+00  2.5677076673553206e-05 7.6605987704606374e-04 0.0000000000000000e+00  2.5632967003199020e-05 7.4380126464749824e-04 0.0000000000000000e+00  2.5589958745047269e-05 7.2155128694409779e-04 0.0000000000000000e+00  2.5547634426205253e-05 6.9930661610292932e-04 0.0000000000000000e+00  2.5507130021360000e-05 6.7707311643397622e-04 0.0000000000000000e+00  2.5460115785288086e-05 6.5485030324529076e-04 0.0000000000000000e+00  2.5420128531789606e-05 6.3264280183551833e-04 0.0000000000000000e+00  2.5366681650815793e-05 6.1045659849585585e-04 0.0000000000000000e+00  2.5322242183435147e-05 5.8829681533474946e-04 0.0000000000000000e+00  2.5255883737649959e-05 5.6617146690569669e-04 0.0000000000000000e+00  2.5202430185932202e-05 5.4408784050744203e-04 0.0000000000000000e+00  2.5118276865507760e-05 5.2205769164194514e-04 0.0000000000000000e+00  2.5049764550287494e-05 5.0009433598703255e-04 0.0000000000000000e+00  2.4937043065418892e-05 4.7820969035529930e-04 0.0000000000000000e+00  2.4846469116102601e-05 4.5642252065646651e-04 0.0000000000000000e+00  2.4695842173847207e-05 4.3474691465799492e-04 0.0000000000000000e+00  2.4576278008584127e-05 4.1320520845634164e-04 0.0000000000000000e+00  2.4378902751482440e-05 3.9181661748082284e-04 0.0000000000000000e+00  2.4222983189829589e-05 3.7060918379319170e-04 0.0000000000000000e+00  2.3963450523764376e-05 3.4960211111013169e-04 0.0000000000000000e+00  2.3759895623860175e-05 3.2882985902281571e-04 0.0000000000000000e+00  2.3435736308785155e-05 3.0832011440634161e-04 0.0000000000000000e+00  2.3157461520146785e-05 2.8807447894994620e-04 0.0000000000000000e+00  2.2850309635111486e-05 2.6820291908168456e-04 0.0000000000000000e+00  2.2425723797483824e-05 2.4861630412912624e-04 0.0000000000000000e+00  2.2021391503477168e-05 2.2946780982476277e-04 0.0000000000000000e+00  2.1525299198776291e-05 2.1072017627242592e-04 0.0000000000000000e+00  2.1031491130833128e-05 1.9246731237446769e-04 0.0000000000000000e+00  2.0440117492442249e-05 1.7470358108111328e-04 0.0000000000000000e+00  1.9848655107717697e-05 1.5749208572937655e-04 0.0000000000000000e+00  1.9080220902233687e-05 1.4094126132364434e-04 0.0000000000000000e+00  1.8411265271120144e-05 1.2493113394637881e-04 0.0000000000000000e+00  1.7696012898276442e-05 1.0973509965376436e-04 0.0000000000000000e+00  1.6748809166830335e-05 9.5128056762798795e-05 0.0000000000000000e+00  1.5848722799816305e-05 8.1420436745420418e-05 0.0000000000000000e+00  1.4787848463624690e-05 6.8525692229769937e-05 0.0000000000000000e+00  1.3747320597394102e-05 5.6547409432450562e-05 0.0000000000000000e+00  1.2427865934143695e-05 4.5638021106796452e-05 0.0000000000000000e+00  1.1280745631651093e-05 3.5598168387562845e-05 0.0000000000000000e+00  1.0069795494353638e-05 2.6844919302915390e-05 0.0000000000000000e+00  8.5017873265584400e-06 1.9025164129608025e-05 0.0000000000000000e+00  7.0516420062022093e-06 1.2557100937823870e-05 0.0000000000000000e+00  5.2807072060308381e-06 7.4051509187394520e-06 0.0000000000000000e+00  3.6802306474865512e-06 3.6634758813362007e-06 0.0000000000000000e+00  1.7382146000349780e-06 1.3612468931987149e-06 0.0000000000000000e+00  -2.1673123560537454e-07 1.6394086877001144e-06 0.0000000000000000e+00  -4.4789345229144230e-06 7.7720238074621131e-04 0.0000000000000000e+00  -4.7781704720503306e-06 7.3466930537260597e-04 0.0000000000000000e+00  -4.5872911428726078e-06 6.6523889948901644e-04 0.0000000000000000e+00  -5.4472099022222393e-07 9.1048462037720973e-06 0.0000000000000000e+00  -4.2851658817979731e-06 6.2162130095161578e-04 0.0000000000000000e+00  -7.5811430234058739e-07 2.1513496201587200e-05 0.0000000000000000e+00  -4.2978568193972882e-06 5.7730319761360510e-04 0.0000000000000000e+00  -1.2342779414856005e-06 5.0943694416062491e-05 0.0000000000000000e+00  -1.7728860241967629e-06 7.4485223459085941e-05 0.0000000000000000e+00  -4.2864279710876112e-06 5.3313721856778891e-04 0.0000000000000000e+00  -2.3157914856745629e-06 1.4962399464003428e-04 0.0000000000000000e+00  -4.1775661284385585e-06 4.4562406193346811e-04 0.0000000000000000e+00  -1.8517886886314102e-06 1.0082728538450509e-04 0.0000000000000000e+00  -2.9120386616795451e-06 1.8337303145684201e-04 0.0000000000000000e+00  -4.0749878221064822e-06 4.0253051170794843e-04 0.0000000000000000e+00  -4.2473611879088055e-06 4.8920649167489606e-04 0.0000000000000000e+00  -3.1934396344657374e-06 2.1993591062766988e-04 0.0000000000000000e+00  -3.9367032418805070e-06 3.6009942038997051e-04 0.0000000000000000e+00  -3.0960062194087475e-06 2.5670905900563543e-04 0.0000000000000000e+00  -4.1195742928902552e-06 3.1938090176822354e-04 0.0000000000000000e+00  -3.5955655647200254e-06 2.8645632383065130e-04 0.0000000000000000e+00  -2.3878996995067111e-06 1.2343016528587275e-04 0.0000000000000000e+00  -4.1573320702256746e-06 7.0132527719973575e-04 0.0000000000000000e+00  -1.1375532562208136e-06 3.4481954797990892e-05 0.0000000000000000e+00  5.8323327144421138e-06 7.5575731446355537e-04 0.0000000000000000e+00  1.3829260297589843e-06 4.6936636520648195e-06 0.0000000000000000e+00  4.3269046195337264e-06 5.9942290517264794e-04 0.0000000000000000e+00  4.3708158674819700e-06 6.4379488749643544e-04 0.0000000000000000e+00  -3.6991041176295876e-06 1.5127145431100796e-05 0.0000000000000000e+00  -6.2209713450695346e-06 6.2156339352996881e-05 0.0000000000000000e+00  4.2499643852539352e-06 4.6733598511963689e-04 0.0000000000000000e+00  4.2924770373186635e-06 5.5517106129969733e-04 0.0000000000000000e+00  -9.4280378024661204e-06 1.6597190554473127e-04 0.0000000000000000e+00  4.2360225097008096e-06 4.2397818823534592e-04 0.0000000000000000e+00  -7.2294004378738623e-06 8.7967761084392835e-05 0.0000000000000000e+00  -1.0127737800890928e-05 2.0151487929155658e-04 0.0000000000000000e+00  4.2232981580979587e-06 3.8119277126384384e-04 0.0000000000000000e+00  4.2677025485983773e-06 5.1110900887491311e-04 0.0000000000000000e+00  -1.2373009156089274e-05 2.3880828192056073e-04 0.0000000000000000e+00  4.2101261826793357e-06 3.3916669444008103e-04 0.0000000000000000e+00  -4.0571807991938590e-07 3.9920308058396815e-07 0.0000000000000000e+00  2.1800472262537710e-07 2.8912791564181174e-07 0.0000000000000000e+00  -1.1313153024898566e-05 7.9472702355726818e-04 0.0000000000000000e+00  -2.3242182351740347e-06 4.8366636372147397e-06 0.0000000000000000e+00  6.0378421522651514e-06 3.0265495602199916e-04 0.0000000000000000