<?xml version="1.0"?>
<VTKFile type="UnstructuredGrid"  version="0.1"  >
<UnstructuredGrid>
<Piece  NumberOfPoints="1419" NumberOfCells="2698">
<Points>
<DataArray  type="Float64"  NumberOfComponents="3"  format="ascii">0 0 0  0 0.41 0  2.5 0 0  2.5 0.41 0  0.6 0.19 0  0.6 0.21 0  0.25 0.2 0  0.15 0.2 0  0.2489897948556636 0.21 0  0.2489897948556636 0.19 0  0.6 0.2 0  0 0.3807142857143437 0  0 0.3514285714286952 0  0 0.3221428571430699 0  0 0.29285714285744 0  0 0.2635714285718054 0  0 0.2342857142861561 0  0 0.2050000000005308 0  0 0.175714285714732 0  0 0.1464285714289574 0  0 0.1171428571431897 0  0 0.08785714285737878 0  0 0.05857142857161107 0  0 0.02928571428580012 0  0.03015443760436003 0 0  0.06140001986583606 0 0  0.09377624077125973 0 0  0.1273239957535082 0 0  0.1620856860351972 0 0  0.1981052433264291 0 0  0.235428184091502 0 0  0.2741016576309132 0 0  0.3141745521465447 0 0  0.3556974926295285 0 0  0.3987229542472677 0 0  0.4433053055141081 0 0  0.4895008759286886 0 0  0.5373680609405097 0 0  0.5869673343216626 0 0  0.6383613676634521 0 0  0.6916151138468254 0 0  0.7467958595648856 0 0  0.8039733463919316 0 0  0.8632198139502143 0 0  0.9246101326867038 0 0  0.9882218810934433 0 0  1.054135445558498 0 0  1.122434100542598 0 0  1.193204177141305 0 0  1.266535089879536 0 0  1.342519516046404 0 0  1.421253448503939 0 0  1.502836389106271 0 0  1.587371439758838 0 0  1.674965418777374 0 0  1.765729001825544 0 0  1.859776908880082 0 0  1.957227977487062 0 0  2.058205329869943 0 0  2.162836591189951 0 0  2.271253957290865 0 0  2.383594446803425 0 0  2.5 0.1024999999997612 0  2.5 0.2049999999994743 0  2.5 0.3074999999997183 0  2.383594446803656 0.41 0  2.271253957291315 0.41 0  2.162836591190598 0.41 0  2.058205329870775 0.41 0  1.957227977488067 0.41 0  1.859776908881246 0.41 0  1.765729001826854 0.41 0  1.674965418778818 0.41 0  1.58737143976041 0.41 0  1.502836389107956 0.41 0  1.421253448505726 0.41 0  1.342519516048286 0.41 0  1.266535089881505 0.41 0  1.193204177143353 0.41 0  1.122434100544716 0.41 0  1.05413544556068 0.41 0  0.9882218810956305 0.41 0  0.9246101326886647 0.41 0  0.8632198139519631 0.41 0  0.8039733463934788 0.41 0  0.7467958595662458 0.41 0  0.6916151138480078 0.41 0  0.6383613676644679 0.41 0  0.5869673343225223 0.41 0  0.5373680609412221 0.41 0  0.4895008759292634 0.41 0  0.4433053055145528 0.41 0  0.3987229542475914 0.41 0  0.3556974926297398 0.41 0  0.3141745521466497 0.41 0  0.2741016576310038 0.41 0  0.2354281840915826 0.41 0  0.1981052433265003 0.41 0  0.1620856860352591 0.41 0  0.1273239957535623 0.41 0  0.09377624077128965 0.41 0  0.06140001986584975 0.41 0  0.03015443760436654 0.41 0  0.2497468076502589 0.2050254481002335 0  0.2497468076502614 0.1949745518997913 0  0.2469965252529372 0.1829317073451959 0  0.2439893735792749 0.1762316384219906 0  0.2400332147834255 0.1700443375285386 0  0.2352133972704371 0.1645032867342007 0  0.2296339016332438 0.1597280261969788 0  0.2234150974217223 0.1558215752574715 0  0.2166911463437691 0.1528682099456123 0  0.2096071079204251 0.1509316448471593 0  0.2023158100364996 0.1500536585536553 0  0.194974551899914 0.1502531923497262 0  0.1877417105387872 0.1515259415822739 0  0.1807733240461124 0.153844448527136 0  0.1742197252835808 0.15715869474974 0  0.1682222986673531 0.1613971801805478 0  0.162910430003803 0.1664684656256651 0  0.1583987151779087 0.1722631454351573 0  0.1547844879126891 0.178656207771761 0  0.1521457199348551 0.1855097315605723 0  0.1505393388476355 0.1926758619366523 0  0.1505393388476328 0.2073241380633295 0  0.1521457199348437 0.2144902684393899 0  0.1547844879126531 0.221343792228163 0  0.1583987151778488 0.2277368545647528 0  0.1629104300036858 0.2335315343742052 0  0.1682222986671726 0.2386028198193036 0  0.1742197252833576 0.2428413052501257 0  0.1807733240458683 0.2461555514727623 0  0.1877417105384929 0.2484740584176516 0  0.1949745518995776 0.2497468076502398 0  0.202315810036185 0.2499463414463592 0  0.2096071079201568 0.2490683551528932 0  0.2166911463435495 0.2471317900544655 0  0.2234150974215506 0.2441784247426195 0  0.2296339016331197 0.2402719738031125 0  0.2352133972703547 0.2354967132658811 0  0.2400332147833751 0.2299556624715287 0  0.2439893735792577 0.2237683615780412 0  0.246996525252926 0.2170682926548348 0  0.25645809709277 0.21 0  0.2639263993298655 0.21 0  0.271394701566961 0.21 0  0.2788630038040554 0.21 0  0.2863313060411479 0.21 0  0.2937996082782405 0.21 0  0.301267910515333 0.21 0  0.3087362127524279 0.21 0  0.3162045149895234 0.21 0  0.3236728172265972 0.21 0  0.3311411194636928 0.21 0  0.3386094217007701 0.21 0  0.3460777239378666 0.21 0  0.3535460261749672 0.21 0  0.3610143284120516 0.21 0  0.3684826306491596 0.21 0  0.3759509328862226 0.21 0  0.383419235123329 0.21 0  0.3908875373604028 0.21 0  0.3983558395975142 0.21 0  0.4058241418345938 0.21 0  0.4132924440716992 0.21 0  0.4207607463087888 0.21 0  0.4282290485459029 0.21 0  0.4356973507830418 0.21 0  0.4431656530201649 0.21 0  0.4506339552573136 0.21 0  0.4581022574944306 0.21 0  0.4655705597315852 0.21 0  0.4730388619686996 0.21 0  0.480507164205851 0.21 0  0.4879754664429498 0.21 0  0.4954437686800938 0.21 0  0.502912070917267 0.21 0  0.5103803731544119 0.21 0  0.5178486753915261 0.21 0  0.5253169776286404 0.21 0  0.5327852798657868 0.21 0  0.5402535821029386 0.21 0  0.54772188434007 0.21 0  0.5551901865771842 0.21 0  0.5626584888143201 0.21 0  0.5701267910514778 0.21 0  0.5775950932886138 0.21 0  0.5850633955257281 0.21 0  0.5925316977628483 0.21 0  0.6 0.2050000000000054 0  0.6 0.1950000000000217 0  0.5925316977628897 0.19 0  0.5850633955257988 0.19 0  0.5775950932887378 0.19 0  0.5701267910515998 0.19 0  0.5626584888145268 0.19 0  0.5551901865773963 0.19 0  0.547721884340339 0.19 0  0.5402535821032429 0.19 0  0.5327852798661811 0.19 0  0.5253169776290537 0.19 0  0.5178486753919799 0.19 0  0.5103803731549078 0.19 0  0.502912070917822 0.19 0  0.4954437686807294 0.19 0  0.4879754664436223 0.19 0  0.4805071642065402 0.19 0  0.4730388619694271 0.19 0  0.4655705597323621 0.19 0  0.4581022574952563 0.19 0  0.4506339552581777 0.19 0  0.4431656530210671 0.19 0  0.4356973507839815 0.19 0  0.4282290485468779 0.19 0  0.4207607463097617 0.19 0  0.4132924440726327 0.19 0  0.4058241418354857 0.19 0  0.3983558395983636 0.19 0  0.3908875373612097 0.19 0  0.3834192351240934 0.19 0  0.3759509328869369 0.19 0  0.3684826306498175 0.19 0  0.361014328412667 0.19 0  0.3535460261755617 0.19 0  0.3460777239384295 0.19 0  0.3386094217012945 0.19 0  0.3311411194641595 0.19 0  0.3236728172270245 0.19 0  0.3162045149898895 0.19 0  0.3087362127527544 0.19 0  0.3012679105156187 0.19 0  0.2937996082784807 0.19 0  0.2863313060413428 0.19 0  0.2788630038042048 0.19 0  0.2713947015670686 0.19 0  0.2639263993299336 0.19 0  0.2564580970927985 0.19 0  0.2607803159922026 0.2000727136295815 0  0.5887803774232762 0.2001272386983733 0  0.5745072403740523 0.2002044435018727 0  0.5511891430099709 0.2001122610077113 0  0.2751288526855082 0.20000000000002 0  0.5365194309847112 0.1999999999999436 0  0.2894621222999649 0.1998691686390484 0  0.5215828265105155 0.1999999999999228 0  0.3127789816668748 0.1998657885438805 0  0.3274069683451451 0.2000000000000796 0  0.5066462220363641 0.199999999999908 0  0.3650630746574081 0.199866017807523 0  0.476773013087985 0.1999999999998713 0  0.3417402379596385 0.1998691686391011 0  0.3796850840047755 0.200000000000134 0  0.4618364086138087 0.1999999999998546 0  0.4917096175621762 0.1999999999998808 0  0.3946216884789568 0.2000000000001512 0  0.446899804139621 0.1999999999998389 0  0.4089549580935208 0.1998691686391595 0  0.4322718174608562 0.200127451265745 0  0.4201487168029707 0.1999966199048527 0  0.3528922713220932 0.2000185703532356 0  0.5633122436674589 0.1999814296467508 0  0.3006558810093873 0.1999966199048318 0  0.5815926498168407 0.1966545283159175 0  0.2677053789419034 0.1964246479135325 0  0.5290511287476175 0.1970915826863981 0  0.5439877332217911 0.197091582686394 0  0.2825131256993216 0.2035478995978015 0  0.3199386661080599 0.202908417313604 0  0.4842413153250809 0.1970915826863873 0  0.5141145242734466 0.1970915826863843 0  0.3722167817676917 0.2029084173136195 0  0.4693047108508938 0.1970915826863783 0  0.3348752705822316 0.202908417313609 0  0.3871533862418661 0.2029084173136212 0  0.4543681063767183 0.1970915826863795 0  0.4991779197992749 0.1970915826863902 0  0.4020059614928624 0.203547899597858 0  0.4394315019025246 0.1970915826863714 0  0.2550657455369551 0.2034088125358657 0  0.2548908499171161 0.1966940311614271 0  0.5946539510196798 0.2024302972968126 0  0.267698176732111 0.2039977513680092 0  0.4261685417851465 0.196409292431739 0  0.3590076176283495 0.196411355804271 0  0.5571672426447437 0.2036011176410121 0  0.3066757059912147 0.1964092924317024 0  0.594380730180568 0.1966558399668133 0  0.4842413153245942 0.2040749161535287 0  0.4693047108503577 0.2040749161535231 0  0.3871533862424271 0.1959250838464788 0  0.372246743208829 0.1959123236376545 0  0.5141145242731028 0.2040749161535395 0  0.4543681063761134 0.2040749161535186 0  0.4019979587101454 0.1959834479682427 0  0.4394608940728603 0.2040870543693135 0  0.5439623148931173 0.2040856076781014 0  0.5290511287473298 0.2040749161535501 0  0.4991779197988497 0.2040749161535382 0  0.3347912413592433 0.1959225448935183 0  0.3199680582793816 0.1959123018030061 0  0.2825051229162361 0.1959834479681729 0  0.3590471196690275 0.2036304442587945 0  0.5571594006495384 0.1963685282145804 0  0.3067669986803285 0.203627750582736 0  0.4262598344738712 0.2036568242185335 0  0.5814408164431408 0.2041285596160068 0  0.5688286748170428 0.1961819304477386 0  0.4145905603063645 0.2038180695522843 0  0.3473758401724931 0.2038180695522752 0  0.2950977245128307 0.2038180695522663 0  0.5688286748170693 0.203818069552238 0  0.2950977245127906 0.1961819304477774 0  0.3473758401723931 0.1961819304478349 0  0.4145905603061963 0.1961819304479011 0  0.2601812407614425 0.2056861609747042
[...]
<PointData  Vectors="f_40-0"> 
<DataArray  type="Float64"  Name="f_40-0"  NumberOfComponents="3" format="ascii">0.0000000000000000e+00 0.0000000000000000e+00 0.0000000000000000e+00  0.0000000000000000e+00 0.0000000000000000e+00 0.0000000000000000e+00  0.0000000000000000e+00 0.0000000000000000e+00 0.0000000000000000e+00  0.0000000000000000e+00 0.0000000000000000e+00 0.0000000000000000e+00  3.5001086187910290e-05 1.0090904715940117e-03 0.0000000000000000e+00  -4.0920843701939667e-05 1.0092093472701680e-03 0.0000000000000000e+00  0.0000000000000000e+00 0.0000000000000000e+00 0.0000000000000000e+00  0.0000000000000000e+00 0.0000000000000000e+00 0.0000000000000000e+00  0.0000000000000000e+00 0.0000000000000000e+00 0.0000000000000000e+00  0.0000000000000000e+00 0.0000000000000000e+00 0.0000000000000000e+00  -2.9424817563414484e-06 1.0091425375921620e-03 0.0000000000000000e+00  7.9591836734548407e-02 0.0000000000000000e+00 0.0000000000000000e+00  1.4693877550994527e-01 0.0000000000000000e+00 0.0000000000000000e+00  2.0204081632617479e-01 0.0000000000000000e+00 0.0000000000000000e+00  2.4489795918330076e-01 0.0000000000000000e+00 0.0000000000000000e+00  2.7551020408131754e-01 0.0000000000000000e+00 0.0000000000000000e+00  2.9387755102022350e-01 0.0000000000000000e+00 0.0000000000000000e+00  3.0000000000000004e-01 0.0000000000000000e+00 0.0000000000000000e+00  2.9387755102059482e-01 0.0000000000000000e+00 0.0000000000000000e+00  2.7551020408195548e-01 0.0000000000000000e+00 0.0000000000000000e+00  2.4489795918409071e-01 0.0000000000000000e+00 0.0000000000000000e+00  2.0204081632692525e-01 0.0000000000000000e+00 0.0000000000000000e+00  1.4693877551058568e-01 0.0000000000000000e+00 0.0000000000000000e+00  7.9591836734909230e-02 0.0000000000000000e+00 0.0000000000000000e+00  0.0000000000000000e+00 0.0000000000000000e+00 0.0000000000000000e+00  0.0000000000000000e+00 0.0000000000000000e+00 0.0000000000000000e+00  0.0000000000000000e+00 0.0000000000000000e+00 0.0000000000000000e+00  0.0000000000000000e+00 0.0000000000000000e+00 0.0000000000000000e+00  0.0000000000000000e+00 0.0000000000000000e+00 0.0000000000000000e+00  0.0000000000000000e+00 0.0000000000000000e+00 0.0000000000000000e+00  0.0000000000000000e+00 0.0000000000000000e+00 0.0000000000000000e+00  0.0000000000000000e+00 0.0000000000000000e+00 0.0000000000000000e+00  0.0000000000000000e+00 0.0000000000000000e+00 0.0000000000000000e+00  0.0000000000000000e+00 0.0000000000000000e+00 0.0000000000000000e+00  0.0000000000000000e+00 0.0000000000000000e+00 0.0000000000000000e+00  0.0000000000000000e+00 0.0000000000000000e+00 0.0000000000000000e+00  0.0000000000000000e+00 0.0000000000000000e+00 0.0000000000000000e+00  0.0000000000000000e+00 0.0000000000000000e+00 0.0000000000000000e+00  0.0000000000000000e+00 0.0000000000000000e+00 0.0000000000000000e+00  0.0000000000000000e+00 0.0000000000000000e+00 0.0000000000000000e+00  0.0000000000000000e+00 0.0000000000000000e+00 0.0000000000000000e+00  0.0000000000000000e+00 0.0000000000000000e+00 0.0000000000000000e+00  0.0000000000000000e+00 0.0000000000000000e+00 0.0000000000000000e+00  0.0000000000000000e+00 0.0000000000000000e+00 0.0000000000000000e+00  0.0000000000000000e+00 0.0000000000000000e+00 0.0000000000000000e+00  0.0000000000000000e+00 0.0000000000000000e+00 0.0000000000000000e+00  0.0000000000000000e+00 0.0000000000000000e+00 0.0000000000000000e+00  0.0000000000000000e+00 0.0000000000000000e+00 0.0000000000000000e+00  0.0000000000000000e+00 0.0000000000000000e+00 0.0000000000000000e+00  0.0000000000000000e+00 0.0000000000000000e+00 0.0000000000000000e+00  0.0000000000000000e+00 0.0000000000000000e+00 0.0000000000000000e+00  0.0000000000000000e+00 0.0000000000000000e+00 0.0000000000000000e+00  0.0000000000000000e+00 0.0000000000000000e+00 0.0000000000000000e+00  0.0000000000000000e+00 0.0000000000000000e+00 0.0000000000000000e+00  0.0000000000000000e+00 0.0000000000000000e+00 0.0000000000000000e+00  0.0000000000000000e+00 0.0000000000000000e+00 0.0000000000000000e+00  0.0000000000000000e+00 0.0000000000000000e+00 0.0000000000000000e+00  0.0000000000000000e+00 0.0000000000000000e+00 0.0000000000000000e+00  0.0000000000000000e+00 0.0000000000000000e+00 0.0000000000000000e+00  0.0000000000000000e+00 0.0000000000000000e+00 0.0000000000000000e+00  0.0000000000000000e+00 0.0000000000000000e+00 0.0000000000000000e+00  0.0000000000000000e+00 0.0000000000000000e+00 0.0000000000000000e+00  2.4379909984653186e-01 -5.2485308279628376e-03 0.0000000000000000e+00  2.8503819593594065e-01 3.1079697208919446e-03 0.0000000000000000e+00  2.4919152724406107e-01 8.8878405749215610e-03 0.0000000000000000e+00  0.0000000000000000e+00 0.0000000000000000e+00 0.0000000000000000e+00  0.0000000000000000e+00 0.0000000000000000e+00 0.0000000000000000e+00  0.0000000000000000e+00 0.0000000000000000e+00 0.0000000000000000e+00  0.0000000000000000e+00 0.0000000000000000e+00 0.0000000000000000e+00  0.0000000000000000e+00 0.0000000000000000e+00 0.0000000000000000e+00  0.0000000000000000e+00 0.0000000000000000e+00 0.0000000000000000e+00  0.0000000000000000e+00 0.0000000000000000e+00 0.0000000000000000e+00  0.0000000000000000e+00 0.0000000000000000e+00 0.0000000000000000e+00  0.0000000000000000e+00 0.0000000000000000e+00 0.0000000000000000e+00  0.0000000000000000e+00 0.0000000000000000e+00 0.0000000000000000e+00  0.0000000000000000e+00 0.0000000000000000e+00 0.0000000000000000e+00  0.0000000000000000e+00 0.0000000000000000e+00 0.0000000000000000e+00  0.0000000000000000e+00 0.0000000000000000e+00 0.0000000000000000e+00  0.0000000000000000e+00 0.0000000000000000e+00 0.0000000000000000e+00  0.0000000000000000e+00 0.0000000000000000e+00 0.0000000000000000e+00  0.0000000000000000e+00 0.0000000000000000e+00 0.0000000000000000e+00  0.0000000000000000e+00 0.0000000000000000e+00 0.0000000000000000e+00  0.0000000000000000e+00 0.0000000000000000e+00 0.0000000000000000e+00  0.0000000000000000e+00 0.0000000000000000e+00 0.0000000000000000e+00  0.0000000000000000e+00 0.0000000000000000e+00 0.0000000000000000e+00  0.0000000000000000e+00 0.0000000000000000e+00 0.0000000000000000e+00  0.0000000000000000e+00 0.0000000000000000e+00 0.0000000000000000e+00  0.0000000000000000e+00 0.0000000000000000e+00 0.0000000000000000e+00  0.0000000000000000e+00 0.0000000000000000e+00 0.0000000000000000e+00  0.0000000000000000e+00 0.0000000000000000e+00 0.0000000000000000e+00  0.0000000000000000e+00 0.0000000000000000e+00 0.0000000000000000e+00  0.0000000000000000e+00 0.0000000000000000e+00 0.0000000000000000e+00  0.0000000000000000e+00 0.0000000000000000e+00 0.0000000000000000e+00  0.0000000000000000e+00 0.0000000000000000e+00 0.0000000000000000e+00  0.0000000000000000e+00 0.0000000000000000e+00 0.0000000000000000e+00  0.0000000000000000e+00 0.0000000000000000e+00 0.0000000000000000e+00  0.0000000000000000e+00 0.0000000000000000e+00 0.0000000000000000e+00  0.0000000000000000e+00 0.0000000000000000e+00 0.0000000000000000e+00  0.0000000000000000e+00 0.0000000000000000e+00 0.0000000000000000e+00  0.0000000000000000e+00 0.0000000000000000e+00 0.0000000000000000e+00  0.0000000000000000e+00 0.0000000000000000e+00 0.0000000000000000e+00  0.0000000000000000e+00 0.0000000000000000e+00 0.0000000000000000e+00  0.0000000000000000e+00 0.0000000000000000e+00 0.0000000000000000e+00  0.0000000000000000e+00 0.0000000000000000e+00 0.0000000000000000e+00  0.0000000000000000e+00 0.0000000000000000e+00 0.0000000000000000e+00  0.0000000000000000e+00 0.0000000000000000e+00 0.0000000000000000e+00  0.0000000000000000e+00 0.0000000000000000e+00 0.0000000000000000e+00  0.0000000000000000e+00 0.0000000000000000e+00 0.0000000000000000e+00  0.0000000000000000e+00 0.0000000000000000e+00 0.0000000000000000e+00  0.0000000000000000e+00 0.0000000000000000e+00 0.0000000000000000e+00  0.0000000000000000e+00 0.0000000000000000e+00 0.0000000000000000e+00  0.0000000000000000e+00 0.0000000000000000e+00 0.0000000000000000e+00  0.0000000000000000e+00 0.0000000000000000e+00 0.0000000000000000e+00  0.0000000000000000e+00 0.0000000000000000e+00 0.0000000000000000e+00  0.0000000000000000e+00 0.0000000000000000e+00 0.0000000000000000e+00  0.0000000000000000e+00 0.0000000000000000e+00 0.0000000000000000e+00  0.0000000000000000e+00 0.0000000000000000e+00 0.0000000000000000e+00  0.0000000000000000e+00 0.0000000000000000e+00 0.0000000000000000e+00  0.0000000000000000e+00 0.0000000000000000e+00 0.0000000000000000e+00  0.0000000000000000e+00 0.0000000000000000e+00 0.0000000000000000e+00  0.0000000000000000e+00 0.0000000000000000e+00 0.0000000000000000e+00  0.0000000000000000e+00 0.0000000000000000e+00 0.0000000000000000e+00  0.0000000000000000e+00 0.0000000000000000e+00 0.0000000000000000e+00  0.0000000000000000e+00 0.0000000000000000e+00 0.0000000000000000e+00  0.0000000000000000e+00 0.0000000000000000e+00 0.0000000000000000e+00  0.0000000000000000e+00 0.0000000000000000e+00 0.0000000000000000e+00  0.0000000000000000e+00 0.0000000000000000e+00 0.0000000000000000e+00  0.0000000000000000e+00 0.0000000000000000e+00 0.0000000000000000e+00  0.0000000000000000e+00 0.0000000000000000e+00 0.0000000000000000e+00  0.0000000000000000e+00 0.0000000000000000e+00 0.0000000000000000e+00  0.0000000000000000e+00 0.0000000000000000e+00 0.0000000000000000e+00  0.0000000000000000e+00 0.0000000000000000e+00 0.0000000000000000e+00  0.0000000000000000e+00 0.0000000000000000e+00 0.0000000000000000e+00  0.0000000000000000e+00 0.0000000000000000e+00 0.0000000000000000e+00  0.0000000000000000e+00 0.0000000000000000e+00 0.0000000000000000e+00  0.0000000000000000e+00 0.0000000000000000e+00 0.0000000000000000e+00  0.0000000000000000e+00 0.0000000000000000e+00 0.0000000000000000e+00  0.0000000000000000e+00 0.0000000000000000e+00 0.0000000000000000e+00  0.0000000000000000e+00 0.0000000000000000e+00 0.0000000000000000e+00  0.0000000000000000e+00 0.0000000000000000e+00 0.0000000000000000e+00  0.0000000000000000e+00 0.0000000000000000e+00 0.0000000000000000e+00  0.0000000000000000e+00 0.0000000000000000e+00 0.0000000000000000e+00  0.0000000000000000e+00 0.0000000000000000e+00 0.0000000000000000e+00  -2.2693876266169441e-06 1.8712776470355026e-06 0.0000000000000000e+00  -4.8250674572280964e-06 4.5369423537894554e-06 0.0000000000000000e+00  -7.0626965555423006e-06 8.8847677282358918e-06 0.0000000000000000e+00  -9.4678918598185437e-06 1.5003257077207265e-05 0.0000000000000000e+00  -1.1460066152226589e-05 2.2588928407892710e-05 0.0000000000000000e+00  -1.3709002228811953e-05 3.1776194635084487e-05 0.0000000000000000e+00  -1.5502563770625326e-05 4.2140841128372309e-05 0.0000000000000000e+00  -1.7230734117750974e-05 5.4048245356104040e-05 0.0000000000000000e+00  -1.9205245030263688e-05 6.7116318088601045e-05 0.0000000000000000e+00  -2.0695548138022176e-05 8.1387854801019625e-05 0.0000000000000000e+00  -2.2505688176763498e-05 9.6835261885013177e-05 0.0000000000000000e+00  -2.3849790980373601e-05 1.1335727786105671e-04 0.0000000000000000e+00  -2.5428997351007795e-05 1.3091390929219403e-04 0.0000000000000000e+00  -2.6669166562093302e-05 1.4930169455548679e-04 0.0000000000000000e+00  -2.7857228538027537e-05 1.6871377530289946e-04 0.0000000000000000e+00  -2.9192835810200734e-05 1.8889146885400459e-04 0.0000000000000000e+00  -3.0195152925518262e-05 2.0985432968100576e-04 0.0000000000000000e+00  -3.1381589297407865e-05 2.3157587624806960e-04 0.0000000000000000e+00  -3.2254022388878782e-05 2.5397055234902433e-04 0.0000000000000000e+00  -3.3268418788880806e-05 2.7699163884488268e-04 0.0000000000000000e+00  -3.4059873595322628e-05 3.0061310002887145e-04 0.0000000000000000e+00  -3.4918838934643604e-05 3.2480558633200932e-04 0.0000000000000000e+00  -3.5591185270776916e-05 3.4941163769366636e-04 0.0000000000000000e+00  -3.6217036537745881e-05 3.7454868979589889e-04 0.0000000000000000e+00  -3.6889872455314013e-05 4.0003799227507223e-04 0.0000000000000000e+00  -3.7427033168516666e-05 4.2593572599661553e-04 0.0000000000000000e+00  -3.7948190025682069e-05 4.5218264188840113e-04 0.0000000000000000e+00  -3.8387792818138034e-05 4.7871343834797610e-04 0.0000000000000000e+00  -3.8808431033537847e-05 5.0553653628213730e-04 0.0000000000000000e+00  -3.9157763993396553e-05 5.3258207743055977e-04 0.0000000000000000e+00  -3.9487117641000345e-05 5.5985917508279809e-04 0.0000000000000000e+00  -3.9756042541069398e-05 5.8730392590115898e-04 0.0000000000000000e+00  -4.0004466034621022e-05 6.1492606347748099e-04 0.0000000000000000e+00  -4.0202645117124609e-05 6.4267131091463013e-04 0.0000000000000000e+00  -4.0381379265068453e-05 6.7054836724092406e-04 0.0000000000000000e+00  -4.0520212118148538e-05 6.9851095396446239e-04 0.0000000000000000e+00  -4.0642126128357868e-05 7.2656642433707014e-04 0.0000000000000000e+00  -4.0732596447863432e-05 7.5467925735770694e-04 0.0000000000000000e+00  -4.0807474191488651e-05 7.8285516195762954e-04 0.0000000000000000e+00  -4.0859271750428464e-05 8.1106680317501471e-04 0.0000000000000000e+00  -4.0900228846454466e-05 8.3931955192621365e-04 0.0000000000000000e+00  -4.0922499089625150e-05 8.6759140691976386e-04 0.0000000000000000e+00  -4.0932843202751315e-05 8.9588726547703201e-04 0.0000000000000000e+00  -4.0938045286867897e-05 9.2419719724714914e-04 0.0000000000000000e+00  -4.0934626982765617e-05 9.5251978369276583e-04 0.0000000000000000e+00  -4.0922927860969975e-05 9.8085234448505587e-04 0.0000000000000000e+00  -2.1918201175485402e-05 1.0091721683648577e-03 0.0000000000000000e+00  1.6027804788340022e-05 1.0091140876179782e-03 0.0000000000000000e+00  3.4965874924694233e-05 9.8074794185714189e-04 0.0000000000000000e+00  3.4929356668155883e-05 9.5241087871078523e-04 0.0000000000000000e+00  3.4892539319325016e-05 9.2407961523022621e-04 0.0000000000000000e+00  3.4851810183128541e-05 8.9576318765938255e-04 0.0000000000000000e+00  3.4811874193489898e-05 8.6745795765627381e-04 0.0000000000000000e+00  3.4769624214433471e-05 8.3917760188279304e-04 0.0000000000000000e+00  3.4713108219909879e-05 8.1091993277174971e-04 0.0000000000000000e+00  3.4663016711051274e-05 7.8269649192293906e-04 0.0000000000000000e+00  3.4586329786688671e-05 7.5451563189751281e-04 0.0000000000000000e+00  3.4520222357395302e-05 7.2639055266518037e-04 0.0000000000000000e+00  3.4413169859887675e-05 6.9833103880402158e-04 0.0000000000000000e+00  3.4323139295067746e-05 6.7035465326987815e-04 0.0000000000000000e+00  3.4176942642038387e-05 6.4247445224940468e-04 0.0000000000000000e+00  3.4054012341176315e-05 6.1471572706138272e-04 0.0000000000000000e+00  3.3855416493843842e-05 5.8709078552326239e-04 0.0000000000000000e+00  3.3690657938094303e-05 5.5963290912180064e-04 0.0000000000000000e+00  3.3427808539781477e-05 5.3235492953440438e-04 0.0000000000000000e+00  3.3211807228800240e-05 5.0529636002488341e-04 0.0000000000000000e+00  3.2873848730911589e-05 4.7847289931406915e-04 0.0000000000000000e+00  3.2596672001108132e-05 4.5193048107693915e-04 0.0000000000000000e+00  3.2166101254233679e-05 4.2568632957844916e-04 0.0000000000000000e+00  3.1814485489586193e-05 3.9979433572875131e-04 0.0000000000000000e+00  3.1288916874835687e-05 3.7428157085726778e-04 0.0000000000000000e+00  3.0828364344532690e-05 3.4914964501622531e-04 0.0000000000000000e+00  3.0326958370187281e-05 3.2454729824102639e-04 0.0000000000000000e+00  2.9661530015590810e-05 3.0034253860011404e-04 0.0000000000000000e+00  2.9027724043754573e-05 2.7674558463390380e-04 0.0000000000000000e+00  2.8267292713031130e-05 2.5369700322143863e-04 0.0000000000000000e+00  2.7513521356985875e-05 2.3131865221464679e-04 0.0000000000000000e+00  2.6631168073195518e-05 2.0959612311866158e-04 0.0000000000000000e+00  2.5754341936114986e-05 1.8860703639512496e-04 0.0000000000000000e+00  2.4650481646978265e-05 1.6848485589107256e-04 0.0000000000000000e+00  2.3682558318029302e-05 1.4906553955189466e-04 0.0000000000000000e+00  2.2660144416390142e-05 1.3069664661828387e-04 0.0000000000000000e+00  2.1348165486454817e-05 1.1308142053222999e-04 0.0000000000000000e+00  2.0106760553488241e-05 9.6604883684184650e-05 0.0000000000000000e+00  1.8673284232076801e-05 8.1153709862311077e-05 0.0000000000000000e+00  1.7276052043213006e-05 6.6840526990946450e-05 0.0000000000000000e+00  1.5549052554689661e-05 5.3850558879619437e-05 0.0000000000000000e+00  1.4043230263832428e-05 4.1926461631212672e-05 0.0000000000000000e+00  1.2472618145065716e-05 3.1568520522860844e-05 0.0000000000000000e+00  1.0481547585393785e-05 2.2340484694922103e-05 0.0000000000000000e+00  8.6486057353593451e-06 1.4734818955292568e-05 0.0000000000000000e+00  6.4481852311564960e-06 8.7025596150441771e-06 0.0000000000000000e+00  4.4666768576624951e-06 4.3330641043096002e-06 0.0000000000000000e+00  2.1038011387448949e-06 1.6575785060737014e-06 0.0000000000000000e+00  -1.4427505340970814e-07 1.8737280549781664e-06 0.0000000000000000e+00  -3.4660954547721815e-06 9.6656115697445406e-04 0.0000000000000000e+00  -3.8016131936479074e-06 9.1242052716985632e-04 0.0000000000000000e+00  -3.4885260963785195e-06 8.2408476972338756e-04 0.0000000000000000e+00  -3.3584342592211554e-07 1.0573554338232349e-05 0.0000000000000000e+00  -3.0664502145378056e-06 7.6864566776260366e-04 0.0000000000000000e+00  -4.0119765687876390e-07 2.5150090491922866e-05 0.0000000000000000e+00  -3.0502415304751043e-06 7.1238802890106763e-04 0.0000000000000000e+00  -6.5765825632027602e-07 6.0023509872444752e-05 0.0000000000000000e+00  -1.1087533682328753e-06 8.8140242198551233e-05 0.0000000000000000e+00  -3.0135206493132847e-06 6.5642465648882995e-04 0.0000000000000000e+00  -1.2939133824827637e-06 1.7887793879860060e-04 0.0000000000000000e+00  -2.8738352930382655e-06 5.4594818697754541e-04 0.0000000000000000e+00  -1.0177183954811936e-06 1.1979404904379512e-04 0.0000000000000000e+00  -1.8611933752065755e-06 2.2003623718799516e-04 0.0000000000000000e+00  -2.7704283018470751e-06 4.9180117550784344e-04 0.0000000000000000e+00  -2.9549331594270134e-06 6.0088894422265855e-04 0.0000000000000000e+00  -2.0608010557362350e-06 2.6487071602919454e-04 0.0000000000000000e+00  -2.6433517047992049e-06 4.3868064838907989e-04 0.0000000000000000e+00  -1.8186191296712792e-06 3.1019544320704158e-04 0.0000000000000000e+00  -2.9364122853056069e-06 3.8790629086628650e-04 0.0000000000000000e+00  -2.3592851779412695e-06 3.4701984637112288e-04 0.0000000000000000e+00  -1.5277303479754731e-06 1.4710109784450972e-04 0.0000000000000000e+00  -2.9773946975047992e-06 8.6998971471187632e-04 0.0000000000000000e+00  -7.0308385692583071e-07 4.0477216949216451e-05 0.0000000000000000e+00  9.6803436544755875e-06 9.3927386268830297e-04 0.0000000000000000e+00  1.8267409470856435e-06 5.4625587680862300e-06 0.0000000000000000e+00  7.8789761065048450e-06 7.4046904322394894e-04 0.0000000000000000e+00  7.9132717822664736e-06 7.9683343646499440e-04 0.0000000000000000e+00  -3.9575193058488514e-06 1.7600695948905084e-05 0.0000000000000000e+00  -6.5262374281482402e-06 7.3362586059798571e-05 0.0000000000000000e+00  7.7526017047269977e-06 5.7331788971265647e-04 0.0000000000000000e+00  7.8433961090272562e-06 6.8434448226256271e-04 0.0000000000000000e+00  -9.8904189236494222e-06 1.9875665033969021e-04 0.0000000000000000e+00  7.6855987160152556e-06 5.1874986128501487e-04 0.0000000000000000e+00  -7.5738738832279000e-06 1.0428642339661837e-04 0.0000000000000000e+00  -1.0635306218833419e-05 2.4222433064927031e-04 0.0000000000000000e+00  7.5965060908124985e-06 4.6508821230234595e-04 0.0000000000000000e+00  7.8031582325982443e-06 6.2857688582219657e-04 0.0000000000000000e+00  -1.3310175195023475e-05 2.8807156617724131e-04 0.0000000000000000e+00  7.4835943222515080e-06 4.1258157758675108e-04 0.0000000000000000e+00  -4.3274217979480358e-07 4.2522850296113350e-07 0.0000000000000000e+00  2.9475350931863070e-07 3.4049095528106604e-07 0.0000000000000000e+00  -1.2184170843443034e-05 9.8886362804438102e-04 0.0000000000000000e+00  -2.5190264280710141e-06 5.5508729117472399e-06 0.0000000000000000e+00  9.6471375231121092e-06 3.6715428161159208e-04 0.0000000000000000