<?xml version="1.0"?>
<VTKFile type="UnstructuredGrid"  version="0.1"  >
<UnstructuredGrid>
<Piece  NumberOfPoints="1419" NumberOfCells="2698">
<Points>
<DataArray  type="Float64"  NumberOfComponents="3"  format="ascii">0 0 0  0 0.41 0  2.5 0 0  2.5 0.41 0  0.6 0.19 0  0.6 0.21 0  0.25 0.2 0  0.15 0.2 0  0.2489897948556636 0.21 0  0.2489897948556636 0.19 0  0.6 0.2 0  0 0.3807142857143437 0  0 0.3514285714286952 0  0 0.3221428571430699 0  0 0.29285714285744 0  0 0.2635714285718054 0  0 0.2342857142861561 0  0 0.2050000000005308 0  0 0.175714285714732 0  0 0.1464285714289574 0  0 0.1171428571431897 0  0 0.08785714285737878 0  0 0.05857142857161107 0  0 0.02928571428580012 0  0.03015443760436003 0 0  0.06140001986583606 0 0  0.09377624077125973 0 0  0.1273239957535082 0 0  0.1620856860351972 0 0  0.1981052433264291 0 0  0.235428184091502 0 0  0.2741016576309132 0 0  0.3141745521465447 0 0  0.3556974926295285 0 0  0.3987229542472677 0 0  0.4433053055141081 0 0  0.4895008759286886 0 0  0.5373680609405097 0 0  0.5869673343216626 0 0  0.6383613676634521 0 0  0.6916151138468254 0 0  0.7467958595648856 0 0  0.8039733463919316 0 0  0.8632198139502143 0 0  0.9246101326867038 0 0  0.9882218810934433 0 0  1.054135445558498 0 0  1.122434100542598 0 0  1.193204177141305 0 0  1.266535089879536 0 0  1.342519516046404 0 0  1.421253448503939 0 0  1.502836389106271 0 0  1.587371439758838 0 0  1.674965418777374 0 0  1.765729001825544 0 0  1.859776908880082 0 0  1.957227977487062 0 0  2.058205329869943 0 0  2.162836591189951 0 0  2.271253957290865 0 0  2.383594446803425 0 0  2.5 0.1024999999997612 0  2.5 0.2049999999994743 0  2.5 0.3074999999997183 0  2.383594446803656 0.41 0  2.271253957291315 0.41 0  2.162836591190598 0.41 0  2.058205329870775 0.41 0  1.957227977488067 0.41 0  1.859776908881246 0.41 0  1.765729001826854 0.41 0  1.674965418778818 0.41 0  1.58737143976041 0.41 0  1.502836389107956 0.41 0  1.421253448505726 0.41 0  1.342519516048286 0.41 0  1.266535089881505 0.41 0  1.193204177143353 0.41 0  1.122434100544716 0.41 0  1.05413544556068 0.41 0  0.9882218810956305 0.41 0  0.9246101326886647 0.41 0  0.8632198139519631 0.41 0  0.8039733463934788 0.41 0  0.7467958595662458 0.41 0  0.6916151138480078 0.41 0  0.6383613676644679 0.41 0  0.5869673343225223 0.41 0  0.5373680609412221 0.41 0  0.4895008759292634 0.41 0  0.4433053055145528 0.41 0  0.3987229542475914 0.41 0  0.3556974926297398 0.41 0  0.3141745521466497 0.41 0  0.2741016576310038 0.41 0  0.2354281840915826 0.41 0  0.1981052433265003 0.41 0  0.1620856860352591 0.41 0  0.1273239957535623 0.41 0  0.09377624077128965 0.41 0  0.06140001986584975 0.41 0  0.03015443760436654 0.41 0  0.2497468076502589 0.2050254481002335 0  0.2497468076502614 0.1949745518997913 0  0.2469965252529372 0.1829317073451959 0  0.2439893735792749 0.1762316384219906 0  0.2400332147834255 0.1700443375285386 0  0.2352133972704371 0.1645032867342007 0  0.2296339016332438 0.1597280261969788 0  0.2234150974217223 0.1558215752574715 0  0.2166911463437691 0.1528682099456123 0  0.2096071079204251 0.1509316448471593 0  0.2023158100364996 0.1500536585536553 0  0.194974551899914 0.1502531923497262 0  0.1877417105387872 0.1515259415822739 0  0.1807733240461124 0.153844448527136 0  0.1742197252835808 0.15715869474974 0  0.1682222986673531 0.1613971801805478 0  0.162910430003803 0.1664684656256651 0  0.1583987151779087 0.1722631454351573 0  0.1547844879126891 0.178656207771761 0  0.1521457199348551 0.1855097315605723 0  0.1505393388476355 0.1926758619366523 0  0.1505393388476328 0.2073241380633295 0  0.1521457199348437 0.2144902684393899 0  0.1547844879126531 0.221343792228163 0  0.1583987151778488 0.2277368545647528 0  0.1629104300036858 0.2335315343742052 0  0.1682222986671726 0.2386028198193036 0  0.1742197252833576 0.2428413052501257 0  0.1807733240458683 0.2461555514727623 0  0.1877417105384929 0.2484740584176516 0  0.1949745518995776 0.2497468076502398 0  0.202315810036185 0.2499463414463592 0  0.2096071079201568 0.2490683551528932 0  0.2166911463435495 0.2471317900544655 0  0.2234150974215506 0.2441784247426195 0  0.2296339016331197 0.2402719738031125 0  0.2352133972703547 0.2354967132658811 0  0.2400332147833751 0.2299556624715287 0  0.2439893735792577 0.2237683615780412 0  0.246996525252926 0.2170682926548348 0  0.25645809709277 0.21 0  0.2639263993298655 0.21 0  0.271394701566961 0.21 0  0.2788630038040554 0.21 0  0.2863313060411479 0.21 0  0.2937996082782405 0.21 0  0.301267910515333 0.21 0  0.3087362127524279 0.21 0  0.3162045149895234 0.21 0  0.3236728172265972 0.21 0  0.3311411194636928 0.21 0  0.3386094217007701 0.21 0  0.3460777239378666 0.21 0  0.3535460261749672 0.21 0  0.3610143284120516 0.21 0  0.3684826306491596 0.21 0  0.3759509328862226 0.21 0  0.383419235123329 0.21 0  0.3908875373604028 0.21 0  0.3983558395975142 0.21 0  0.4058241418345938 0.21 0  0.4132924440716992 0.21 0  0.4207607463087888 0.21 0  0.4282290485459029 0.21 0  0.4356973507830418 0.21 0  0.4431656530201649 0.21 0  0.4506339552573136 0.21 0  0.4581022574944306 0.21 0  0.4655705597315852 0.21 0  0.4730388619686996 0.21 0  0.480507164205851 0.21 0  0.4879754664429498 0.21 0  0.4954437686800938 0.21 0  0.502912070917267 0.21 0  0.5103803731544119 0.21 0  0.5178486753915261 0.21 0  0.5253169776286404 0.21 0  0.5327852798657868 0.21 0  0.5402535821029386 0.21 0  0.54772188434007 0.21 0  0.5551901865771842 0.21 0  0.5626584888143201 0.21 0  0.5701267910514778 0.21 0  0.5775950932886138 0.21 0  0.5850633955257281 0.21 0  0.5925316977628483 0.21 0  0.6 0.2050000000000054 0  0.6 0.1950000000000217 0  0.5925316977628897 0.19 0  0.5850633955257988 0.19 0  0.5775950932887378 0.19 0  0.5701267910515998 0.19 0  0.5626584888145268 0.19 0  0.5551901865773963 0.19 0  0.547721884340339 0.19 0  0.5402535821032429 0.19 0  0.5327852798661811 0.19 0  0.5253169776290537 0.19 0  0.5178486753919799 0.19 0  0.5103803731549078 0.19 0  0.502912070917822 0.19 0  0.4954437686807294 0.19 0  0.4879754664436223 0.19 0  0.4805071642065402 0.19 0  0.4730388619694271 0.19 0  0.4655705597323621 0.19 0  0.4581022574952563 0.19 0  0.4506339552581777 0.19 0  0.4431656530210671 0.19 0  0.4356973507839815 0.19 0  0.4282290485468779 0.19 0  0.4207607463097617 0.19 0  0.4132924440726327 0.19 0  0.4058241418354857 0.19 0  0.3983558395983636 0.19 0  0.3908875373612097 0.19 0  0.3834192351240934 0.19 0  0.3759509328869369 0.19 0  0.3684826306498175 0.19 0  0.361014328412667 0.19 0  0.3535460261755617 0.19 0  0.3460777239384295 0.19 0  0.3386094217012945 0.19 0  0.3311411194641595 0.19 0  0.3236728172270245 0.19 0  0.3162045149898895 0.19 0  0.3087362127527544 0.19 0  0.3012679105156187 0.19 0  0.2937996082784807 0.19 0  0.2863313060413428 0.19 0  0.2788630038042048 0.19 0  0.2713947015670686 0.19 0  0.2639263993299336 0.19 0  0.2564580970927985 0.19 0  0.2607803159922026 0.2000727136295815 0  0.5887803774232762 0.2001272386983733 0  0.5745072403740523 0.2002044435018727 0  0.5511891430099709 0.2001122610077113 0  0.2751288526855082 0.20000000000002 0  0.5365194309847112 0.1999999999999436 0  0.2894621222999649 0.1998691686390484 0  0.5215828265105155 0.1999999999999228 0  0.3127789816668748 0.1998657885438805 0  0.3274069683451451 0.2000000000000796 0  0.5066462220363641 0.199999999999908 0  0.3650630746574081 0.199866017807523 0  0.476773013087985 0.1999999999998713 0  0.3417402379596385 0.1998691686391011 0  0.3796850840047755 0.200000000000134 0  0.4618364086138087 0.1999999999998546 0  0.4917096175621762 0.1999999999998808 0  0.3946216884789568 0.2000000000001512 0  0.446899804139621 0.1999999999998389 0  0.4089549580935208 0.1998691686391595 0  0.4322718174608562 0.200127451265745 0  0.4201487168029707 0.1999966199048527 0  0.3528922713220932 0.2000185703532356 0  0.5633122436674589 0.1999814296467508 0  0.3006558810093873 0.1999966199048318 0  0.5815926498168407 0.1966545283159175 0  0.2677053789419034 0.1964246479135325 0  0.5290511287476175 0.1970915826863981 0  0.5439877332217911 0.197091582686394 0  0.2825131256993216 0.2035478995978015 0  0.3199386661080599 0.202908417313604 0  0.4842413153250809 0.1970915826863873 0  0.5141145242734466 0.1970915826863843 0  0.3722167817676917 0.2029084173136195 0  0.4693047108508938 0.1970915826863783 0  0.3348752705822316 0.202908417313609 0  0.3871533862418661 0.2029084173136212 0  0.4543681063767183 0.1970915826863795 0  0.4991779197992749 0.1970915826863902 0  0.4020059614928624 0.203547899597858 0  0.4394315019025246 0.1970915826863714 0  0.2550657455369551 0.2034088125358657 0  0.2548908499171161 0.1966940311614271 0  0.5946539510196798 0.2024302972968126 0  0.267698176732111 0.2039977513680092 0  0.4261685417851465 0.196409292431739 0  0.3590076176283495 0.196411355804271 0  0.5571672426447437 0.2036011176410121 0  0.3066757059912147 0.1964092924317024 0  0.594380730180568 0.1966558399668133 0  0.4842413153245942 0.2040749161535287 0  0.4693047108503577 0.2040749161535231 0  0.3871533862424271 0.1959250838464788 0  0.372246743208829 0.1959123236376545 0  0.5141145242731028 0.2040749161535395 0  0.4543681063761134 0.2040749161535186 0  0.4019979587101454 0.1959834479682427 0  0.4394608940728603 0.2040870543693135 0  0.5439623148931173 0.2040856076781014 0  0.5290511287473298 0.2040749161535501 0  0.4991779197988497 0.2040749161535382 0  0.3347912413592433 0.1959225448935183 0  0.3199680582793816 0.1959123018030061 0  0.2825051229162361 0.1959834479681729 0  0.3590471196690275 0.2036304442587945 0  0.5571594006495384 0.1963685282145804 0  0.3067669986803285 0.203627750582736 0  0.4262598344738712 0.2036568242185335 0  0.5814408164431408 0.2041285596160068 0  0.5688286748170428 0.1961819304477386 0  0.4145905603063645 0.2038180695522843 0  0.3473758401724931 0.2038180695522752 0  0.2950977245128307 0.2038180695522663 0  0.5688286748170693 0.203818069552238 0  0.2950977245127906 0.1961819304477774 0  0.3473758401723931 0.1961819304478349 0  0.4145905603061963 0.1961819304479011 0  0.2601812407614425 0.2056861609747042
[...]
<PointData  Vectors="f_40-0"> 
<DataArray  type="Float64"  Name="f_40-0"  NumberOfComponents="3" format="ascii">0.0000000000000000e+00 0.0000000000000000e+00 0.0000000000000000e+00  0.0000000000000000e+00 0.0000000000000000e+00 0.0000000000000000e+00  0.0000000000000000e+00 0.0000000000000000e+00 0.0000000000000000e+00  0.0000000000000000e+00 0.0000000000000000e+00 0.0000000000000000e+00  3.0096657561996083e-05 9.0328060033627170e-04 0.0000000000000000e+00  -3.7158613979309640e-05 9.0342015986103028e-04 0.0000000000000000e+00  0.0000000000000000e+00 0.0000000000000000e+00 0.0000000000000000e+00  0.0000000000000000e+00 0.0000000000000000e+00 0.0000000000000000e+00  0.0000000000000000e+00 0.0000000000000000e+00 0.0000000000000000e+00  0.0000000000000000e+00 0.0000000000000000e+00 0.0000000000000000e+00  -3.5162595336139940e-06 9.0334544381760859e-04 0.0000000000000000e+00  7.9591836734548407e-02 0.0000000000000000e+00 0.0000000000000000e+00  1.4693877550994527e-01 0.0000000000000000e+00 0.0000000000000000e+00  2.0204081632617479e-01 0.0000000000000000e+00 0.0000000000000000e+00  2.4489795918330076e-01 0.0000000000000000e+00 0.0000000000000000e+00  2.7551020408131754e-01 0.0000000000000000e+00 0.0000000000000000e+00  2.9387755102022350e-01 0.0000000000000000e+00 0.0000000000000000e+00  3.0000000000000004e-01 0.0000000000000000e+00 0.0000000000000000e+00  2.9387755102059482e-01 0.0000000000000000e+00 0.0000000000000000e+00  2.7551020408195548e-01 0.0000000000000000e+00 0.0000000000000000e+00  2.4489795918409071e-01 0.0000000000000000e+00 0.0000000000000000e+00  2.0204081632692525e-01 0.0000000000000000e+00 0.0000000000000000e+00  1.4693877551058568e-01 0.0000000000000000e+00 0.0000000000000000e+00  7.9591836734909230e-02 0.0000000000000000e+00 0.0000000000000000e+00  0.0000000000000000e+00 0.0000000000000000e+00 0.0000000000000000e+00  0.0000000000000000e+00 0.0000000000000000e+00 0.0000000000000000e+00  0.0000000000000000e+00 0.0000000000000000e+00 0.0000000000000000e+00  0.0000000000000000e+00 0.0000000000000000e+00 0.0000000000000000e+00  0.0000000000000000e+00 0.0000000000000000e+00 0.0000000000000000e+00  0.0000000000000000e+00 0.0000000000000000e+00 0.0000000000000000e+00  0.0000000000000000e+00 0.0000000000000000e+00 0.0000000000000000e+00  0.0000000000000000e+00 0.0000000000000000e+00 0.0000000000000000e+00  0.0000000000000000e+00 0.0000000000000000e+00 0.0000000000000000e+00  0.0000000000000000e+00 0.0000000000000000e+00 0.0000000000000000e+00  0.0000000000000000e+00 0.0000000000000000e+00 0.0000000000000000e+00  0.0000000000000000e+00 0.0000000000000000e+00 0.0000000000000000e+00  0.0000000000000000e+00 0.0000000000000000e+00 0.0000000000000000e+00  0.0000000000000000e+00 0.0000000000000000e+00 0.0000000000000000e+00  0.0000000000000000e+00 0.0000000000000000e+00 0.0000000000000000e+00  0.0000000000000000e+00 0.0000000000000000e+00 0.0000000000000000e+00  0.0000000000000000e+00 0.0000000000000000e+00 0.0000000000000000e+00  0.0000000000000000e+00 0.0000000000000000e+00 0.0000000000000000e+00  0.0000000000000000e+00 0.0000000000000000e+00 0.0000000000000000e+00  0.0000000000000000e+00 0.0000000000000000e+00 0.0000000000000000e+00  0.0000000000000000e+00 0.0000000000000000e+00 0.0000000000000000e+00  0.0000000000000000e+00 0.0000000000000000e+00 0.0000000000000000e+00  0.0000000000000000e+00 0.0000000000000000e+00 0.0000000000000000e+00  0.0000000000000000e+00 0.0000000000000000e+00 0.0000000000000000e+00  0.0000000000000000e+00 0.0000000000000000e+00 0.0000000000000000e+00  0.0000000000000000e+00 0.0000000000000000e+00 0.0000000000000000e+00  0.0000000000000000e+00 0.0000000000000000e+00 0.0000000000000000e+00  0.0000000000000000e+00 0.0000000000000000e+00 0.0000000000000000e+00  0.0000000000000000e+00 0.0000000000000000e+00 0.0000000000000000e+00  0.0000000000000000e+00 0.0000000000000000e+00 0.0000000000000000e+00  0.0000000000000000e+00 0.0000000000000000e+00 0.0000000000000000e+00  0.0000000000000000e+00 0.0000000000000000e+00 0.0000000000000000e+00  0.0000000000000000e+00 0.0000000000000000e+00 0.0000000000000000e+00  0.0000000000000000e+00 0.0000000000000000e+00 0.0000000000000000e+00  0.0000000000000000e+00 0.0000000000000000e+00 0.0000000000000000e+00  0.0000000000000000e+00 0.0000000000000000e+00 0.0000000000000000e+00  0.0000000000000000e+00 0.0000000000000000e+00 0.0000000000000000e+00  0.0000000000000000e+00 0.0000000000000000e+00 0.0000000000000000e+00  2.4556593032121068e-01 -5.6906664399943626e-03 0.0000000000000000e+00  2.8140094353125933e-01 2.9234742835397482e-03 0.0000000000000000e+00  2.5084276100878472e-01 8.7709605688493491e-03 0.0000000000000000e+00  0.0000000000000000e+00 0.0000000000000000e+00 0.0000000000000000e+00  0.0000000000000000e+00 0.0000000000000000e+00 0.0000000000000000e+00  0.0000000000000000e+00 0.0000000000000000e+00 0.0000000000000000e+00  0.0000000000000000e+00 0.0000000000000000e+00 0.0000000000000000e+00  0.0000000000000000e+00 0.0000000000000000e+00 0.0000000000000000e+00  0.0000000000000000e+00 0.0000000000000000e+00 0.0000000000000000e+00  0.0000000000000000e+00 0.0000000000000000e+00 0.0000000000000000e+00  0.0000000000000000e+00 0.0000000000000000e+00 0.0000000000000000e+00  0.0000000000000000e+00 0.0000000000000000e+00 0.0000000000000000e+00  0.0000000000000000e+00 0.0000000000000000e+00 0.0000000000000000e+00  0.0000000000000000e+00 0.0000000000000000e+00 0.0000000000000000e+00  0.0000000000000000e+00 0.0000000000000000e+00 0.0000000000000000e+00  0.0000000000000000e+00 0.0000000000000000e+00 0.0000000000000000e+00  0.0000000000000000e+00 0.0000000000000000e+00 0.0000000000000000e+00  0.0000000000000000e+00 0.0000000000000000e+00 0.0000000000000000e+00  0.0000000000000000e+00 0.0000000000000000e+00 0.0000000000000000e+00  0.0000000000000000e+00 0.0000000000000000e+00 0.0000000000000000e+00  0.0000000000000000e+00 0.0000000000000000e+00 0.0000000000000000e+00  0.0000000000000000e+00 0.0000000000000000e+00 0.0000000000000000e+00  0.0000000000000000e+00 0.0000000000000000e+00 0.0000000000000000e+00  0.0000000000000000e+00 0.0000000000000000e+00 0.0000000000000000e+00  0.0000000000000000e+00 0.0000000000000000e+00 0.0000000000000000e+00  0.0000000000000000e+00 0.0000000000000000e+00 0.0000000000000000e+00  0.0000000000000000e+00 0.0000000000000000e+00 0.0000000000000000e+00  0.0000000000000000e+00 0.0000000000000000e+00 0.0000000000000000e+00  0.0000000000000000e+00 0.0000000000000000e+00 0.0000000000000000e+00  0.0000000000000000e+00 0.0000000000000000e+00 0.0000000000000000e+00  0.0000000000000000e+00 0.0000000000000000e+00 0.0000000000000000e+00  0.0000000000000000e+00 0.0000000000000000e+00 0.0000000000000000e+00  0.0000000000000000e+00 0.0000000000000000e+00 0.0000000000000000e+00  0.0000000000000000e+00 0.0000000000000000e+00 0.0000000000000000e+00  0.0000000000000000e+00 0.0000000000000000e+00 0.0000000000000000e+00  0.0000000000000000e+00 0.0000000000000000e+00 0.0000000000000000e+00  0.0000000000000000e+00 0.0000000000000000e+00 0.0000000000000000e+00  0.0000000000000000e+00 0.0000000000000000e+00 0.0000000000000000e+00  0.0000000000000000e+00 0.0000000000000000e+00 0.0000000000000000e+00  0.0000000000000000e+00 0.0000000000000000e+00 0.0000000000000000e+00  0.0000000000000000e+00 0.0000000000000000e+00 0.0000000000000000e+00  0.0000000000000000e+00 0.0000000000000000e+00 0.0000000000000000e+00  0.0000000000000000e+00 0.0000000000000000e+00 0.0000000000000000e+00  0.0000000000000000e+00 0.0000000000000000e+00 0.0000000000000000e+00  0.0000000000000000e+00 0.0000000000000000e+00 0.0000000000000000e+00  0.0000000000000000e+00 0.0000000000000000e+00 0.0000000000000000e+00  0.0000000000000000e+00 0.0000000000000000e+00 0.0000000000000000e+00  0.0000000000000000e+00 0.0000000000000000e+00 0.0000000000000000e+00  0.0000000000000000e+00 0.0000000000000000e+00 0.0000000000000000e+00  0.0000000000000000e+00 0.0000000000000000e+00 0.0000000000000000e+00  0.0000000000000000e+00 0.0000000000000000e+00 0.0000000000000000e+00  0.0000000000000000e+00 0.0000000000000000e+00 0.0000000000000000e+00  0.0000000000000000e+00 0.0000000000000000e+00 0.0000000000000000e+00  0.0000000000000000e+00 0.0000000000000000e+00 0.0000000000000000e+00  0.0000000000000000e+00 0.0000000000000000e+00 0.0000000000000000e+00  0.0000000000000000e+00 0.0000000000000000e+00 0.0000000000000000e+00  0.0000000000000000e+00 0.0000000000000000e+00 0.0000000000000000e+00  0.0000000000000000e+00 0.0000000000000000e+00 0.0000000000000000e+00  0.0000000000000000e+00 0.0000000000000000e+00 0.0000000000000000e+00  0.0000000000000000e+00 0.0000000000000000e+00 0.0000000000000000e+00  0.0000000000000000e+00 0.0000000000000000e+00 0.0000000000000000e+00  0.0000000000000000e+00 0.0000000000000000e+00 0.0000000000000000e+00  0.0000000000000000e+00 0.0000000000000000e+00 0.0000000000000000e+00  0.0000000000000000e+00 0.0000000000000000e+00 0.0000000000000000e+00  0.0000000000000000e+00 0.0000000000000000e+00 0.0000000000000000e+00  0.0000000000000000e+00 0.0000000000000000e+00 0.0000000000000000e+00  0.0000000000000000e+00 0.0000000000000000e+00 0.0000000000000000e+00  0.0000000000000000e+00 0.0000000000000000e+00 0.0000000000000000e+00  0.0000000000000000e+00 0.0000000000000000e+00 0.0000000000000000e+00  0.0000000000000000e+00 0.0000000000000000e+00 0.0000000000000000e+00  0.0000000000000000e+00 0.0000000000000000e+00 0.0000000000000000e+00  0.0000000000000000e+00 0.0000000000000000e+00 0.0000000000000000e+00  0.0000000000000000e+00 0.0000000000000000e+00 0.0000000000000000e+00  0.0000000000000000e+00 0.0000000000000000e+00 0.0000000000000000e+00  0.0000000000000000e+00 0.0000000000000000e+00 0.0000000000000000e+00  0.0000000000000000e+00 0.0000000000000000e+00 0.0000000000000000e+00  0.0000000000000000e+00 0.0000000000000000e+00 0.0000000000000000e+00  0.0000000000000000e+00 0.0000000000000000e+00 0.0000000000000000e+00  0.0000000000000000e+00 0.0000000000000000e+00 0.0000000000000000e+00  0.0000000000000000e+00 0.0000000000000000e+00 0.0000000000000000e+00  0.0000000000000000e+00 0.0000000000000000e+00 0.0000000000000000e+00  -2.1308243876422242e-06 1.7765965760308360e-06 0.0000000000000000e+00  -4.5223921457365255e-06 4.2459774956535866e-06 0.0000000000000000e+00  -6.6191248480615067e-06 8.2565236527513982e-06 0.0000000000000000e+00  -8.8648714069248730e-06 1.3889953677207346e-05 0.0000000000000000e+00  -1.0728127662117586e-05 2.0860993547350356e-05 0.0000000000000000e+00  -1.2819305082521792e-05 2.9292255500975818e-05 0.0000000000000000e+00  -1.4491917264139180e-05 3.8791005668047725e-05 0.0000000000000000e+00  -1.6100618327990655e-05 4.9685440277828717e-05 0.0000000000000000e+00  -1.7926259700492879e-05 6.1626588539692061e-05 0.0000000000000000e+00  -1.9310563520755734e-05 7.4647652124822721e-05 0.0000000000000000e+00  -2.0976265415302157e-05 8.8722863558215328e-05 0.0000000000000000e+00  -2.2219749615046758e-05 1.0375384138851175e-04 0.0000000000000000e+00  -2.3666415996227618e-05 1.1970471804338737e-04 0.0000000000000000e+00  -2.4807414363126976e-05 1.3639000061617141e-04 0.0000000000000000e+00  -2.5897348243411887e-05 1.5397741152757023e-04 0.0000000000000000e+00  -2.7111212693509203e-05 1.7223732204715318e-04 0.0000000000000000e+00  -2.8027168258659875e-05 1.9118161825071778e-04 0.0000000000000000e+00  -2.9097592400855441e-05 2.1078824292111389e-04 0.0000000000000000e+00  -2.9889236663356651e-05 2.3097452429963295e-04 0.0000000000000000e+00  -3.0798045411341651e-05 2.5170361294780898e-04 0.0000000000000000e+00  -3.1508501132801669e-05 2.7294524490216617e-04 0.0000000000000000e+00  -3.2270806846175898e-05 2.9467620633562280e-04 0.0000000000000000e+00  -3.2868945027460072e-05 3.1675777873855837e-04 0.0000000000000000e+00  -3.3421881241860968e-05 3.3928794666812753e-04 0.0000000000000000e+00  -3.4009724161462647e-05 3.6211549041192427e-04 0.0000000000000000e+00  -3.4476036643958911e-05 3.8528199392194780e-04 0.0000000000000000e+00  -3.4924439902157445e-05 4.0874133859712170e-04 0.0000000000000000e+00  -3.5298768550767095e-05 4.3243074929233042e-04 0.0000000000000000e+00  -3.5653853770889150e-05 4.5636216541966021e-04 0.0000000000000000e+00  -3.5944457747052340e-05 4.8047099329399787e-04 0.0000000000000000e+00  -3.6214896150565229e-05 5.0476818988936297e-04 0.0000000000000000e+00  -3.6431398201198995e-05 5.2919570015290895e-04 0.0000000000000000e+00  -3.6628130820885438e-05 5.5376464602389800e-04 0.0000000000000000e+00  -3.6779748163715227e-05 5.7842717984774310e-04 0.0000000000000000e+00  -3.6913722667161590e-05 6.0319288102387094e-04 0.0000000000000000e+00  -3.7013320865141138e-05 6.2802141651236223e-04 0.0000000000000000e+00  -3.7097728203870848e-05 6.5292027546483777e-04 0.0000000000000000e+00  -3.7155587053962943e-05 6.7786049208278150e-04 0.0000000000000000e+00  -3.7199424296062031e-05 7.0284746328240434e-04 0.0000000000000000e+00  -3.7224742889540053e-05 7.2785980795219633e-04 0.0000000000000000e+00  -3.7240438516621841e-05 7.5290117226574479e-04 0.0000000000000000e+00  -3.7241895066087773e-05 7.7795614904303009e-04 0.0000000000000000e+00  -3.7233391387386212e-05 8.0302750394528133e-04 0.0000000000000000e+00  -3.7220183114454175e-05 8.2811013778472402e-04 0.0000000000000000e+00  -3.7201565531494286e-05 8.5320212946402257e-04 0.0000000000000000e+00  -3.7175212842420842e-05 8.7830079369471937e-04 0.0000000000000000e+00  -2.0326036688062834e-05 9.0338006231878703e-04 0.0000000000000000e+00  1.3289223923269559e-05 9.0331148048788934e-04 0.0000000000000000e+00  3.0053115248283334e-05 8.7817413763101684e-04 0.0000000000000000e+00  3.0008981486855366e-05 8.5307135466878659e-04 0.0000000000000000e+00  2.9964923337720728e-05 8.2797175985811875e-04 0.0000000000000000e+00  2.9919750531237266e-05 8.0288340319104772e-04 0.0000000000000000e+00  2.9875341578066977e-05 7.7780280581424787e-04 0.0000000000000000e+00  2.9830954333348997e-05 7.5273939282435778e-04 0.0000000000000000e+00  2.9776575710728423e-05 7.2769188050053374e-04 0.0000000000000000e+00  2.9729065640023120e-05 7.0266802116250148e-04 0.0000000000000000e+00  2.9662139087722820e-05 6.7767502532743349e-04 0.0000000000000000e+00  2.9605060562405272e-05 6.5272162673535837e-04 0.0000000000000000e+00  2.9517278979919937e-05 6.2781688192656260e-04 0.0000000000000000e+00  2.9444533926761247e-05 6.0297269397654139e-04 0.0000000000000000e+00  2.9329287229582156e-05 5.7820178126272213e-04 0.0000000000000000e+00  2.9233433817187749e-05 5.5352289498333883e-04 0.0000000000000000e+00  2.9078698071879651e-05 5.2894849679196196e-04 0.0000000000000000e+00  2.8951812349985810e-05 5.0450402964731186e-04 0.0000000000000000e+00  2.8747060647986166e-05 4.8020336088211500e-04 0.0000000000000000e+00  2.8581075531403485e-05 4.5607669754752221e-04 0.0000000000000000e+00  2.8316573863461160e-05 4.3214211244658150e-04 0.0000000000000000e+00  2.8102915821931298e-05 4.0843586265435801e-04 0.0000000000000000e+00  2.7762207052636673e-05 3.8497664931749743e-04 0.0000000000000000e+00  2.7488717091493158e-05 3.6180781824476449e-04 0.0000000000000000e+00  2.7069562540073325e-05 3.3895720323558627e-04 0.0000000000000000e+00  2.6705606657041936e-05 3.1642618223502446e-04 0.0000000000000000e+00  2.6307368865097803e-05 2.9434325149897141e-04 0.0000000000000000e+00  2.5769780062976056e-05 2.7259897703630519e-04 0.0000000000000000e+00  2.5258087397154544e-05 2.5137348539974941e-04 0.0000000000000000e+00  2.4638441915253543e-05 2.3061902443211255e-04 0.0000000000000000e+00  2.4023312429668278e-05 2.1044262829106490e-04 0.0000000000000000e+00  2.3296205906496421e-05 1.9083451109999774e-04 0.0000000000000000e+00  2.2571719296334827e-05 1.7186453844160969e-04 0.0000000000000000e+00  2.1646841453556354e-05 1.5365288714638557e-04 0.0000000000000000e+00  2.0838766275676839e-05 1.3605864693922164e-04 0.0000000000000000e+00  1.9980729108407111e-05 1.1939013524477490e-04 0.0000000000000000e+00  1.8863593918340519e-05 1.0338840143439703e-04 0.0000000000000000e+00  1.7804906117967965e-05 8.8398748216080269e-05 0.0000000000000000e+00  1.6570825792859263e-05 7.4321885757150036e-05 0.0000000000000000e+00  1.5364857976509416e-05 6.1265523704314212e-05 0.0000000000000000e+00  1.3856369850086110e-05 4.9397140869787692e-05 0.0000000000000000e+00  1.2543511378536967e-05 3.8490016063904492e-05 0.0000000000000000e+00  1.1166631454269747e-05 2.8999779576919557e-05 0.0000000000000000e+00  9.4038107642485992e-06 2.0534276845547901e-05 0.0000000000000000e+00  7.7780544601410959e-06 1.3545841355283423e-05 0.0000000000000000e+00  5.8106940751584552e-06 7.9923790898358544e-06 0.0000000000000000e+00  4.0366070455873797e-06 3.9650965955102306e-06 0.0000000000000000e+00  1.9034665473822416e-06 1.4940519378765254e-06 0.0000000000000000e+00  -1.8513585675475067e-07 1.7439949810708713e-06 0.0000000000000000e+00  -4.0001445895040184e-06 8.6562504441855615e-04 0.0000000000000000e+00  -4.3231562273220861e-06 8.1766162313115672e-04 0.0000000000000000e+00  -4.0861709549085100e-06 7.3938440390579059e-04 0.0000000000000000e+00  -4.5315050943780899e-07 9.7704529056879742e-06 0.0000000000000000e+00  -3.7343693755194156e-06 6.9023283300987173e-04 0.0000000000000000e+00  -6.0083338253016766e-07 2.3170359731191853e-05 0.0000000000000000e+00  -3.7395203751455273e-06 6.4032368882510908e-04 0.0000000000000000e+00  -9.7940963000696630e-07 5.5103611130198609e-05 0.0000000000000000e+00  -1.4801379944390167e-06 8.0758191678762653e-05 0.0000000000000000e+00  -3.7214143294766617e-06 5.9063151642007076e-04 0.0000000000000000e+00  -1.8649779759646153e-06 1.6313497382245779e-04 0.0000000000000000e+00  -3.6053403843584762e-06 4.9235894862164481e-04 0.0000000000000000e+00  -1.4830989240956259e-06 1.0956011488597302e-04 0.0000000000000000e+00  -2.4511208171595765e-06 2.0033374570381190e-04 0.0000000000000000e+00  -3.5042382060083100e-06 4.4408669021215756e-04 0.0000000000000000e+00  -3.6773749621065946e-06 5.4126349406169113e-04 0.0000000000000000e+00  -2.6976583382082794e-06 2.4075375165663008e-04 0.0000000000000000e+00  -3.3718383572365540e-06 3.9664917042357147e-04 0.0000000000000000e+00  -2.5353231572851491e-06 2.8151975131301613e-04 0.0000000000000000e+00  -3.6057871861060025e-06 3.5122376642300271e-04 0.0000000000000000e+00  -3.0556414663482782e-06 3.1457507965350524e-04 0.0000000000000000e+00  -2.0095249837295449e-06 1.3434633162869884e-04 0.0000000000000000e+00  -3.6125296463444213e-06 7.8006570683002857e-04 0.0000000000000000e+00  -9.4631709690912620e-07 3.7221834130233006e-05 0.0000000000000000e+00  7.6341845815488998e-06 8.4144550639939466e-04 0.0000000000000000e+00  1.5829001766476153e-06 5.0404070182000843e-06 0.0000000000000000e+00  5.9672713887876809e-06 6.6523385803714079e-04 0.0000000000000000e+00  6.0126841706098290e-06 7.1522076751410482e-04 0.0000000000000000e+00  -3.8227812789938196e-06 1.6252160608613275e-05 0.0000000000000000e+00  -6.3748089704966693e-06 6.7298488817054127e-05 0.0000000000000000e+00  5.8537774352044655e-06 5.1672026887663984e-04 0.0000000000000000e+00  5.9269782170962588e-06 6.1542127392103354e-04 0.0000000000000000e+00  -9.6699783651053869e-06 1.8112787345373480e-04 0.0000000000000000e+00  5.8123664607945088e-06 4.6810980038330729e-04 0.0000000000000000e+00  -7.4052962691601163e-06 9.5474690693034004e-05 0.0000000000000000e+00  -1.0395214502337238e-05 2.2036360471870925e-04 0.0000000000000000e+00  5.7622933116397901e-06 4.2022934197640573e-04 0.0000000000000000e+00  5.8904692178654959e-06 5.6587524156311237e-04 0.0000000000000000e+00  -1.2845114504355516e-05 2.6164905267084954e-04 0.0000000000000000e+00  5.7018571559883148e-06 3.7329590315667547e-04 0.0000000000000000e+00  -4.1860378140231159e-07 4.1031998504952584e-07 0.0000000000000000e+00  2.5242201805046050e-07 3.1136019280049427e-07 0.0000000000000000e+00  -1.1712893410126189e-05 8.8538559822779329e-04 0.0000000000000000e+00  -2.4158066461057254e-06 5.1593305239870498e-06 0.0000000000000000e+00  7.6869017200881367e-06 3.3261187520436939e-04 0.0000000000000000