<?xml version="1.0"?>
<VTKFile type="UnstructuredGrid"  version="0.1"  >
<UnstructuredGrid>
<Piece  NumberOfPoints="1419" NumberOfCells="2698">
<Points>
<DataArray  type="Float64"  NumberOfComponents="3"  format="ascii">0 0 0  0 0.41 0  2.5 0 0  2.5 0.41 0  0.6 0.19 0  0.6 0.21 0  0.25 0.2 0  0.15 0.2 0  0.2489897948556636 0.21 0  0.2489897948556636 0.19 0  0.6 0.2 0  0 0.3807142857143437 0  0 0.3514285714286952 0  0 0.3221428571430699 0  0 0.29285714285744 0  0 0.2635714285718054 0  0 0.2342857142861561 0  0 0.2050000000005308 0  0 0.175714285714732 0  0 0.1464285714289574 0  0 0.1171428571431897 0  0 0.08785714285737878 0  0 0.05857142857161107 0  0 0.02928571428580012 0  0.03015443760436003 0 0  0.06140001986583606 0 0  0.09377624077125973 0 0  0.1273239957535082 0 0  0.1620856860351972 0 0  0.1981052433264291 0 0  0.235428184091502 0 0  0.2741016576309132 0 0  0.3141745521465447 0 0  0.3556974926295285 0 0  0.3987229542472677 0 0  0.4433053055141081 0 0  0.4895008759286886 0 0  0.5373680609405097 0 0  0.5869673343216626 0 0  0.6383613676634521 0 0  0.6916151138468254 0 0  0.7467958595648856 0 0  0.8039733463919316 0 0  0.8632198139502143 0 0  0.9246101326867038 0 0  0.9882218810934433 0 0  1.054135445558498 0 0  1.122434100542598 0 0  1.193204177141305 0 0  1.266535089879536 0 0  1.342519516046404 0 0  1.421253448503939 0 0  1.502836389106271 0 0  1.587371439758838 0 0  1.674965418777374 0 0  1.765729001825544 0 0  1.859776908880082 0 0  1.957227977487062 0 0  2.058205329869943 0 0  2.162836591189951 0 0  2.271253957290865 0 0  2.383594446803425 0 0  2.5 0.1024999999997612 0  2.5 0.2049999999994743 0  2.5 0.3074999999997183 0  2.383594446803656 0.41 0  2.271253957291315 0.41 0  2.162836591190598 0.41 0  2.058205329870775 0.41 0  1.957227977488067 0.41 0  1.859776908881246 0.41 0  1.765729001826854 0.41 0  1.674965418778818 0.41 0  1.58737143976041 0.41 0  1.502836389107956 0.41 0  1.421253448505726 0.41 0  1.342519516048286 0.41 0  1.266535089881505 0.41 0  1.193204177143353 0.41 0  1.122434100544716 0.41 0  1.05413544556068 0.41 0  0.9882218810956305 0.41 0  0.9246101326886647 0.41 0  0.8632198139519631 0.41 0  0.8039733463934788 0.41 0  0.7467958595662458 0.41 0  0.6916151138480078 0.41 0  0.6383613676644679 0.41 0  0.5869673343225223 0.41 0  0.5373680609412221 0.41 0  0.4895008759292634 0.41 0  0.4433053055145528 0.41 0  0.3987229542475914 0.41 0  0.3556974926297398 0.41 0  0.3141745521466497 0.41 0  0.2741016576310038 0.41 0  0.2354281840915826 0.41 0  0.1981052433265003 0.41 0  0.1620856860352591 0.41 0  0.1273239957535623 0.41 0  0.09377624077128965 0.41 0  0.06140001986584975 0.41 0  0.03015443760436654 0.41 0  0.2497468076502589 0.2050254481002335 0  0.2497468076502614 0.1949745518997913 0  0.2469965252529372 0.1829317073451959 0  0.2439893735792749 0.1762316384219906 0  0.2400332147834255 0.1700443375285386 0  0.2352133972704371 0.1645032867342007 0  0.2296339016332438 0.1597280261969788 0  0.2234150974217223 0.1558215752574715 0  0.2166911463437691 0.1528682099456123 0  0.2096071079204251 0.1509316448471593 0  0.2023158100364996 0.1500536585536553 0  0.194974551899914 0.1502531923497262 0  0.1877417105387872 0.1515259415822739 0  0.1807733240461124 0.153844448527136 0  0.1742197252835808 0.15715869474974 0  0.1682222986673531 0.1613971801805478 0  0.162910430003803 0.1664684656256651 0  0.1583987151779087 0.1722631454351573 0  0.1547844879126891 0.178656207771761 0  0.1521457199348551 0.1855097315605723 0  0.1505393388476355 0.1926758619366523 0  0.1505393388476328 0.2073241380633295 0  0.1521457199348437 0.2144902684393899 0  0.1547844879126531 0.221343792228163 0  0.1583987151778488 0.2277368545647528 0  0.1629104300036858 0.2335315343742052 0  0.1682222986671726 0.2386028198193036 0  0.1742197252833576 0.2428413052501257 0  0.1807733240458683 0.2461555514727623 0  0.1877417105384929 0.2484740584176516 0  0.1949745518995776 0.2497468076502398 0  0.202315810036185 0.2499463414463592 0  0.2096071079201568 0.2490683551528932 0  0.2166911463435495 0.2471317900544655 0  0.2234150974215506 0.2441784247426195 0  0.2296339016331197 0.2402719738031125 0  0.2352133972703547 0.2354967132658811 0  0.2400332147833751 0.2299556624715287 0  0.2439893735792577 0.2237683615780412 0  0.246996525252926 0.2170682926548348 0  0.25645809709277 0.21 0  0.2639263993298655 0.21 0  0.271394701566961 0.21 0  0.2788630038040554 0.21 0  0.2863313060411479 0.21 0  0.2937996082782405 0.21 0  0.301267910515333 0.21 0  0.3087362127524279 0.21 0  0.3162045149895234 0.21 0  0.3236728172265972 0.21 0  0.3311411194636928 0.21 0  0.3386094217007701 0.21 0  0.3460777239378666 0.21 0  0.3535460261749672 0.21 0  0.3610143284120516 0.21 0  0.3684826306491596 0.21 0  0.3759509328862226 0.21 0  0.383419235123329 0.21 0  0.3908875373604028 0.21 0  0.3983558395975142 0.21 0  0.4058241418345938 0.21 0  0.4132924440716992 0.21 0  0.4207607463087888 0.21 0  0.4282290485459029 0.21 0  0.4356973507830418 0.21 0  0.4431656530201649 0.21 0  0.4506339552573136 0.21 0  0.4581022574944306 0.21 0  0.4655705597315852 0.21 0  0.4730388619686996 0.21 0  0.480507164205851 0.21 0  0.4879754664429498 0.21 0  0.4954437686800938 0.21 0  0.502912070917267 0.21 0  0.5103803731544119 0.21 0  0.5178486753915261 0.21 0  0.5253169776286404 0.21 0  0.5327852798657868 0.21 0  0.5402535821029386 0.21 0  0.54772188434007 0.21 0  0.5551901865771842 0.21 0  0.5626584888143201 0.21 0  0.5701267910514778 0.21 0  0.5775950932886138 0.21 0  0.5850633955257281 0.21 0  0.5925316977628483 0.21 0  0.6 0.2050000000000054 0  0.6 0.1950000000000217 0  0.5925316977628897 0.19 0  0.5850633955257988 0.19 0  0.5775950932887378 0.19 0  0.5701267910515998 0.19 0  0.5626584888145268 0.19 0  0.5551901865773963 0.19 0  0.547721884340339 0.19 0  0.5402535821032429 0.19 0  0.5327852798661811 0.19 0  0.5253169776290537 0.19 0  0.5178486753919799 0.19 0  0.5103803731549078 0.19 0  0.502912070917822 0.19 0  0.4954437686807294 0.19 0  0.4879754664436223 0.19 0  0.4805071642065402 0.19 0  0.4730388619694271 0.19 0  0.4655705597323621 0.19 0  0.4581022574952563 0.19 0  0.4506339552581777 0.19 0  0.4431656530210671 0.19 0  0.4356973507839815 0.19 0  0.4282290485468779 0.19 0  0.4207607463097617 0.19 0  0.4132924440726327 0.19 0  0.4058241418354857 0.19 0  0.3983558395983636 0.19 0  0.3908875373612097 0.19 0  0.3834192351240934 0.19 0  0.3759509328869369 0.19 0  0.3684826306498175 0.19 0  0.361014328412667 0.19 0  0.3535460261755617 0.19 0  0.3460777239384295 0.19 0  0.3386094217012945 0.19 0  0.3311411194641595 0.19 0  0.3236728172270245 0.19 0  0.3162045149898895 0.19 0  0.3087362127527544 0.19 0  0.3012679105156187 0.19 0  0.2937996082784807 0.19 0  0.2863313060413428 0.19 0  0.2788630038042048 0.19 0  0.2713947015670686 0.19 0  0.2639263993299336 0.19 0  0.2564580970927985 0.19 0  0.2607803159922026 0.2000727136295815 0  0.5887803774232762 0.2001272386983733 0  0.5745072403740523 0.2002044435018727 0  0.5511891430099709 0.2001122610077113 0  0.2751288526855082 0.20000000000002 0  0.5365194309847112 0.1999999999999436 0  0.2894621222999649 0.1998691686390484 0  0.5215828265105155 0.1999999999999228 0  0.3127789816668748 0.1998657885438805 0  0.3274069683451451 0.2000000000000796 0  0.5066462220363641 0.199999999999908 0  0.3650630746574081 0.199866017807523 0  0.476773013087985 0.1999999999998713 0  0.3417402379596385 0.1998691686391011 0  0.3796850840047755 0.200000000000134 0  0.4618364086138087 0.1999999999998546 0  0.4917096175621762 0.1999999999998808 0  0.3946216884789568 0.2000000000001512 0  0.446899804139621 0.1999999999998389 0  0.4089549580935208 0.1998691686391595 0  0.4322718174608562 0.200127451265745 0  0.4201487168029707 0.1999966199048527 0  0.3528922713220932 0.2000185703532356 0  0.5633122436674589 0.1999814296467508 0  0.3006558810093873 0.1999966199048318 0  0.5815926498168407 0.1966545283159175 0  0.2677053789419034 0.1964246479135325 0  0.5290511287476175 0.1970915826863981 0  0.5439877332217911 0.197091582686394 0  0.2825131256993216 0.2035478995978015 0  0.3199386661080599 0.202908417313604 0  0.4842413153250809 0.1970915826863873 0  0.5141145242734466 0.1970915826863843 0  0.3722167817676917 0.2029084173136195 0  0.4693047108508938 0.1970915826863783 0  0.3348752705822316 0.202908417313609 0  0.3871533862418661 0.2029084173136212 0  0.4543681063767183 0.1970915826863795 0  0.4991779197992749 0.1970915826863902 0  0.4020059614928624 0.203547899597858 0  0.4394315019025246 0.1970915826863714 0  0.2550657455369551 0.2034088125358657 0  0.2548908499171161 0.1966940311614271 0  0.5946539510196798 0.2024302972968126 0  0.267698176732111 0.2039977513680092 0  0.4261685417851465 0.196409292431739 0  0.3590076176283495 0.196411355804271 0  0.5571672426447437 0.2036011176410121 0  0.3066757059912147 0.1964092924317024 0  0.594380730180568 0.1966558399668133 0  0.4842413153245942 0.2040749161535287 0  0.4693047108503577 0.2040749161535231 0  0.3871533862424271 0.1959250838464788 0  0.372246743208829 0.1959123236376545 0  0.5141145242731028 0.2040749161535395 0  0.4543681063761134 0.2040749161535186 0  0.4019979587101454 0.1959834479682427 0  0.4394608940728603 0.2040870543693135 0  0.5439623148931173 0.2040856076781014 0  0.5290511287473298 0.2040749161535501 0  0.4991779197988497 0.2040749161535382 0  0.3347912413592433 0.1959225448935183 0  0.3199680582793816 0.1959123018030061 0  0.2825051229162361 0.1959834479681729 0  0.3590471196690275 0.2036304442587945 0  0.5571594006495384 0.1963685282145804 0  0.3067669986803285 0.203627750582736 0  0.4262598344738712 0.2036568242185335 0  0.5814408164431408 0.2041285596160068 0  0.5688286748170428 0.1961819304477386 0  0.4145905603063645 0.2038180695522843 0  0.3473758401724931 0.2038180695522752 0  0.2950977245128307 0.2038180695522663 0  0.5688286748170693 0.203818069552238 0  0.2950977245127906 0.1961819304477774 0  0.3473758401723931 0.1961819304478349 0  0.4145905603061963 0.1961819304479011 0  0.2601812407614425 0.2056861609747042
[...]
<PointData  Vectors="f_40-1"> 
<DataArray  type="Float64"  Name="f_40-1"  NumberOfComponents="3" format="ascii">0.0000000000000000e+00 0.0000000000000000e+00 0.0000000000000000e+00  0.0000000000000000e+00 0.0000000000000000e+00 0.0000000000000000e+00  0.0000000000000000e+00 0.0000000000000000e+00 0.0000000000000000e+00  0.0000000000000000e+00 0.0000000000000000e+00 0.0000000000000000e+00  5.7046720687559376e-05 1.0478990481425255e-03 0.0000000000000000e+00  -1.8610952156432244e-05 1.0453090261964598e-03 0.0000000000000000e+00  0.0000000000000000e+00 0.0000000000000000e+00 0.0000000000000000e+00  0.0000000000000000e+00 0.0000000000000000e+00 0.0000000000000000e+00  0.0000000000000000e+00 0.0000000000000000e+00 0.0000000000000000e+00  0.0000000000000000e+00 0.0000000000000000e+00 0.0000000000000000e+00  1.8798172137069679e-05 1.0465947658982481e-03 0.0000000000000000e+00  0.0000000000000000e+00 0.0000000000000000e+00 0.0000000000000000e+00  0.0000000000000000e+00 0.0000000000000000e+00 0.0000000000000000e+00  0.0000000000000000e+00 0.0000000000000000e+00 0.0000000000000000e+00  0.0000000000000000e+00 0.0000000000000000e+00 0.0000000000000000e+00  0.0000000000000000e+00 0.0000000000000000e+00 0.0000000000000000e+00  0.0000000000000000e+00 0.0000000000000000e+00 0.0000000000000000e+00  0.0000000000000000e+00 0.0000000000000000e+00 0.0000000000000000e+00  0.0000000000000000e+00 0.0000000000000000e+00 0.0000000000000000e+00  0.0000000000000000e+00 0.0000000000000000e+00 0.0000000000000000e+00  0.0000000000000000e+00 0.0000000000000000e+00 0.0000000000000000e+00  0.0000000000000000e+00 0.0000000000000000e+00 0.0000000000000000e+00  0.0000000000000000e+00 0.0000000000000000e+00 0.0000000000000000e+00  0.0000000000000000e+00 0.0000000000000000e+00 0.0000000000000000e+00  0.0000000000000000e+00 0.0000000000000000e+00 0.0000000000000000e+00  0.0000000000000000e+00 0.0000000000000000e+00 0.0000000000000000e+00  0.0000000000000000e+00 0.0000000000000000e+00 0.0000000000000000e+00  0.0000000000000000e+00 0.0000000000000000e+00 0.0000000000000000e+00  0.0000000000000000e+00 0.0000000000000000e+00 0.0000000000000000e+00  0.0000000000000000e+00 0.0000000000000000e+00 0.0000000000000000e+00  0.0000000000000000e+00 0.0000000000000000e+00 0.0000000000000000e+00  0.0000000000000000e+00 0.0000000000000000e+00 0.0000000000000000e+00  0.0000000000000000e+00 0.0000000000000000e+00 0.0000000000000000e+00  0.0000000000000000e+00 0.0000000000000000e+00 0.0000000000000000e+00  0.0000000000000000e+00 0.0000000000000000e+00 0.0000000000000000e+00  0.0000000000000000e+00 0.0000000000000000e+00 0.0000000000000000e+00  0.0000000000000000e+00 0.0000000000000000e+00 0.0000000000000000e+00  0.0000000000000000e+00 0.0000000000000000e+00 0.0000000000000000e+00  0.0000000000000000e+00 0.0000000000000000e+00 0.0000000000000000e+00  0.0000000000000000e+00 0.0000000000000000e+00 0.0000000000000000e+00  0.0000000000000000e+00 0.0000000000000000e+00 0.0000000000000000e+00  0.0000000000000000e+00 0.0000000000000000e+00 0.0000000000000000e+00  0.0000000000000000e+00 0.0000000000000000e+00 0.0000000000000000e+00  0.0000000000000000e+00 0.0000000000000000e+00 0.0000000000000000e+00  0.0000000000000000e+00 0.0000000000000000e+00 0.0000000000000000e+00  0.0000000000000000e+00 0.0000000000000000e+00 0.0000000000000000e+00  0.0000000000000000e+00 0.0000000000000000e+00 0.0000000000000000e+00  0.0000000000000000e+00 0.0000000000000000e+00 0.0000000000000000e+00  0.0000000000000000e+00 0.0000000000000000e+00 0.0000000000000000e+00  0.0000000000000000e+00 0.0000000000000000e+00 0.0000000000000000e+00  0.0000000000000000e+00 0.0000000000000000e+00 0.0000000000000000e+00  0.0000000000000000e+00 0.0000000000000000e+00 0.0000000000000000e+00  0.0000000000000000e+00 0.0000000000000000e+00 0.0000000000000000e+00  0.0000000000000000e+00 0.0000000000000000e+00 0.0000000000000000e+00  0.0000000000000000e+00 0.0000000000000000e+00 0.0000000000000000e+00  0.0000000000000000e+00 0.0000000000000000e+00 0.0000000000000000e+00  0.0000000000000000e+00 0.0000000000000000e+00 0.0000000000000000e+00  0.0000000000000000e+00 0.0000000000000000e+00 0.0000000000000000e+00  0.0000000000000000e+00 0.0000000000000000e+00 0.0000000000000000e+00  0.0000000000000000e+00 0.0000000000000000e+00 0.0000000000000000e+00  0.0000000000000000e+00 0.0000000000000000e+00 0.0000000000000000e+00  0.0000000000000000e+00 0.0000000000000000e+00 0.0000000000000000e+00  0.0000000000000000e+00 0.0000000000000000e+00 0.0000000000000000e+00  0.0000000000000000e+00 0.0000000000000000e+00 0.0000000000000000e+00  0.0000000000000000e+00 0.0000000000000000e+00 0.0000000000000000e+00  0.0000000000000000e+00 0.0000000000000000e+00 0.0000000000000000e+00  0.0000000000000000e+00 0.0000000000000000e+00 0.0000000000000000e+00  0.0000000000000000e+00 0.0000000000000000e+00 0.0000000000000000e+00  0.0000000000000000e+00 0.0000000000000000e+00 0.0000000000000000e+00  0.0000000000000000e+00 0.0000000000000000e+00 0.0000000000000000e+00  0.0000000000000000e+00 0.0000000000000000e+00 0.0000000000000000e+00  0.0000000000000000e+00 0.0000000000000000e+00 0.0000000000000000e+00  0.0000000000000000e+00 0.0000000000000000e+00 0.0000000000000000e+00  0.0000000000000000e+00 0.0000000000000000e+00 0.0000000000000000e+00  0.0000000000000000e+00 0.0000000000000000e+00 0.0000000000000000e+00  0.0000000000000000e+00 0.0000000000000000e+00 0.0000000000000000e+00  0.0000000000000000e+00 0.0000000000000000e+00 0.0000000000000000e+00  0.0000000000000000e+00 0.0000000000000000e+00 0.0000000000000000e+00  0.0000000000000000e+00 0.0000000000000000e+00 0.0000000000000000e+00  0.0000000000000000e+00 0.0000000000000000e+00 0.0000000000000000e+00  0.0000000000000000e+00 0.0000000000000000e+00 0.0000000000000000e+00  0.0000000000000000e+00 0.0000000000000000e+00 0.0000000000000000e+00  0.0000000000000000e+00 0.0000000000000000e+00 0.0000000000000000e+00  0.0000000000000000e+00 0.0000000000000000e+00 0.0000000000000000e+00  0.0000000000000000e+00 0.0000000000000000e+00 0.0000000000000000e+00  0.0000000000000000e+00 0.0000000000000000e+00 0.0000000000000000e+00  0.0000000000000000e+00 0.0000000000000000e+00 0.0000000000000000e+00  0.0000000000000000e+00 0.0000000000000000e+00 0.0000000000000000e+00  0.0000000000000000e+00 0.0000000000000000e+00 0.0000000000000000e+00  0.0000000000000000e+00 0.0000000000000000e+00 0.0000000000000000e+00  0.0000000000000000e+00 0.0000000000000000e+00 0.0000000000000000e+00  0.0000000000000000e+00 0.0000000000000000e+00 0.0000000000000000e+00  0.0000000000000000e+00 0.0000000000000000e+00 0.0000000000000000e+00  0.0000000000000000e+00 0.0000000000000000e+00 0.0000000000000000e+00  0.0000000000000000e+00 0.0000000000000000e+00 0.0000000000000000e+00  0.0000000000000000e+00 0.0000000000000000e+00 0.0000000000000000e+00  0.0000000000000000e+00 0.0000000000000000e+00 0.0000000000000000e+00  0.0000000000000000e+00 0.0000000000000000e+00 0.0000000000000000e+00  0.0000000000000000e+00 0.0000000000000000e+00 0.0000000000000000e+00  0.0000000000000000e+00 0.0000000000000000e+00 0.0000000000000000e+00  0.0000000000000000e+00 0.0000000000000000e+00 0.0000000000000000e+00  0.0000000000000000e+00 0.0000000000000000e+00 0.0000000000000000e+00  0.0000000000000000e+00 0.0000000000000000e+00 0.0000000000000000e+00  0.0000000000000000e+00 0.0000000000000000e+00 0.0000000000000000e+00  0.0000000000000000e+00 0.0000000000000000e+00 0.0000000000000000e+00  0.0000000000000000e+00 0.0000000000000000e+00 0.0000000000000000e+00  0.0000000000000000e+00 0.0000000000000000e+00 0.0000000000000000e+00  0.0000000000000000e+00 0.0000000000000000e+00 0.0000000000000000e+00  0.0000000000000000e+00 0.0000000000000000e+00 0.0000000000000000e+00  0.0000000000000000e+00 0.0000000000000000e+00 0.0000000000000000e+00  0.0000000000000000e+00 0.0000000000000000e+00 0.0000000000000000e+00  0.0000000000000000e+00 0.0000000000000000e+00 0.0000000000000000e+00  0.0000000000000000e+00 0.0000000000000000e+00 0.0000000000000000e+00  0.0000000000000000e+00 0.0000000000000000e+00 0.0000000000000000e+00  0.0000000000000000e+00 0.0000000000000000e+00 0.0000000000000000e+00  0.0000000000000000e+00 0.0000000000000000e+00 0.0000000000000000e+00  0.0000000000000000e+00 0.0000000000000000e+00 0.0000000000000000e+00  0.0000000000000000e+00 0.0000000000000000e+00 0.0000000000000000e+00  0.0000000000000000e+00 0.0000000000000000e+00 0.0000000000000000e+00  0.0000000000000000e+00 0.0000000000000000e+00 0.0000000000000000e+00  0.0000000000000000e+00 0.0000000000000000e+00 0.0000000000000000e+00  0.0000000000000000e+00 0.0000000000000000e+00 0.0000000000000000e+00  0.0000000000000000e+00 0.0000000000000000e+00 0.0000000000000000e+00  0.0000000000000000e+00 0.0000000000000000e+00 0.0000000000000000e+00  0.0000000000000000e+00 0.0000000000000000e+00 0.0000000000000000e+00  0.0000000000000000e+00 0.0000000000000000e+00 0.0000000000000000e+00  0.0000000000000000e+00 0.0000000000000000e+00 0.0000000000000000e+00  0.0000000000000000e+00 0.0000000000000000e+00 0.0000000000000000e+00  0.0000000000000000e+00 0.0000000000000000e+00 0.0000000000000000e+00  0.0000000000000000e+00 0.0000000000000000e+00 0.0000000000000000e+00  0.0000000000000000e+00 0.0000000000000000e+00 0.0000000000000000e+00  0.0000000000000000e+00 0.0000000000000000e+00 0.0000000000000000e+00  0.0000000000000000e+00 0.0000000000000000e+00 0.0000000000000000e+00  0.0000000000000000e+00 0.0000000000000000e+00 0.0000000000000000e+00  0.0000000000000000e+00 0.0000000000000000e+00 0.0000000000000000e+00  0.0000000000000000e+00 0.0000000000000000e+00 0.0000000000000000e+00  0.0000000000000000e+00 0.0000000000000000e+00 0.0000000000000000e+00  0.0000000000000000e+00 0.0000000000000000e+00 0.0000000000000000e+00  0.0000000000000000e+00 0.0000000000000000e+00 0.0000000000000000e+00  0.0000000000000000e+00 0.0000000000000000e+00 0.0000000000000000e+00  0.0000000000000000e+00 0.0000000000000000e+00 0.0000000000000000e+00  0.0000000000000000e+00 0.0000000000000000e+00 0.0000000000000000e+00  0.0000000000000000e+00 0.0000000000000000e+00 0.0000000000000000e+00  -2.0516304549954383e-06 -9.8193802038946266e-08 0.0000000000000000e+00  -4.2836735614854425e-06 3.2031877848473458e-06 0.0000000000000000e+00  -5.8974081599597816e-06 8.7280568095303856e-06 0.0000000000000000e+00  -7.5878484673353041e-06 1.6502393438850600e-05 0.0000000000000000e+00  -8.7171181897239851e-06 2.5998774804863054e-05 0.0000000000000000e+00  -1.0104887482236457e-05 3.7329937372822200e-05 0.0000000000000000e+00  -1.0951249122075203e-05 4.9984288348449523e-05 0.0000000000000000e+00  -1.1709811662994292e-05 6.4331392678534794e-05 0.0000000000000000e+00  -1.2708406315306109e-05 7.9908441436503570e-05 0.0000000000000000e+00  -1.3191390856041624e-05 9.6736003919806052e-05 0.0000000000000000e+00  -1.3984527193468087e-05 1.1472632373918128e-04 0.0000000000000000e+00  -1.4315783254661944e-05 1.3376823543459669e-04 0.0000000000000000e+00  -1.4866209379724096e-05 1.5376586352605195e-04 0.0000000000000000e+00  -1.5100853668585990e-05 1.7451102513892132e-04 0.0000000000000000e+00  -1.5297128026863446e-05 1.9615215293068705e-04 0.0000000000000000e+00  -1.5614826258955979e-05 2.1842459849092427e-04 0.0000000000000000e+00  -1.5666022011396814e-05 2.4134281114631940e-04 0.0000000000000000e+00  -1.5869488431211041e-05 2.6482971073848516e-04 0.0000000000000000e+00  -1.5842719574502341e-05 2.8883300218040771e-04 0.0000000000000000e+00  -1.5929959192474220e-05 3.1326359155425110e-04 0.0000000000000000e+00  -1.5874357585677907e-05 3.3811997843650099e-04 0.0000000000000000e+00  -1.5882454200994393e-05 3.6333812053597389e-04 0.0000000000000000e+00  -1.5783144770262382e-05 3.8881452068366640e-04 0.0000000000000000e+00  -1.5679854654008253e-05 4.1461581980865934e-04 0.0000000000000000e+00  -1.5621131661303166e-05 4.4061354574797266e-04 0.0000000000000000e+00  -1.5515747624212846e-05 4.6686000390206789e-04 0.0000000000000000e+00  -1.5431895795501672e-05 4.9327714606177333e-04 0.0000000000000000e+00  -1.5336416497419480e-05 5.1987421913509638e-04 0.0000000000000000e+00  -1.5265770538020359e-05 5.4660902195934643e-04 0.0000000000000000e+00  -1.5197103882897412e-05 5.7349452228637845e-04 0.0000000000000000e+00  -1.5158672662330796e-05 6.0048951108648461e-04 0.0000000000000000e+00  -1.5133113575393994e-05 6.2761876302393194e-04 0.0000000000000000e+00  -1.5143046383900265e-05 6.5483799103320517e-04 0.0000000000000000e+00  -1.5173441808667867e-05 6.8218419134534274e-04 0.0000000000000000e+00  -1.5246197356715202e-05 7.0960738483882976e-04 0.0000000000000000e+00  -1.5344597370532663e-05 7.3715402160076974e-04 0.0000000000000000e+00  -1.5486771993950212e-05 7.6477265694708304e-04 0.0000000000000000e+00  -1.5657865475454436e-05 7.9251094316518946e-04 0.0000000000000000e+00  -1.5874723482015430e-05 8.2031620626017731e-04 0.0000000000000000e+00  -1.6124107593861877e-05 8.4823593231446058e-04 0.0000000000000000e+00  -1.6431274223327022e-05 8.7623353836674975e-04 0.0000000000000000e+00  -1.6748132705491649e-05 9.0430755193115239e-04 0.0000000000000000e+00  -1.7105092142585543e-05 9.3246302903676303e-04 0.0000000000000000e+00  -1.7492894374799330e-05 9.6067483091169883e-04 0.0000000000000000e+00  -1.7909272027794063e-05 9.8896174126649047e-04 0.0000000000000000e+00  -1.8313085025794066e-05 1.0172406161756417e-03 0.0000000000000000e+00  -4.4251978926388345e-08 1.0459533044023701e-03 0.0000000000000000e+00  3.7783230091673952e-05 1.0472367719978220e-03 0.0000000000000000e+00  5.7328041982871082e-05 1.0194242771189817e-03 0.0000000000000000e+00  5.7677669910240057e-05 9.9122147401008924e-04 0.0000000000000000e+00  5.8000183084020411e-05 9.6309082286119454e-04 0.0000000000000000e+00  5.8234832532440887e-05 9.3498652381279886e-04 0.0000000000000000e+00  5.8440881438810547e-05 9.0693625346042410e-04 0.0000000000000000e+00  5.8579356300249141e-05 8.7896619373722604e-04 0.0000000000000000e+00  5.8651800467296178e-05 8.5105762974033270e-04 0.0000000000000000e+00  5.8691770348440790e-05 8.2325374196020988e-04 0.0000000000000000e+00  5.8651754654604891e-05 7.9550775601851850e-04 0.0000000000000000e+00  5.8597960393695948e-05 7.6788390050314451e-04 0.0000000000000000e+00  5.8465683887445240e-05 7.4032185576568146e-04 0.0000000000000000e+00  5.8324792292089099e-05 7.1288357574527425e-04 0.0000000000000000e+00  5.8105520659586016e-05 6.8551289211745965e-04 0.0000000000000000e+00  5.7881092899392210e-05 6.5826906870315130e-04 0.0000000000000000e+00  5.7575010435508669e-05 6.3109975159191304e-04 0.0000000000000000e+00  5.7265269929983701e-05 6.0406599988636564e-04 0.0000000000000000e+00  5.6866138238280883e-05 5.7711874423919864e-04 0.0000000000000000e+00  5.6465855322625215e-05 5.5032319208707153e-04 0.0000000000000000e+00  5.5964055098496520e-05 5.2363399550908751e-04 0.0000000000000000e+00  5.5464356804739796e-05 4.9712252599998989e-04 0.0000000000000000e+00  5.4841823271395628e-05 4.7074922486645940e-04 0.0000000000000000e+00  5.4225915058535431e-05 4.4459474049879860e-04 0.0000000000000000e+00  5.3461820438505967e-05 4.1863786116465979e-04 0.0000000000000000e+00  5.2699752082413746e-05 3.9290912605223450e-04 0.0000000000000000e+00  5.1862143129060218e-05 3.6749953483696142e-04 0.0000000000000000e+00  5.0881224412209772e-05 3.4233129414360110e-04 0.0000000000000000e+00  4.9859124676385194e-05 3.1757694531380724e-04 0.0000000000000000e+00  4.8691301135959510e-05 2.9316680617071556e-04 0.0000000000000000e+00  4.7468108399547585e-05 2.6926662746688335e-04 0.0000000000000000e+00  4.6081783905257914e-05 2.4581810950835781e-04 0.0000000000000000e+00  4.4634440455831238e-05 2.2296921374113083e-04 0.0000000000000000e+00  4.2916845547742528e-05 2.0079870578962802e-04 0.0000000000000000e+00  4.1256382993938728e-05 1.7922768753273814e-04 0.0000000000000000e+00  3.9468021632172584e-05 1.5856849032452088e-04 0.0000000000000000e+00  3.7356303558117397e-05 1.3857935065727720e-04 0.0000000000000000e+00  3.5212777800279324e-05 1.1967159052655635e-04 0.0000000000000000e+00  3.2798440566463452e-05 1.0171667977321581e-04 0.0000000000000000e+00  3.0334452475645596e-05 8.4931061595866364e-05 0.0000000000000000e+00  2.7426159346020395e-05 6.9487426198502008e-05 0.0000000000000000e+00  2.4682300909752097e-05 5.5182764268190497e-05 0.0000000000000000e+00  2.1781720745100033e-05 4.2586111985956405e-05 0.0000000000000000e+00  1.8336945984357124e-05 3.1242501177468812e-05 0.0000000000000000e+00  1.4979093010306603e-05 2.1797135554310671e-05 0.0000000000000000e+00  1.1134974203266201e-05 1.4182183475204706e-05 0.0000000000000000e+00  7.5514380969408287e-06 8.5275197350923505e-06 0.0000000000000000e+00  3.5743724442331772e-06 4.8005592870714087e-06 0.0000000000000000e+00  7.4581315946885370e-07 2.5606027893818991e-06 0.0000000000000000e+00  1.9050971138095175e-05 1.0041197387513242e-03 0.0000000000000000e+00  1.9554292163061294e-05 9.5017710972842293e-04 0.0000000000000000e+00  2.0706294742474914e-05 8.6254605142472120e-04 0.0000000000000000e+00  3.1517569486171780e-06 1.3786843765871129e-05 0.0000000000000000e+00  2.1393802213581103e-05 8.0782901671846985e-04 0.0000000000000000e+00  5.3960539578954066e-06 3.2063219150624698e-05 0.0000000000000000e+00  2.1503473046478854e-05 7.5245941966603437e-04 0.0000000000000000e+00  8.6382538215991818e-06 7.4311751459172503e-05 0.0000000000000000e+00  1.0163995270010276e-05 1.0736536656160134e-04 0.0000000000000000e+00  2.1451061215199103e-05 6.9746844471288525e-04 0.0000000000000000e+00  1.4563455291064323e-05 2.1001868312616484e-04 0.0000000000000000e+00  2.0898380117394912e-05 5.8869475425011350e-04 0.0000000000000000e+00  1.2146450952211942e-05 1.4384850144927473e-04 0.0000000000000000e+00  1.5459669978396081e-05 2.5489111624717078e-04 0.0000000000000000e+00  2.0414123676467608e-05 5.3499358981634918e-04 0.0000000000000000e+00  2.1246605451869852e-05 6.4287111523075923e-04 0.0000000000000000e+00  1.6651893438825720e-05 3.0286925697476616e-04 0.0000000000000000e+00  1.9800510245959718e-05 4.8185804877285115e-04 0.0000000000000000e+00  1.8114735733917071e-05 3.5053589327423287e-04 0.0000000000000000e+00  1.8636305903793015e-05 4.3047780122137778e-04 0.0000000000000000e+00  1.8384702051375620e-05 3.8862366028973196e-04 0.0000000000000000e+00  1.2909882873126110e-05 1.7463245306698657e-04 0.0000000000000000e+00  2.0816708287073014e-05 9.0805080043518892e-04 0.0000000000000000e+00  6.7599540627885361e-06 5.0767102084159089e-05 0.0000000000000000e+00  3.2602775835852692e-05 9.7733741846057110e-04 0.0000000000000000e+00  4.5871648758266716e-06 8.3014887246501887e-06 0.0000000000000000e+00  3.2260489159060086e-05 7.8054973632069719e-04 0.0000000000000000e+00  3.2135281859777058e-05 8.3607730036681276e-04 0.0000000000000000e+00  -1.2162786721982144e-07 2.1638168132543687e-05 0.0000000000000000e+00  2.7773896749351001e-06 8.9280812184736497e-05 0.0000000000000000e+00  3.1642799616603589e-05 6.1625163415265070e-04 0.0000000000000000e+00  3.2214009071092205e-05 7.2539303479898581e-04 0.0000000000000000e+00  5.9418959035475482e-06 2.3106842633182349e-04 0.0000000000000000e+00  3.1127849074996803e-05 5.6232651585518543e-04 0.0000000000000000e+00  3.7322193842430837e-06 1.2528542538771032e-04 0.0000000000000000e+00  6.7850135820502898e-06 2.7805062533606766e-04 0.0000000000000000e+00  3.0460930049856644e-05 5.0891616347339724e-04 0.0000000000000000e+00  3.2005828916229123e-05 6.7062068085428997e-04 0.0000000000000000e+00  5.4551107972752228e-06 3.2652663533557879e-04 0.0000000000000000e+00  2.9641781914118878e-05 4.5613418767081185e-04 0.0000000000000000e+00  -4.1298252236403012e-07 -7.9870288218757458e-09 0.0000000000000000e+00  4.9949950023424975e-07 1.0901147872803576e-06 0.0000000000000000e+00  9.9603383250652471e-06 1.0260926135212921e-03 0.0000000000000000e+00  -8.8722444662532092e-07 6.1741976544044128e-06 0.0000000000000000e+00  3.1134368079681111e-05 4.1007771687198323e-04 0.0000000000000000e+00  2.3981634464008332e-05 1.