<?xml version="1.0"?>
<VTKFile type="UnstructuredGrid"  version="0.1"  >
<UnstructuredGrid>
<Piece  NumberOfPoints="1419" NumberOfCells="2698">
<Points>
<DataArray  type="Float64"  NumberOfComponents="3"  format="ascii">0 0 0  0 0.41 0  2.5 0 0  2.5 0.41 0  0.6 0.19 0  0.6 0.21 0  0.25 0.2 0  0.15 0.2 0  0.2489897948556636 0.21 0  0.2489897948556636 0.19 0  0.6 0.2 0  0 0.3807142857143437 0  0 0.3514285714286952 0  0 0.3221428571430699 0  0 0.29285714285744 0  0 0.2635714285718054 0  0 0.2342857142861561 0  0 0.2050000000005308 0  0 0.175714285714732 0  0 0.1464285714289574 0  0 0.1171428571431897 0  0 0.08785714285737878 0  0 0.05857142857161107 0  0 0.02928571428580012 0  0.03015443760436003 0 0  0.06140001986583606 0 0  0.09377624077125973 0 0  0.1273239957535082 0 0  0.1620856860351972 0 0  0.1981052433264291 0 0  0.235428184091502 0 0  0.2741016576309132 0 0  0.3141745521465447 0 0  0.3556974926295285 0 0  0.3987229542472677 0 0  0.4433053055141081 0 0  0.4895008759286886 0 0  0.5373680609405097 0 0  0.5869673343216626 0 0  0.6383613676634521 0 0  0.6916151138468254 0 0  0.7467958595648856 0 0  0.8039733463919316 0 0  0.8632198139502143 0 0  0.9246101326867038 0 0  0.9882218810934433 0 0  1.054135445558498 0 0  1.122434100542598 0 0  1.193204177141305 0 0  1.266535089879536 0 0  1.342519516046404 0 0  1.421253448503939 0 0  1.502836389106271 0 0  1.587371439758838 0 0  1.674965418777374 0 0  1.765729001825544 0 0  1.859776908880082 0 0  1.957227977487062 0 0  2.058205329869943 0 0  2.162836591189951 0 0  2.271253957290865 0 0  2.383594446803425 0 0  2.5 0.1024999999997612 0  2.5 0.2049999999994743 0  2.5 0.3074999999997183 0  2.383594446803656 0.41 0  2.271253957291315 0.41 0  2.162836591190598 0.41 0  2.058205329870775 0.41 0  1.957227977488067 0.41 0  1.859776908881246 0.41 0  1.765729001826854 0.41 0  1.674965418778818 0.41 0  1.58737143976041 0.41 0  1.502836389107956 0.41 0  1.421253448505726 0.41 0  1.342519516048286 0.41 0  1.266535089881505 0.41 0  1.193204177143353 0.41 0  1.122434100544716 0.41 0  1.05413544556068 0.41 0  0.9882218810956305 0.41 0  0.9246101326886647 0.41 0  0.8632198139519631 0.41 0  0.8039733463934788 0.41 0  0.7467958595662458 0.41 0  0.6916151138480078 0.41 0  0.6383613676644679 0.41 0  0.5869673343225223 0.41 0  0.5373680609412221 0.41 0  0.4895008759292634 0.41 0  0.4433053055145528 0.41 0  0.3987229542475914 0.41 0  0.3556974926297398 0.41 0  0.3141745521466497 0.41 0  0.2741016576310038 0.41 0  0.2354281840915826 0.41 0  0.1981052433265003 0.41 0  0.1620856860352591 0.41 0  0.1273239957535623 0.41 0  0.09377624077128965 0.41 0  0.06140001986584975 0.41 0  0.03015443760436654 0.41 0  0.2497468076502589 0.2050254481002335 0  0.2497468076502614 0.1949745518997913 0  0.2469965252529372 0.1829317073451959 0  0.2439893735792749 0.1762316384219906 0  0.2400332147834255 0.1700443375285386 0  0.2352133972704371 0.1645032867342007 0  0.2296339016332438 0.1597280261969788 0  0.2234150974217223 0.1558215752574715 0  0.2166911463437691 0.1528682099456123 0  0.2096071079204251 0.1509316448471593 0  0.2023158100364996 0.1500536585536553 0  0.194974551899914 0.1502531923497262 0  0.1877417105387872 0.1515259415822739 0  0.1807733240461124 0.153844448527136 0  0.1742197252835808 0.15715869474974 0  0.1682222986673531 0.1613971801805478 0  0.162910430003803 0.1664684656256651 0  0.1583987151779087 0.1722631454351573 0  0.1547844879126891 0.178656207771761 0  0.1521457199348551 0.1855097315605723 0  0.1505393388476355 0.1926758619366523 0  0.1505393388476328 0.2073241380633295 0  0.1521457199348437 0.2144902684393899 0  0.1547844879126531 0.221343792228163 0  0.1583987151778488 0.2277368545647528 0  0.1629104300036858 0.2335315343742052 0  0.1682222986671726 0.2386028198193036 0  0.1742197252833576 0.2428413052501257 0  0.1807733240458683 0.2461555514727623 0  0.1877417105384929 0.2484740584176516 0  0.1949745518995776 0.2497468076502398 0  0.202315810036185 0.2499463414463592 0  0.2096071079201568 0.2490683551528932 0  0.2166911463435495 0.2471317900544655 0  0.2234150974215506 0.2441784247426195 0  0.2296339016331197 0.2402719738031125 0  0.2352133972703547 0.2354967132658811 0  0.2400332147833751 0.2299556624715287 0  0.2439893735792577 0.2237683615780412 0  0.246996525252926 0.2170682926548348 0  0.25645809709277 0.21 0  0.2639263993298655 0.21 0  0.271394701566961 0.21 0  0.2788630038040554 0.21 0  0.2863313060411479 0.21 0  0.2937996082782405 0.21 0  0.301267910515333 0.21 0  0.3087362127524279 0.21 0  0.3162045149895234 0.21 0  0.3236728172265972 0.21 0  0.3311411194636928 0.21 0  0.3386094217007701 0.21 0  0.3460777239378666 0.21 0  0.3535460261749672 0.21 0  0.3610143284120516 0.21 0  0.3684826306491596 0.21 0  0.3759509328862226 0.21 0  0.383419235123329 0.21 0  0.3908875373604028 0.21 0  0.3983558395975142 0.21 0  0.4058241418345938 0.21 0  0.4132924440716992 0.21 0  0.4207607463087888 0.21 0  0.4282290485459029 0.21 0  0.4356973507830418 0.21 0  0.4431656530201649 0.21 0  0.4506339552573136 0.21 0  0.4581022574944306 0.21 0  0.4655705597315852 0.21 0  0.4730388619686996 0.21 0  0.480507164205851 0.21 0  0.4879754664429498 0.21 0  0.4954437686800938 0.21 0  0.502912070917267 0.21 0  0.5103803731544119 0.21 0  0.5178486753915261 0.21 0  0.5253169776286404 0.21 0  0.5327852798657868 0.21 0  0.5402535821029386 0.21 0  0.54772188434007 0.21 0  0.5551901865771842 0.21 0  0.5626584888143201 0.21 0  0.5701267910514778 0.21 0  0.5775950932886138 0.21 0  0.5850633955257281 0.21 0  0.5925316977628483 0.21 0  0.6 0.2050000000000054 0  0.6 0.1950000000000217 0  0.5925316977628897 0.19 0  0.5850633955257988 0.19 0  0.5775950932887378 0.19 0  0.5701267910515998 0.19 0  0.5626584888145268 0.19 0  0.5551901865773963 0.19 0  0.547721884340339 0.19 0  0.5402535821032429 0.19 0  0.5327852798661811 0.19 0  0.5253169776290537 0.19 0  0.5178486753919799 0.19 0  0.5103803731549078 0.19 0  0.502912070917822 0.19 0  0.4954437686807294 0.19 0  0.4879754664436223 0.19 0  0.4805071642065402 0.19 0  0.4730388619694271 0.19 0  0.4655705597323621 0.19 0  0.4581022574952563 0.19 0  0.4506339552581777 0.19 0  0.4431656530210671 0.19 0  0.4356973507839815 0.19 0  0.4282290485468779 0.19 0  0.4207607463097617 0.19 0  0.4132924440726327 0.19 0  0.4058241418354857 0.19 0  0.3983558395983636 0.19 0  0.3908875373612097 0.19 0  0.3834192351240934 0.19 0  0.3759509328869369 0.19 0  0.3684826306498175 0.19 0  0.361014328412667 0.19 0  0.3535460261755617 0.19 0  0.3460777239384295 0.19 0  0.3386094217012945 0.19 0  0.3311411194641595 0.19 0  0.3236728172270245 0.19 0  0.3162045149898895 0.19 0  0.3087362127527544 0.19 0  0.3012679105156187 0.19 0  0.2937996082784807 0.19 0  0.2863313060413428 0.19 0  0.2788630038042048 0.19 0  0.2713947015670686 0.19 0  0.2639263993299336 0.19 0  0.2564580970927985 0.19 0  0.2607803159922026 0.2000727136295815 0  0.5887803774232762 0.2001272386983733 0  0.5745072403740523 0.2002044435018727 0  0.5511891430099709 0.2001122610077113 0  0.2751288526855082 0.20000000000002 0  0.5365194309847112 0.1999999999999436 0  0.2894621222999649 0.1998691686390484 0  0.5215828265105155 0.1999999999999228 0  0.3127789816668748 0.1998657885438805 0  0.3274069683451451 0.2000000000000796 0  0.5066462220363641 0.199999999999908 0  0.3650630746574081 0.199866017807523 0  0.476773013087985 0.1999999999998713 0  0.3417402379596385 0.1998691686391011 0  0.3796850840047755 0.200000000000134 0  0.4618364086138087 0.1999999999998546 0  0.4917096175621762 0.1999999999998808 0  0.3946216884789568 0.2000000000001512 0  0.446899804139621 0.1999999999998389 0  0.4089549580935208 0.1998691686391595 0  0.4322718174608562 0.200127451265745 0  0.4201487168029707 0.1999966199048527 0  0.3528922713220932 0.2000185703532356 0  0.5633122436674589 0.1999814296467508 0  0.3006558810093873 0.1999966199048318 0  0.5815926498168407 0.1966545283159175 0  0.2677053789419034 0.1964246479135325 0  0.5290511287476175 0.1970915826863981 0  0.5439877332217911 0.197091582686394 0  0.2825131256993216 0.2035478995978015 0  0.3199386661080599 0.202908417313604 0  0.4842413153250809 0.1970915826863873 0  0.5141145242734466 0.1970915826863843 0  0.3722167817676917 0.2029084173136195 0  0.4693047108508938 0.1970915826863783 0  0.3348752705822316 0.202908417313609 0  0.3871533862418661 0.2029084173136212 0  0.4543681063767183 0.1970915826863795 0  0.4991779197992749 0.1970915826863902 0  0.4020059614928624 0.203547899597858 0  0.4394315019025246 0.1970915826863714 0  0.2550657455369551 0.2034088125358657 0  0.2548908499171161 0.1966940311614271 0  0.5946539510196798 0.2024302972968126 0  0.267698176732111 0.2039977513680092 0  0.4261685417851465 0.196409292431739 0  0.3590076176283495 0.196411355804271 0  0.5571672426447437 0.2036011176410121 0  0.3066757059912147 0.1964092924317024 0  0.594380730180568 0.1966558399668133 0  0.4842413153245942 0.2040749161535287 0  0.4693047108503577 0.2040749161535231 0  0.3871533862424271 0.1959250838464788 0  0.372246743208829 0.1959123236376545 0  0.5141145242731028 0.2040749161535395 0  0.4543681063761134 0.2040749161535186 0  0.4019979587101454 0.1959834479682427 0  0.4394608940728603 0.2040870543693135 0  0.5439623148931173 0.2040856076781014 0  0.5290511287473298 0.2040749161535501 0  0.4991779197988497 0.2040749161535382 0  0.3347912413592433 0.1959225448935183 0  0.3199680582793816 0.1959123018030061 0  0.2825051229162361 0.1959834479681729 0  0.3590471196690275 0.2036304442587945 0  0.5571594006495384 0.1963685282145804 0  0.3067669986803285 0.203627750582736 0  0.4262598344738712 0.2036568242185335 0  0.5814408164431408 0.2041285596160068 0  0.5688286748170428 0.1961819304477386 0  0.4145905603063645 0.2038180695522843 0  0.3473758401724931 0.2038180695522752 0  0.2950977245128307 0.2038180695522663 0  0.5688286748170693 0.203818069552238 0  0.2950977245127906 0.1961819304477774 0  0.3473758401723931 0.1961819304478349 0  0.4145905603061963 0.1961819304479011 0  0.2601812407614425 0.2056861609747042
[...]
<PointData  Vectors="f_40-0"> 
<DataArray  type="Float64"  Name="f_40-0"  NumberOfComponents="3" format="ascii">0.0000000000000000e+00 0.0000000000000000e+00 0.0000000000000000e+00  0.0000000000000000e+00 0.0000000000000000e+00 0.0000000000000000e+00  0.0000000000000000e+00 0.0000000000000000e+00 0.0000000000000000e+00  0.0000000000000000e+00 0.0000000000000000e+00 0.0000000000000000e+00  -5.8292914204651106e-05 -4.2479581112377221e-04 0.0000000000000000e+00  -3.5812392370367041e-05 -4.3109195185972069e-04 0.0000000000000000e+00  0.0000000000000000e+00 0.0000000000000000e+00 0.0000000000000000e+00  0.0000000000000000e+00 0.0000000000000000e+00 0.0000000000000000e+00  0.0000000000000000e+00 0.0000000000000000e+00 0.0000000000000000e+00  0.0000000000000000e+00 0.0000000000000000e+00 0.0000000000000000e+00  -4.7349541215852560e-05 -4.2796464549608104e-04 0.0000000000000000e+00  7.9591836734548407e-02 0.0000000000000000e+00 0.0000000000000000e+00  1.4693877550994527e-01 0.0000000000000000e+00 0.0000000000000000e+00  2.0204081632617479e-01 0.0000000000000000e+00 0.0000000000000000e+00  2.4489795918330076e-01 0.0000000000000000e+00 0.0000000000000000e+00  2.7551020408131754e-01 0.0000000000000000e+00 0.0000000000000000e+00  2.9387755102022350e-01 0.0000000000000000e+00 0.0000000000000000e+00  3.0000000000000004e-01 0.0000000000000000e+00 0.0000000000000000e+00  2.9387755102059482e-01 0.0000000000000000e+00 0.0000000000000000e+00  2.7551020408195548e-01 0.0000000000000000e+00 0.0000000000000000e+00  2.4489795918409071e-01 0.0000000000000000e+00 0.0000000000000000e+00  2.0204081632692525e-01 0.0000000000000000e+00 0.0000000000000000e+00  1.4693877551058568e-01 0.0000000000000000e+00 0.0000000000000000e+00  7.9591836734909230e-02 0.0000000000000000e+00 0.0000000000000000e+00  0.0000000000000000e+00 0.0000000000000000e+00 0.0000000000000000e+00  0.0000000000000000e+00 0.0000000000000000e+00 0.0000000000000000e+00  0.0000000000000000e+00 0.0000000000000000e+00 0.0000000000000000e+00  0.0000000000000000e+00 0.0000000000000000e+00 0.0000000000000000e+00  0.0000000000000000e+00 0.0000000000000000e+00 0.0000000000000000e+00  0.0000000000000000e+00 0.0000000000000000e+00 0.0000000000000000e+00  0.0000000000000000e+00 0.0000000000000000e+00 0.0000000000000000e+00  0.0000000000000000e+00 0.0000000000000000e+00 0.0000000000000000e+00  0.0000000000000000e+00 0.0000000000000000e+00 0.0000000000000000e+00  0.0000000000000000e+00 0.0000000000000000e+00 0.0000000000000000e+00  0.0000000000000000e+00 0.0000000000000000e+00 0.0000000000000000e+00  0.0000000000000000e+00 0.0000000000000000e+00 0.0000000000000000e+00  0.0000000000000000e+00 0.0000000000000000e+00 0.0000000000000000e+00  0.0000000000000000e+00 0.0000000000000000e+00 0.0000000000000000e+00  0.0000000000000000e+00 0.0000000000000000e+00 0.0000000000000000e+00  0.0000000000000000e+00 0.0000000000000000e+00 0.0000000000000000e+00  0.0000000000000000e+00 0.0000000000000000e+00 0.0000000000000000e+00  0.0000000000000000e+00 0.0000000000000000e+00 0.0000000000000000e+00  0.0000000000000000e+00 0.0000000000000000e+00 0.0000000000000000e+00  0.0000000000000000e+00 0.0000000000000000e+00 0.0000000000000000e+00  0.0000000000000000e+00 0.0000000000000000e+00 0.0000000000000000e+00  0.0000000000000000e+00 0.0000000000000000e+00 0.0000000000000000e+00  0.0000000000000000e+00 0.0000000000000000e+00 0.0000000000000000e+00  0.0000000000000000e+00 0.0000000000000000e+00 0.0000000000000000e+00  0.0000000000000000e+00 0.0000000000000000e+00 0.0000000000000000e+00  0.0000000000000000e+00 0.0000000000000000e+00 0.0000000000000000e+00  0.0000000000000000e+00 0.0000000000000000e+00 0.0000000000000000e+00  0.0000000000000000e+00 0.0000000000000000e+00 0.0000000000000000e+00  0.0000000000000000e+00 0.0000000000000000e+00 0.0000000000000000e+00  0.0000000000000000e+00 0.0000000000000000e+00 0.0000000000000000e+00  0.0000000000000000e+00 0.0000000000000000e+00 0.0000000000000000e+00  0.0000000000000000e+00 0.0000000000000000e+00 0.0000000000000000e+00  0.0000000000000000e+00 0.0000000000000000e+00 0.0000000000000000e+00  0.0000000000000000e+00 0.0000000000000000e+00 0.0000000000000000e+00  0.0000000000000000e+00 0.0000000000000000e+00 0.0000000000000000e+00  0.0000000000000000e+00 0.0000000000000000e+00 0.0000000000000000e+00  0.0000000000000000e+00 0.0000000000000000e+00 0.0000000000000000e+00  0.0000000000000000e+00 0.0000000000000000e+00 0.0000000000000000e+00  2.3892219021110744e-01 -7.7780405553252632e-03 0.0000000000000000e+00  3.0991595932576704e-01 2.9088921503783233e-04 0.0000000000000000e+00  2.3924983700532051e-01 1.1405970471802430e-02 0.0000000000000000e+00  0.0000000000000000e+00 0.0000000000000000e+00 0.0000000000000000e+00  0.0000000000000000e+00 0.0000000000000000e+00 0.0000000000000000e+00  0.0000000000000000e+00 0.0000000000000000e+00 0.0000000000000000e+00  0.0000000000000000e+00 0.0000000000000000e+00 0.0000000000000000e+00  0.0000000000000000e+00 0.0000000000000000e+00 0.0000000000000000e+00  0.0000000000000000e+00 0.0000000000000000e+00 0.0000000000000000e+00  0.0000000000000000e+00 0.0000000000000000e+00 0.0000000000000000e+00  0.0000000000000000e+00 0.0000000000000000e+00 0.0000000000000000e+00  0.0000000000000000e+00 0.0000000000000000e+00 0.0000000000000000e+00  0.0000000000000000e+00 0.0000000000000000e+00 0.0000000000000000e+00  0.0000000000000000e+00 0.0000000000000000e+00 0.0000000000000000e+00  0.0000000000000000e+00 0.0000000000000000e+00 0.0000000000000000e+00  0.0000000000000000e+00 0.0000000000000000e+00 0.0000000000000000e+00  0.0000000000000000e+00 0.0000000000000000e+00 0.0000000000000000e+00  0.0000000000000000e+00 0.0000000000000000e+00 0.0000000000000000e+00  0.0000000000000000e+00 0.0000000000000000e+00 0.0000000000000000e+00  0.0000000000000000e+00 0.0000000000000000e+00 0.0000000000000000e+00  0.0000000000000000e+00 0.0000000000000000e+00 0.0000000000000000e+00  0.0000000000000000e+00 0.0000000000000000e+00 0.0000000000000000e+00  0.0000000000000000e+00 0.0000000000000000e+00 0.0000000000000000e+00  0.0000000000000000e+00 0.0000000000000000e+00 0.0000000000000000e+00  0.0000000000000000e+00 0.0000000000000000e+00 0.0000000000000000e+00  0.0000000000000000e+00 0.0000000000000000e+00 0.0000000000000000e+00  0.0000000000000000e+00 0.0000000000000000e+00 0.0000000000000000e+00  0.0000000000000000e+00 0.0000000000000000e+00 0.0000000000000000e+00  0.0000000000000000e+00 0.0000000000000000e+00 0.0000000000000000e+00  0.0000000000000000e+00 0.0000000000000000e+00 0.0000000000000000e+00  0.0000000000000000e+00 0.0000000000000000e+00 0.0000000000000000e+00  0.0000000000000000e+00 0.0000000000000000e+00 0.0000000000000000e+00  0.0000000000000000e+00 0.0000000000000000e+00 0.0000000000000000e+00  0.0000000000000000e+00 0.0000000000000000e+00 0.0000000000000000e+00  0.0000000000000000e+00 0.0000000000000000e+00 0.0000000000000000e+00  0.0000000000000000e+00 0.0000000000000000e+00 0.0000000000000000e+00  0.0000000000000000e+00 0.0000000000000000e+00 0.0000000000000000e+00  0.0000000000000000e+00 0.0000000000000000e+00 0.0000000000000000e+00  0.0000000000000000e+00 0.0000000000000000e+00 0.0000000000000000e+00  0.0000000000000000e+00 0.0000000000000000e+00 0.0000000000000000e+00  0.0000000000000000e+00 0.0000000000000000e+00 0.0000000000000000e+00  0.0000000000000000e+00 0.0000000000000000e+00 0.0000000000000000e+00  0.0000000000000000e+00 0.0000000000000000e+00 0.0000000000000000e+00  0.0000000000000000e+00 0.0000000000000000e+00 0.0000000000000000e+00  0.0000000000000000e+00 0.0000000000000000e+00 0.0000000000000000e+00  0.0000000000000000e+00 0.0000000000000000e+00 0.0000000000000000e+00  0.0000000000000000e+00 0.0000000000000000e+00 0.0000000000000000e+00  0.0000000000000000e+00 0.0000000000000000e+00 0.0000000000000000e+00  0.0000000000000000e+00 0.0000000000000000e+00 0.0000000000000000e+00  0.0000000000000000e+00 0.0000000000000000e+00 0.0000000000000000e+00  0.0000000000000000e+00 0.0000000000000000e+00 0.0000000000000000e+00  0.0000000000000000e+00 0.0000000000000000e+00 0.0000000000000000e+00  0.0000000000000000e+00 0.0000000000000000e+00 0.0000000000000000e+00  0.0000000000000000e+00 0.0000000000000000e+00 0.0000000000000000e+00  0.0000000000000000e+00 0.0000000000000000e+00 0.0000000000000000e+00  0.0000000000000000e+00 0.0000000000000000e+00 0.0000000000000000e+00  0.0000000000000000e+00 0.0000000000000000e+00 0.0000000000000000e+00  0.0000000000000000e+00 0.0000000000000000e+00 0.0000000000000000e+00  0.0000000000000000e+00 0.0000000000000000e+00 0.0000000000000000e+00  0.0000000000000000e+00 0.0000000000000000e+00 0.0000000000000000e+00  0.0000000000000000e+00 0.0000000000000000e+00 0.0000000000000000e+00  0.0000000000000000e+00 0.0000000000000000e+00 0.0000000000000000e+00  0.0000000000000000e+00 0.0000000000000000e+00 0.0000000000000000e+00  0.0000000000000000e+00 0.0000000000000000e+00 0.0000000000000000e+00  0.0000000000000000e+00 0.0000000000000000e+00 0.0000000000000000e+00  0.0000000000000000e+00 0.0000000000000000e+00 0.0000000000000000e+00  0.0000000000000000e+00 0.0000000000000000e+00 0.0000000000000000e+00  0.0000000000000000e+00 0.0000000000000000e+00 0.0000000000000000e+00  0.0000000000000000e+00 0.0000000000000000e+00 0.0000000000000000e+00  0.0000000000000000e+00 0.0000000000000000e+00 0.0000000000000000e+00  0.0000000000000000e+00 0.0000000000000000e+00 0.0000000000000000e+00  0.0000000000000000e+00 0.0000000000000000e+00 0.0000000000000000e+00  0.0000000000000000e+00 0.0000000000000000e+00 0.0000000000000000e+00  0.0000000000000000e+00 0.0000000000000000e+00 0.0000000000000000e+00  0.0000000000000000e+00 0.0000000000000000e+00 0.0000000000000000e+00  0.0000000000000000e+00 0.0000000000000000e+00 0.0000000000000000e+00  0.0000000000000000e+00 0.0000000000000000e+00 0.0000000000000000e+00  0.0000000000000000e+00 0.0000000000000000e+00 0.0000000000000000e+00  0.0000000000000000e+00 0.0000000000000000e+00 0.0000000000000000e+00  0.0000000000000000e+00 0.0000000000000000e+00 0.0000000000000000e+00  0.0000000000000000e+00 0.0000000000000000e+00 0.0000000000000000e+00  8.8567372748665615e-07 -6.4684154846645571e-06 0.0000000000000000e+00  1.9820568413517093e-06 -8.6757696934834069e-06 0.0000000000000000e+00  3.0290095094854276e-06 -1.1539814350392422e-05 0.0000000000000000e+00  4.1844870104753672e-06 -1.5254749610654528e-05 0.0000000000000000e+00  5.0474660269961444e-06 -1.9691408369584613e-05 0.0000000000000000e+00  5.8849352900323491e-06 -2.5001077078916644e-05 0.0000000000000000e+00  6.4030290100356621e-06 -3.0865471834747492e-05 0.0000000000000000e+00  6.7549662155434543e-06 -3.7442513771363498e-05 0.0000000000000000e+00  7.1245063957759548e-06 -4.4548186421910394e-05 0.0000000000000000e+00  7.1791820423409313e-06 -5.2148343549462746e-05 0.0000000000000000e+00  7.2731779411495915e-06 -6.0280678142833662e-05 0.0000000000000000e+00  7.1063741400381563e-06 -6.8814964899862235e-05 0.0000000000000000e+00  6.9502665219242241e-06 -7.7782013484164680e-05 0.0000000000000000e+00  6.6227003076948725e-06 -8.7077805990442702e-05 0.0000000000000000e+00  6.2105552737309981e-06 -9.6760771838537150e-05 0.0000000000000000e+00  5.8178597638359458e-06 -1.0674305753900117e-04 0.0000000000000000e+00  5.2605898587229209e-06 -1.1700240403221331e-04 0.0000000000000000e+00  4.7290695229725441e-06 -1.2755386571070956e-04 0.0000000000000000e+00  4.0587304262644062e-06 -1.3832461876957117e-04 0.0000000000000000e+00  3.4004106371521204e-06 -1.4932290847455041e-04 0.0000000000000000e+00  2.6396844631180230e-06 -1.6049890972315745e-04 0.0000000000000000e+00  1.8566933947301305e-06 -1.7184954863549965e-04 0.0000000000000000e+00  9.9660112819188831e-07 -1.8331148206548388e-04 0.0000000000000000e+00  7.8809243326410587e-08 -1.9488979136476179e-04 0.0000000000000000e+00  -8.6810797659768098e-07 -2.0654095453464546e-04 0.0000000000000000e+00  -1.8917947018045769e-06 -2.1822193066903484e-04 0.0000000000000000e+00  -2.9745932977328762e-06 -2.2994094851440172e-04 0.0000000000000000e+00  -4.1181333964541613e-06 -2.4160838929902044e-04 0.0000000000000000e+00  -5.3297058690063561e-06 -2.5325518696305368e-04 0.0000000000000000e+00  -6.6008336578507277e-06 -2.6478772369655656e-04 0.0000000000000000e+00  -7.9462470886179562e-06 -2.7623784827615595e-04 0.0000000000000000e+00  -9.3480796203554333e-06 -2.8751414279041762e-04 0.0000000000000000e+00  -1.0827514998486627e-05 -2.9865416522941292e-04 0.0000000000000000e+00  -1.2355949494919083e-05 -3.0956568710049877e-04 0.0000000000000000e+00  -1.3967192834213402e-05 -3.2029731271183975e-04 0.0000000000000000e+00  -1.5616649444132452e-05 -3.3076352322686361e-04 0.0000000000000000e+00  -1.7340620319527153e-05 -3.4101282211069465e-04 0.0000000000000000e+00  -1.9091529035993148e-05 -3.5098047511737462e-04 0.0000000000000000e+00  -2.0909140578253759e-05 -3.6071432904607689e-04 0.0000000000000000e+00  -2.2742722250981942e-05 -3.7017607046719518e-04 0.0000000000000000e+00  -2.4649206722559878e-05 -3.7938028025524909e-04 0.0000000000000000e+00  -2.6517521282023142e-05 -3.8838382385427903e-04 0.0000000000000000e+00  -2.8407808160925372e-05 -3.9715042273357474e-04 0.0000000000000000e+00  -3.0329782613322357e-05 -4.0576201556311731e-04 0.0000000000000000e+00  -3.2222243015708750e-05 -4.1420753076048882e-04 0.0000000000000000e+00  -3.4076265832185905e-05 -4.2258070619396142e-04 0.0000000000000000e+00  -4.1671247758632845e-05 -4.2953252071338863e-04 0.0000000000000000e+00  -5.2935568409758545e-05 -4.2638768422922560e-04 0.0000000000000000e+00  -5.6615744391085724e-05 -4.1661119997598060e-04 0.0000000000000000e+00  -5.4941210133148947e-05 -4.0814094922640113e-04 0.0000000000000000e+00  -5.3322225698681995e-05 -3.9953218251916777e-04 0.0000000000000000e+00  -5.1845377325720984e-05 -3.9079811340686960e-04 0.0000000000000000e+00  -5.0393005283904462e-05 -3.8190658132298140e-04 0.0000000000000000e+00  -4.9035983809364656e-05 -3.7278039176960549e-04 0.0000000000000000e+00  -4.7795009133102009e-05 -3.6345242113758748e-04 0.0000000000000000e+00  -4.6550440905351081e-05 -3.5386170047468457e-04 0.0000000000000000e+00  -4.5441825450867666e-05 -3.4404028351849600e-04 0.0000000000000000e+00  -4.4290884472105383e-05 -3.3393736406453988e-04 0.0000000000000000e+00  -4.3260764086334313e-05 -3.2360543892314639e-04 0.0000000000000000e+00  -4.2175947594413318e-05 -3.1301239836931490e-04 0.0000000000000000e+00  -4.1188717271449225e-05 -3.0220636003549150e-04 0.0000000000000000e+00  -4.0140298768102189e-05 -2.9117675131231675e-04 0.0000000000000000e+00  -3.9163484068374060e-05 -2.7996861919292687e-04 0.0000000000000000e+00  -3.8128765123935805e-05 -2.6858757547766133e-04 0.0000000000000000e+00  -3.7139120076232585e-05 -2.5707501379252046e-04 0.0000000000000000e+00  -3.6099388054743518e-05 -2.4545034336392668e-04 0.0000000000000000e+00  -3.5075159408415218e-05 -2.3374863288592258e-04 0.0000000000000000e+00  -3.4014301309019601e-05 -2.2199878622191065e-04 0.0000000000000000e+00  -3.2942418918418960e-05 -2.1023043027921165e-04 0.0000000000000000e+00  -3.1851929131651070e-05 -1.9847772387945637e-04 0.0000000000000000e+00  -3.0726996122108874e-05 -1.8676849100784980e-04 0.0000000000000000e+00  -2.9595158076141288e-05 -1.7512938976144967e-04 0.0000000000000000e+00  -2.8453937629170127e-05 -1.6360839903845290e-04 0.0000000000000000e+00  -2.7260618136296943e-05 -1.5219335815000887e-04 0.0000000000000000e+00  -2.6073942481791015e-05 -1.4094959200901993e-04 0.0000000000000000e+00  -2.4848776312766173e-05 -1.2988258939556545e-04 0.0000000000000000e+00  -2.3633758589239655e-05 -1.1902471334413031e-04 0.0000000000000000e+00  -2.2385988303319021e-05 -1.0840072391461752e-04 0.0000000000000000e+00  -2.1159788103759063e-05 -9.8016635756354169e-05 0.0000000000000000e+00  -1.9875493867842376e-05 -8.7953965175679874e-05 0.0000000000000000e+00  -1.8659538875535373e-05 -7.8136608651838550e-05 0.0000000000000000e+00  -1.7467608785847380e-05 -6.8714928026826250e-05 0.0000000000000000e+00  -1.6184007988259423e-05 -5.9573093619958940e-05 0.0000000000000000e+00  -1.4982673534308504e-05 -5.0859209175094728e-05 0.0000000000000000e+00  -1.3745851651007684e-05 -4.2579444946673859e-05 0.0000000000000000e+00  -1.2578876213101692e-05 -3.4728980497470437e-05 0.0000000000000000e+00  -1.1320763726394790e-05 -2.7460572245076582e-05 0.0000000000000000e+00  -1.0196018969526078e-05 -2.0649818439246237e-05 0.0000000000000000e+00  -9.1075301923725063e-06 -1.4565542745246612e-05 0.0000000000000000e+00  -7.8366497639391519e-06 -9.0255281745014437e-06 0.0000000000000000e+00  -6.6933445645198100e-06 -4.2609658426571442e-06 0.0000000000000000e+00  -5.3038714478473663e-06 -3.6198607963964762e-07 0.0000000000000000e+00  -3.9009939248163873e-06 2.4164002665531449e-06 0.0000000000000000e+00  -1.9915411653864300e-06 3.8768053800765806e-06 0.0000000000000000e+00  -1.7862176917770295e-06 -1.5058456944827306e-06 0.0000000000000000e+00  -4.4420568915677174e-05 -4.1544946298768619e-04 0.0000000000000000e+00  -4.0904099926455457e-05 -3.9924012707112828e-04 0.0000000000000000e+00  -3.5871810420742466e-05 -3.7133124189727410e-04 0.0000000000000000e+00  -1.2841700741602787e-06 -7.1633805058538658e-06 0.0000000000000000e+00  -3.3021273505477118e-05 -3.5258643947611788e-04 0.0000000000000000e+00  -1.6035220771213247e-06 -1.5974413575756083e-05 0.0000000000000000e+00  -3.0145546928185206e-05 -3.3251453594569500e-04 0.0000000000000000e+00  -2.6892198286415524e-06 -3.5848492819478686e-05 0.0000000000000000e+00  -3.6020188234017903e-06 -5.1115897944842913e-05 0.0000000000000000e+00  -2.7437393771472926e-05 -3.1143658131337326e-04 0.0000000000000000e+00  -7.4653326743350982e-06 -9.7498143814925552e-05 0.0000000000000000e+00  -2.2460188464224202e-05 -2.6676698750644498e-04 0.0000000000000000e+00  -5.0036108274021605e-06 -6.7618595098201838e-05 0.0000000000000000e+00  -9.0008843875612041e-06 -1.1780536797292175e-04 0.0000000000000000e+00  -2.0156649367830614e-05 -2.4356569726664698e-04 0.0000000000000000e+00  -2.4880900438649701e-05 -2.8946247689646491e-04 0.0000000000000000e+00  -1.0853863650758329e-05 -1.3946683897372270e-04 0.0000000000000000e+00  -1.7952662612880509e-05 -2.2010132006231956e-04 0.0000000000000000e+00  -1.2907718437498576e-05 -1.6094773906110140e-04 0.0000000000000000e+00  -1.5678725012525287e-05 -1.9716006896582395e-04 0.0000000000000000e+00  -1.4217387035807891e-05 -1.7822279697366327e-04 0.0000000000000000e+00  -5.9514943578622434e-06 -8.1617135137459750e-05 0.0000000000000000e+00  -3.8657960183213679e-05 -3.8600837153669602e-04 0.0000000000000000e+00  -1.9553030844994126e-06 -2.4933474598709016e-05 0.0000000000000000e+00  -4.6635831060586427e-05 -4.0626431541368983e-04 0.0000000000000000e+00  -2.6595506798772998e-06 -1.7957336178115206e-06 0.0000000000000000e+00  -3.5437608390643534e-05 -3.4164086577079597e-04 0.0000000000000000e+00  -3.8214741332472430e-05 -3.6122622033391119e-04 0.0000000000000000e+00  7.1065426908563625e-07 -1.3387916222489617e-05 0.0000000000000000e+00  -8.3356170184275025e-08 -4.4573070675644721e-05 0.0000000000000000e+00  -2.8014990652107855e-05 -2.7707469700415116e-04 0.0000000000000000e+00  -3.2832081955842957e-05 -3.2102681306400021e-04 0.0000000000000000e+00  -4.1406543547473704e-06 -1.0861606225205947e-04 0.0000000000000000e+00  -2.5750107315051098e-05 -2.5407872362158673e-04 0.0000000000000000e+00  -9.2860425088750974e-07 -6.0952886121512012e-05 0.0000000000000000e+00  -5.7580332670863231e-06 -1.2977902101052446e-04 0.0000000000000000e+00  -2.3548474921251498e-05 -2.3069887054444861e-04 0.0000000000000000e+00  -3.0367285977890659e-05 -2.9945613175114333e-04 0.0000000000000000e+00  -6.5461712685789916e-06 -1.5198086779737136e-04 0.0000000000000000e+00  -2.1391811380823093e-05 -2.0718323367740891e-04 0.0000000000000000e+00  -1.2284231424810191e-06 -1.6237789820504057e-06 0.0000000000000000e+00  -1.6598497114274321e-06 7.6092666252706386e-07 0.0000000000000000e+00  -4.3279689602277249e-05 -4.22718195